<event>
 7    1  0.2809593E-013  0.7246159E+02  0.7816164E-02  0.1226708E+00
        -11   -1    0    0    0    0  0.00000000000E+00  0.00000000000E+00  0.45593999997E+02  0.45594000000E+02  0.51100000000E-03 0. -1.
         11   -1    0    0    0    0 -0.00000000000E+00 -0.00000000000E+00 -0.45593999997E+02  0.45594000000E+02  0.51100000000E-03 0.  1.
    9900012    2    1    2    0    0 -0.81625185895E+01 -0.88129295366E+01  0.14366077247E+02  0.72461585175E+02  0.70000019384E+02 0.  0.
        -12    1    1    2    0    0  0.81625185895E+01  0.88129295366E+01 -0.14366077247E+02  0.18726414825E+02  0.00000000000E+00 0.  1.
         11    1    3    3    0    0 -0.85003964027E+01 -0.36605945680E+01  0.22524125430E+01  0.95252324969E+01  0.51100000000E-03 0. -1.
        -11    1    3    3    0    0 -0.78714148439E+01  0.21424980286E+02  0.23608783343E+02  0.32838447026E+02  0.51100000000E-03 0.  1.
        -12    1    3    3    0    0  0.82092926571E+01 -0.26577315255E+02 -0.11495118639E+02  0.30097905651E+02  0.00000000000E+00 0.  1.
</event>
<event>
 7    1  0.2809593E-013  0.7246146E+02  0.7816164E-02  0.1226708E+00
        -11   -1    0    0    0    0  0.00000000000E+00  0.00000000000E+00  0.45593999997E+02  0.45594000000E+02  0.51100000000E-03 0. -1.
         11   -1    0    0    0    0 -0.00000000000E+00 -0.00000000000E+00 -0.45593999997E+02  0.45594000000E+02  0.51100000000E-03 0.  1.
    9900012    2    1    2    0    0 -0.10043785389E+02 -0.13070938039E+02  0.88857403236E+01  0.72461456612E+02  0.69999851908E+02 0.  0.
        -12    1    1    2    0    0  0.10043785389E+02  0.13070938039E+02 -0.88857403236E+01  0.18726543388E+02  0.00000000000E+00 0.  1.
         11    1    3    3    0    0 -0.10583819931E+02 -0.37586889106E+01 -0.22488364306E+02  0.25137054643E+02  0.51100000000E-03 0. -1.
        -11    1    3    3    0    0 -0.71644072762E+01 -0.66962307847E+01 -0.43191170177E+01  0.10715549935E+02  0.51100000000E-03 0.  1.
         12    1    3    3    0    0  0.77044418185E+01 -0.26160183433E+01  0.35693221648E+02  0.36608852035E+02  0.00000000000E+00 0. -1.
</event>
<event>
 7    1  0.2809593E-013  0.7246157E+02  0.7816164E-02  0.1226708E+00
        -11   -1    0    0    0    0  0.00000000000E+00  0.00000000000E+00  0.45593999997E+02  0.45594000000E+02  0.51100000000E-03 0.  1.
         11   -1    0    0    0    0 -0.00000000000E+00 -0.00000000000E+00 -0.45593999997E+02  0.45594000000E+02  0.51100000000E-03 0. -1.
    9900012    2    1    2    0    0 -0.83030962826E+01 -0.14317735467E+02  0.87601526129E+01  0.72461568664E+02  0.69999997876E+02 0.  0.
        -12    1    1    2    0    0  0.83030962826E+01  0.14317735467E+02 -0.87601526129E+01  0.18726431336E+02  0.00000000000E+00 0.  1.
         11    1    3    3    0    0  0.13758022092E+02 -0.13420326658E+02  0.10712082843E+02  0.22003114748E+02  0.51100000000E-03 0.  1.
        -11    1    3    3    0    0  0.10526018491E+02  0.27688417844E+01 -0.11961369389E+02  0.16172133688E+02  0.51100000000E-03 0. -1.
        -12    1    3    3    0    0 -0.32587136866E+02 -0.36662505933E+01  0.10009439159E+02  0.34286320228E+02  0.00000000000E+00 0.  1.
</event>
<event>
 7    1  0.2809593E-013  0.7246157E+02  0.7816164E-02  0.1226708E+00
        -11   -1    0    0    0    0  0.00000000000E+00  0.00000000000E+00  0.45593999997E+02  0.45594000000E+02  0.51100000000E-03 0.  1.
         11   -1    0    0    0    0 -0.00000000000E+00 -0.00000000000E+00 -0.45593999997E+02  0.45594000000E+02  0.51100000000E-03 0. -1.
    9900012    2    1    2    0    0  0.14359613555E+02 -0.10522456295E+02  0.58102174893E+01  0.72461569074E+02  0.69999998411E+02 0.  0.
        -12    1    1    2    0    0 -0.14359613555E+02  0.10522456295E+02 -0.58102174893E+01  0.18726430926E+02  0.00000000000E+00 0.  1.
         11    1    3    3    0    0  0.26443383471E+01  0.67459349030E+00 -0.47323312195E+01  0.54628344935E+01  0.51100000000E-03 0. -1.
        -11    1    3    3    0    0  0.24869757852E+02  0.17276523436E+02  0.17354537327E+02  0.34902193108E+02  0.51100000000E-03 0.  1.
         12    1    3    3    0    0 -0.13154482644E+02 -0.28473573221E+02 -0.68119886184E+01  0.32096541473E+02  0.00000000000E+00 0. -1.
</event>
<event>
 7    1  0.2809593E-013  0.7246158E+02  0.7816164E-02  0.1226708E+00
        -11   -1    0    0    0    0  0.00000000000E+00  0.00000000000E+00  0.45593999997E+02  0.45594000000E+02  0.51100000000E-03 0.  1.
         11   -1    0    0    0    0 -0.00000000000E+00 -0.00000000000E+00 -0.45593999997E+02  0.45594000000E+02  0.51100000000E-03 0. -1.
    9900012    2    1    2    0    0 -0.17223605062E+02  0.28547138287E+01  0.67732451047E+01  0.72461579851E+02  0.70000012449E+02 0.  0.
        -12    1    1    2    0    0  0.17223605062E+02 -0.28547138287E+01 -0.67732451047E+01  0.18726420149E+02  0.00000000000E+00 0.  1.
         11    1    3    3    0    0  0.14116743806E+02  0.10352472482E+02  0.16263003711E+02  0.23894380765E+02  0.51100000000E-03 0. -1.
        -11    1    3    3    0    0  0.15445996771E+01 -0.13856360494E+02 -0.80444278194E+00  0.13965372990E+02  0.51100000000E-03 0.  1.
        -12    1    3    3    0    0 -0.32884948545E+02  0.63586018405E+01 -0.86853158239E+01  0.34601826095E+02  0.00000000000E+00 0.  1.
</event>
<event>
 7    1  0.2809593E-013  0.7246158E+02  0.7816164E-02  0.1226708E+00
        -11   -1    0    0    0    0  0.00000000000E+00  0.00000000000E+00  0.45593999997E+02  0.45594000000E+02  0.51100000000E-03 0. -1.
         11   -1    0    0    0    0 -0.00000000000E+00 -0.00000000000E+00 -0.45593999997E+02  0.45594000000E+02  0.51100000000E-03 0.  1.
    9900012    2    1    2    0    0 -0.14841127000E+02  0.36878026612E+01  0.10808321555E+02  0.72461581391E+02  0.70000014455E+02 0.  0.
        -12    1    1    2    0    0  0.14841127000E+02 -0.36878026612E+01 -0.10808321555E+02  0.18726418609E+02  0.00000000000E+00 0.  1.
         11    1    3    3    0    0  0.64901475705E+01 -0.32209089282E+01  0.20493564444E+02  0.21736661512E+02  0.51100000000E-03 0. -1.
        -11    1    3    3    0    0 -0.24185317590E+01 -0.14355106393E+02  0.85914921261E+01  0.16903612413E+02  0.51100000000E-03 0.  1.
        -12    1    3    3    0    0 -0.18912742811E+02  0.21263817982E+02 -0.18276735015E+02  0.33821307465E+02  0.00000000000E+00 0.  1.
</event>
<event>
 7    1  0.2809593E-013  0.7246157E+02  0.7816164E-02  0.1226708E+00
        -11   -1    0    0    0    0  0.00000000000E+00  0.00000000000E+00  0.45593999997E+02  0.45594000000E+02  0.51100000000E-03 0.  1.
         11   -1    0    0    0    0 -0.00000000000E+00 -0.00000000000E+00 -0.45593999997E+02  0.45594000000E+02  0.51100000000E-03 0. -1.
    9900012    2    1    2    0    0 -0.15519041680E+02 -0.93300246298E+01 -0.47738042269E+01  0.72461568919E+02  0.69999998208E+02 0.  0.
        -12    1    1    2    0    0  0.15519041680E+02  0.93300246298E+01  0.47738042269E+01  0.18726431081E+02  0.00000000000E+00 0.  1.
         11    1    3    3    0    0 -0.30585551639E+02 -0.80989034201E+01  0.10423238558E+02  0.33312341676E+02  0.51100000000E-03 0. -1.
        -11    1    3    3    0    0  0.57485477998E+00 -0.66885766805E+01  0.85061196947E+01  0.10836124240E+02  0.51100000000E-03 0.  1.
        -12    1    3    3    0    0  0.14491655179E+02  0.54574554708E+01 -0.23703162480E+02  0.28313103002E+02  0.00000000000E+00 0.  1.
</event>
<event>
 7    1  0.2809593E-013  0.7246161E+02  0.7816164E-02  0.1226708E+00
        -11   -1    0    0    0    0  0.00000000000E+00  0.00000000000E+00  0.45593999997E+02  0.45594000000E+02  0.51100000000E-03 0. -1.
         11   -1    0    0    0    0 -0.00000000000E+00 -0.00000000000E+00 -0.45593999997E+02  0.45594000000E+02  0.51100000000E-03 0.  1.
    9900012    2    1    2    0    0  0.11201875723E+02  0.34419406075E+01  0.14606462375E+02  0.72461609052E+02  0.70000050489E+02 0.  0.
        -12    1    1    2    0    0 -0.11201875723E+02 -0.34419406075E+01 -0.14606462375E+02  0.18726390948E+02  0.00000000000E+00 0.  1.
         11    1    3    3    0    0  0.89754803664E+01  0.19013516271E+02  0.18740749208E+01  0.21108889261E+02  0.51100000000E-03 0. -1.
        -11    1    3    3    0    0  0.17995307714E+01 -0.12679647807E+02 -0.17107473329E+02  0.21370012247E+02  0.51100000000E-03 0.  1.
         12    1    3    3    0    0  0.42686458470E+00 -0.28919278564E+01  0.29839860782E+02  0.29982707543E+02  0.00000000000E+00 0. -1.
</event>
<event>
 7    1  0.2809593E-013  0.7246163E+02  0.7816164E-02  0.1226708E+00
        -11   -1    0    0    0    0  0.00000000000E+00  0.00000000000E+00  0.45593999997E+02  0.45594000000E+02  0.51100000000E-03 0. -1.
         11   -1    0    0    0    0 -0.00000000000E+00 -0.00000000000E+00 -0.45593999997E+02  0.45594000000E+02  0.51100000000E-03 0.  1.
    9900012    2    1    2    0    0  0.17623364158E+02 -0.29977028190E+01  0.55774398452E+01  0.72461627642E+02  0.70000074706E+02 0.  0.
        -12    1    1    2    0    0 -0.17623364158E+02  0.29977028190E+01 -0.55774398452E+01  0.18726372358E+02  0.00000000000E+00 0.  1.
         11    1    3    3    0    0  0.17970107849E+02  0.13911074548E+02 -0.50514386248E+01  0.23280030147E+02  0.51100000000E-03 0. -1.
        -11    1    3    3    0    0 -0.93263902536E+01 -0.18051231689E+02 -0.12834720153E+02  0.24032448114E+02  0.51100000000E-03 0.  1.
         12    1    3    3    0    0  0.89796465628E+01  0.11424543222E+01  0.23463598623E+02  0.25149149382E+02  0.00000000000E+00 0. -1.
</event>
<event>
 7    1  0.2809593E-013  0.7246157E+02  0.7816164E-02  0.1226708E+00
        -11   -1    0    0    0    0  0.00000000000E+00  0.00000000000E+00  0.45593999997E+02  0.45594000000E+02  0.51100000000E-03 0. -1.
         11   -1    0    0    0    0 -0.00000000000E+00 -0.00000000000E+00 -0.45593999997E+02  0.45594000000E+02  0.51100000000E-03 0.  1.
    9900012    2    1    2    0    0 -0.89825313133E+01  0.16355916647E+02  0.15739434240E+01  0.72461570119E+02  0.69999999772E+02 0.  0.
        -12    1    1    2    0    0  0.89825313133E+01 -0.16355916647E+02 -0.15739434240E+01  0.18726429881E+02  0.00000000000E+00 0.  1.
         11    1    3    3    0    0 -0.53532745058E+01  0.51144465801E+01 -0.59084777859E+01  0.94723398252E+01  0.51100000000E-03 0. -1.
        -11    1    3    3    0    0  0.11097908220E+02  0.26620587832E+02 -0.14588658746E+02  0.32321018357E+02  0.51100000000E-03 0.  1.
         12    1    3    3    0    0 -0.14727165027E+02 -0.15379117765E+02  0.22071079956E+02  0.30668211937E+02  0.00000000000E+00 0. -1.
</event>
<event>
 7    1  0.2809593E-013  0.7246158E+02  0.7816164E-02  0.1226708E+00
        -11   -1    0    0    0    0  0.00000000000E+00  0.00000000000E+00  0.45593999997E+02  0.45594000000E+02  0.51100000000E-03 0.  1.
         11   -1    0    0    0    0 -0.00000000000E+00 -0.00000000000E+00 -0.45593999997E+02  0.45594000000E+02  0.51100000000E-03 0. -1.
    9900012    2    1    2    0    0 -0.12039626446E+02 -0.42508524496E+01 -0.13698774961E+02  0.72461580509E+02  0.70000013307E+02 0.  0.
        -12    1    1    2    0    0  0.12039626446E+02  0.42508524496E+01  0.13698774961E+02  0.18726419491E+02  0.00000000000E+00 0.  1.
         11    1    3    3    0    0 -0.54112449992E+00  0.71033780225E+01 -0.33658007819E+01  0.78790488144E+01  0.51100000000E-03 0. -1.
        -11    1    3    3    0    0  0.10974021904E+02  0.12891932811E+02  0.15246132713E+02  0.22783231802E+02  0.51100000000E-03 0.  1.
         12    1    3    3    0    0 -0.22472523849E+02 -0.24246163284E+02 -0.25579106893E+02  0.41799299893E+02  0.00000000000E+00 0. -1.
</event>
<event>
 7    1  0.2809593E-013  0.7246134E+02  0.7816164E-02  0.1226709E+00
        -11   -1    0    0    0    0  0.00000000000E+00  0.00000000000E+00  0.45593999997E+02  0.45594000000E+02  0.51100000000E-03 0.  1.
         11   -1    0    0    0    0 -0.00000000000E+00 -0.00000000000E+00 -0.45593999997E+02  0.45594000000E+02  0.51100000000E-03 0. -1.
    9900012    2    1    2    0    0 -0.15724431048E+00  0.15413329274E+02 -0.10634492753E+02  0.72461337692E+02  0.69999696992E+02 0.  0.
        -12    1    1    2    0    0  0.15724431048E+00 -0.15413329274E+02  0.10634492753E+02  0.18726662308E+02  0.00000000000E+00 0.  1.
         11    1    3    3    0    0  0.68023693059E+00 -0.48342924513E+01  0.28058877123E+01  0.56308180491E+01  0.51100000000E-03 0. -1.
        -11    1    3    3    0    0  0.77189916903E+01  0.16348805495E+02  0.22966573434E+02  0.29228920086E+02  0.51100000000E-03 0.  1.
         12    1    3    3    0    0 -0.85564729314E+01  0.38988162305E+01 -0.36406953900E+02  0.37601599557E+02  0.00000000000E+00 0. -1.
</event>
<event>
 7    1  0.2809593E-013  0.7246159E+02  0.7816164E-02  0.1226708E+00
        -11   -1    0    0    0    0  0.00000000000E+00  0.00000000000E+00  0.45593999997E+02  0.45594000000E+02  0.51100000000E-03 0.  1.
         11   -1    0    0    0    0 -0.00000000000E+00 -0.00000000000E+00 -0.45593999997E+02  0.45594000000E+02  0.51100000000E-03 0. -1.
    9900012    2    1    2    0    0  0.15713201200E+01 -0.13847433460E+02 -0.12508315314E+02  0.72461590511E+02  0.70000026336E+02 0.  0.
        -12    1    1    2    0    0 -0.15713201200E+01  0.13847433460E+02  0.12508315314E+02  0.18726409489E+02  0.00000000000E+00 0.  1.
         11    1    3    3    0    0  0.27321028987E+02 -0.71155855956E+01 -0.73172381646E+01  0.29165256006E+02  0.51100000000E-03 0. -1.
        -11    1    3    3    0    0  0.81106080737E+01  0.12072487397E+01 -0.12619422056E+01  0.82964999389E+01  0.51100000000E-03 0.  1.
        -12    1    3    3    0    0 -0.33860316941E+02 -0.79390966042E+01 -0.39291349439E+01  0.34999834566E+02  0.00000000000E+00 0.  1.
</event>
<event>
 7    1  0.2809593E-013  0.7246152E+02  0.7816164E-02  0.1226708E+00
        -11   -1    0    0    0    0  0.00000000000E+00  0.00000000000E+00  0.45593999997E+02  0.45594000000E+02  0.51100000000E-03 0. -1.
         11   -1    0    0    0    0 -0.00000000000E+00 -0.00000000000E+00 -0.45593999997E+02  0.45594000000E+02  0.51100000000E-03 0.  1.
    9900012    2    1    2    0    0 -0.13337565775E+01 -0.42085062378E+01  0.18198638430E+02  0.72461524836E+02  0.69999940782E+02 0.  0.
        -12    1    1    2    0    0  0.13337565775E+01  0.42085062378E+01 -0.18198638430E+02  0.18726475164E+02  0.00000000000E+00 0.  1.
         11    1    3    3    0    0 -0.70752456075E+01  0.14917783145E+02  0.23783224261E+01  0.16681000336E+02  0.51100000000E-03 0. -1.
        -11    1    3    3    0    0  0.11981504956E+02  0.36798769225E+01 -0.13296341566E+02  0.18272675077E+02  0.51100000000E-03 0.  1.
         12    1    3    3    0    0 -0.62400159260E+01 -0.22806166306E+02  0.29116657570E+02  0.37507849423E+02  0.00000000000E+00 0. -1.
</event>
<event>
 7    1  0.2809593E-013  0.7246157E+02  0.7816164E-02  0.1226708E+00
        -11   -1    0    0    0    0  0.00000000000E+00  0.00000000000E+00  0.45593999997E+02  0.45594000000E+02  0.51100000000E-03 0.  1.
         11   -1    0    0    0    0 -0.00000000000E+00 -0.00000000000E+00 -0.45593999997E+02  0.45594000000E+02  0.51100000000E-03 0. -1.
    9900012    2    1    2    0    0  0.13559364528E+02 -0.12491364071E+02  0.32846341589E+01  0.72461565094E+02  0.69999993225E+02 0.  0.
        -12    1    1    2    0    0 -0.13559364528E+02  0.12491364071E+02 -0.32846341589E+01  0.18726434906E+02  0.00000000000E+00 0.  1.
         11    1    3    3    0    0 -0.49586058272E+00 -0.32978422712E+02 -0.89336603919E+01  0.34170638428E+02  0.51100000000E-03 0. -1.
        -11    1    3    3    0    0 -0.62676477856E+01  0.55226917009E+01 -0.29338780701E+01  0.88538789905E+01  0.51100000000E-03 0.  1.
        -12    1    3    3    0    0  0.20322872896E+02  0.14964366941E+02  0.15152172621E+02  0.29437047675E+02  0.00000000000E+00 0.  1.
</event>
<event>
 7    1  0.2809593E-013  0.7246157E+02  0.7816164E-02  0.1226708E+00
        -11   -1    0    0    0    0  0.00000000000E+00  0.00000000000E+00  0.45593999997E+02  0.45594000000E+02  0.51100000000E-03 0.  1.
         11   -1    0    0    0    0 -0.00000000000E+00 -0.00000000000E+00 -0.45593999997E+02  0.45594000000E+02  0.51100000000E-03 0. -1.
    9900012    2    1    2    0    0 -0.39574592030E+01  0.16265774136E+02 -0.83929843112E+01  0.72461572759E+02  0.70000003210E+02 0.  0.
        -12    1    1    2    0    0  0.39574592030E+01 -0.16265774136E+02  0.83929843112E+01  0.18726427241E+02  0.00000000000E+00 0.  1.
         11    1    3    3    0    0 -0.11595408355E+02 -0.73268883336E+01 -0.23007533495E+02  0.26785880336E+02  0.51100000000E-03 0. -1.
        -11    1    3    3    0    0 -0.12350225209E+02  0.84998669078E+01 -0.26912176276E+01  0.15232151941E+02  0.51100000000E-03 0.  1.
        -12    1    3    3    0    0  0.19988174361E+02  0.15092795562E+02  0.17305766811E+02  0.30443540482E+02  0.00000000000E+00 0.  1.
</event>
<event>
 7    1  0.2809593E-013  0.7246157E+02  0.7816164E-02  0.1226708E+00
        -11   -1    0    0    0    0  0.00000000000E+00  0.00000000000E+00  0.45593999997E+02  0.45594000000E+02  0.51100000000E-03 0. -1.
         11   -1    0    0    0    0 -0.00000000000E+00 -0.00000000000E+00 -0.45593999997E+02  0.45594000000E+02  0.51100000000E-03 0.  1.
    9900012    2    1    2    0    0 -0.94824197571E+01 -0.11347711794E+02  0.11488785624E+02  0.72461573685E+02  0.70000004417E+02 0.  0.
        -12    1    1    2    0    0  0.94824197571E+01  0.11347711794E+02 -0.11488785624E+02  0.18726426315E+02  0.00000000000E+00 0.  1.
         11    1    3    3    0    0 -0.93958270985E+01 -0.24361091625E+02 -0.74758923149E+01  0.27159405704E+02  0.51100000000E-03 0. -1.
        -11    1    3    3    0    0 -0.95637723985E+01 -0.10456841787E+02  0.88805187553E+00  0.14198588629E+02  0.51100000000E-03 0.  1.
        -12    1    3    3    0    0  0.94771797400E+01  0.23470221619E+02  0.18076626064E+02  0.31103579352E+02  0.00000000000E+00 0.  1.
</event>
<event>
 7    1  0.2809593E-013  0.7246154E+02  0.7816164E-02  0.1226708E+00
        -11   -1    0    0    0    0  0.00000000000E+00  0.00000000000E+00  0.45593999997E+02  0.45594000000E+02  0.51100000000E-03 0.  1.
         11   -1    0    0    0    0 -0.00000000000E+00 -0.00000000000E+00 -0.45593999997E+02  0.45594000000E+02  0.51100000000E-03 0. -1.
    9900012    2    1    2    0    0 -0.64463181237E+01  0.15627752243E+02 -0.80559661614E+01  0.72461541490E+02  0.69999962477E+02 0.  0.
        -12    1    1    2    0    0  0.64463181237E+01 -0.15627752243E+02  0.80559661614E+01  0.18726458510E+02  0.00000000000E+00 0.  1.
         11    1    3    3    0    0  0.16006604954E+02  0.22047499098E+01 -0.10668292021E+02  0.19361941515E+02  0.51100000000E-03 0. -1.
        -11    1    3    3    0    0 -0.25186846029E+02 -0.92543298230E+01  0.10672436987E+02  0.28877685934E+02  0.51100000000E-03 0.  1.
         12    1    3    3    0    0  0.27339229516E+01  0.22677332157E+02 -0.80601111277E+01  0.24221914042E+02  0.00000000000E+00 0. -1.
</event>
<event>
 7    1  0.2809593E-013  0.7246159E+02  0.7816164E-02  0.1226708E+00
        -11   -1    0    0    0    0  0.00000000000E+00  0.00000000000E+00  0.45593999997E+02  0.45594000000E+02  0.51100000000E-03 0.  1.
         11   -1    0    0    0    0 -0.00000000000E+00 -0.00000000000E+00 -0.45593999997E+02  0.45594000000E+02  0.51100000000E-03 0. -1.
    9900012    2    1    2    0    0  0.81569360730E+01  0.15613868751E+02  0.63521654037E+01  0.72461587936E+02  0.70000022982E+02 0.  0.
        -12    1    1    2    0    0 -0.81569360730E+01 -0.15613868751E+02 -0.63521654037E+01  0.18726412064E+02  0.00000000000E+00 0.  1.
         11    1    3    3    0    0  0.22802550002E+01  0.24668255434E+01 -0.14309366860E+02  0.14698393495E+02  0.51100000000E-03 0. -1.
        -11    1    3    3    0    0 -0.21774466827E+02  0.13908338260E+02  0.13674084392E+02  0.29232684840E+02  0.51100000000E-03 0.  1.
        -12    1    3    3    0    0  0.27651147900E+02 -0.76129505262E+00  0.69874478724E+01  0.28530509601E+02  0.00000000000E+00 0.  1.
</event>
<event>
 7    1  0.2809593E-013  0.7246160E+02  0.7816164E-02  0.1226708E+00
        -11   -1    0    0    0    0  0.00000000000E+00  0.00000000000E+00  0.45593999997E+02  0.45594000000E+02  0.51100000000E-03 0.  1.
         11   -1    0    0    0    0 -0.00000000000E+00 -0.00000000000E+00 -0.45593999997E+02  0.45594000000E+02  0.51100000000E-03 0. -1.
    9900012    2    1    2    0    0 -0.88439689006E+01  0.11313850574E+02 -0.12019112996E+02  0.72461599440E+02  0.70000037967E+02 0.  0.
        -12    1    1    2    0    0  0.88439689006E+01 -0.11313850574E+02  0.12019112996E+02  0.18726400560E+02  0.00000000000E+00 0.  1.
         11    1    3    3    0    0  0.11676402266E+02 -0.22809349801E+01  0.77828180625E+00  0.11922531489E+02  0.51100000000E-03 0. -1.
        -11    1    3    3    0    0 -0.16938241385E+01 -0.25465014460E+00  0.20106477241E+02  0.20179304106E+02  0.51100000000E-03 0.  1.
         12    1    3    3    0    0 -0.18826547028E+02  0.13849435699E+02 -0.32903872043E+02  0.40359763845E+02  0.00000000000E+00 0. -1.
</event>
<event>
 7    1  0.2809593E-013  0.7246159E+02  0.7816164E-02  0.1226708E+00
        -11   -1    0    0    0    0  0.00000000000E+00  0.00000000000E+00  0.45593999997E+02  0.45594000000E+02  0.51100000000E-03 0.  1.
         11   -1    0    0    0    0 -0.00000000000E+00 -0.00000000000E+00 -0.45593999997E+02  0.45594000000E+02  0.51100000000E-03 0. -1.
    9900012    2    1    2    0    0 -0.12908164658E+01 -0.28125300110E+01 -0.18468946597E+02  0.72461587620E+02  0.70000022570E+02 0.  0.
        -12    1    1    2    0    0  0.12908164658E+01  0.28125300110E+01  0.18468946597E+02  0.18726412380E+02  0.00000000000E+00 0.  1.
         11    1    3    3    0    0  0.10463118617E+02  0.12342858654E+02 -0.83293843379E+01  0.18198946526E+02  0.51100000000E-03 0. -1.
        -11    1    3    3    0    0  0.66841871995E+01 -0.23128424750E+02  0.97680382406E+01  0.25981088531E+02  0.51100000000E-03 0.  1.
         12    1    3    3    0    0 -0.18438122283E+02  0.79730360851E+01 -0.19907600500E+02  0.28281552563E+02  0.00000000000E+00 0. -1.
</event>
<event>
 7    1  0.2809593E-013  0.7246167E+02  0.7816164E-02  0.1226708E+00
        -11   -1    0    0    0    0  0.00000000000E+00  0.00000000000E+00  0.45593999997E+02  0.45594000000E+02  0.51100000000E-03 0.  1.
         11   -1    0    0    0    0 -0.00000000000E+00 -0.00000000000E+00 -0.45593999997E+02  0.45594000000E+02  0.51100000000E-03 0. -1.
    9900012    2    1    2    0    0 -0.28238474615E+01 -0.17332950427E+02 -0.65015420131E+01  0.72461672716E+02  0.70000133423E+02 0.  0.
        -12    1    1    2    0    0  0.28238474615E+01  0.17332950427E+02  0.65015420131E+01  0.18726327284E+02  0.00000000000E+00 0.  1.
         11    1    3    3    0    0 -0.73887574574E+00 -0.12604140571E+02 -0.22215991719E+02  0.25553093457E+02  0.51100000000E-03 0. -1.
        -11    1    3    3    0    0  0.14846589397E+01 -0.23924012612E+02  0.44873143375E+01  0.24386442583E+02  0.51100000000E-03 0.  1.
         12    1    3    3    0    0 -0.35696306554E+01  0.19195202756E+02  0.11227135369E+02  0.22522136676E+02  0.00000000000E+00 0. -1.
</event>
<event>
 7    1  0.2809593E-013  0.7246119E+02  0.7816164E-02  0.1226709E+00
        -11   -1    0    0    0    0  0.00000000000E+00  0.00000000000E+00  0.45593999997E+02  0.45594000000E+02  0.51100000000E-03 0.  1.
         11   -1    0    0    0    0 -0.00000000000E+00 -0.00000000000E+00 -0.45593999997E+02  0.45594000000E+02  0.51100000000E-03 0. -1.
    9900012    2    1    2    0    0 -0.89899268401E+01 -0.12575082538E+02 -0.10570807737E+02  0.72461188695E+02  0.69999502894E+02 0.  0.
        -12    1    1    2    0    0  0.89899268401E+01  0.12575082538E+02  0.10570807737E+02  0.18726811305E+02  0.00000000000E+00 0.  1.
         11    1    3    3    0    0 -0.12485043828E+02  0.13076798665E+02 -0.13337765200E+02  0.22467197500E+02  0.51100000000E-03 0. -1.
        -11    1    3    3    0    0 -0.14441330134E+02  0.10909426878E+01  0.91989979777E+01  0.17157031679E+02  0.51100000000E-03 0.  1.
         12    1    3    3    0    0  0.17936447122E+02 -0.26742823891E+02 -0.64320405144E+01  0.32836959515E+02  0.00000000000E+00 0. -1.
</event>
<event>
 7    1  0.2809593E-013  0.7246156E+02  0.7816164E-02  0.1226708E+00
        -11   -1    0    0    0    0  0.00000000000E+00  0.00000000000E+00  0.45593999997E+02  0.45594000000E+02  0.51100000000E-03 0. -1.
         11   -1    0    0    0    0 -0.00000000000E+00 -0.00000000000E+00 -0.45593999997E+02  0.45594000000E+02  0.51100000000E-03 0.  1.
    9900012    2    1    2    0    0  0.17841899844E+02  0.49682850918E+01  0.27680774939E+01  0.72461561476E+02  0.69999988513E+02 0.  0.
        -12    1    1    2    0    0 -0.17841899844E+02 -0.49682850918E+01 -0.27680774939E+01  0.18726438524E+02  0.00000000000E+00 0.  1.
         11    1    3    3    0    0 -0.12933720687E+02 -0.10867174817E+02  0.10105041935E+02  0.19684727381E+02  0.51100000000E-03 0. -1.
        -11    1    3    3    0    0  0.23366004845E+02 -0.65250873439E+01  0.69383472799E+01  0.25232669508E+02  0.51100000000E-03 0.  1.
        -12    1    3    3    0    0  0.74096156849E+01  0.22360547253E+02 -0.14275311721E+02  0.27544164586E+02  0.00000000000E+00 0.  1.
</event>
<event>
 7    1  0.2809593E-013  0.7246154E+02  0.7816164E-02  0.1226708E+00
        -11   -1    0    0    0    0  0.00000000000E+00  0.00000000000E+00  0.45593999997E+02  0.45594000000E+02  0.51100000000E-03 0.  1.
         11   -1    0    0    0    0 -0.00000000000E+00 -0.00000000000E+00 -0.45593999997E+02  0.45594000000E+02  0.51100000000E-03 0. -1.
    9900012    2    1    2    0    0  0.17809706574E+02 -0.37844850872E+01 -0.43786083058E+01  0.72461543145E+02  0.69999964633E+02 0.  0.
        -12    1    1    2    0    0 -0.17809706574E+02  0.37844850872E+01  0.43786083058E+01  0.18726456855E+02  0.00000000000E+00 0.  1.
         11    1    3    3    0    0  0.14087426635E+01 -0.50979327169E+01  0.20764168098E+01  0.56819874082E+01  0.51100000000E-03 0. -1.
        -11    1    3    3    0    0 -0.20298782344E+02  0.11414758036E+02  0.99572392443E+01  0.25327532041E+02  0.51100000000E-03 0.  1.
         12    1    3    3    0    0  0.36699746255E+02 -0.10101310406E+02 -0.16412264360E+02  0.41452023696E+02  0.00000000000E+00 0. -1.
</event>
<event>
 7    1  0.2809593E-013  0.7246143E+02  0.7816164E-02  0.1226708E+00
        -11   -1    0    0    0    0  0.00000000000E+00  0.00000000000E+00  0.45593999997E+02  0.45594000000E+02  0.51100000000E-03 0.  1.
         11   -1    0    0    0    0 -0.00000000000E+00 -0.00000000000E+00 -0.45593999997E+02  0.45594000000E+02  0.51100000000E-03 0. -1.
    9900012    2    1    2    0    0  0.36478000018E+01 -0.55774954633E+00 -0.18359379358E+02  0.72461432246E+02  0.69999820167E+02 0.  0.
        -12    1    1    2    0    0 -0.36478000018E+01  0.55774954633E+00  0.18359379358E+02  0.18726567754E+02  0.00000000000E+00 0.  1.
         11    1    3    3    0    0  0.91869923217E+01 -0.16384548251E+02  0.29962919069E+01  0.19021882524E+02  0.51100000000E-03 0.  1.
        -11    1    3    3    0    0  0.17154946695E+02  0.19180726995E+02 -0.14294397415E+02  0.29436750532E+02  0.51100000000E-03 0. -1.
        -12    1    3    3    0    0 -0.22694139015E+02 -0.33539282900E+01 -0.70612738503E+01  0.24002799191E+02  0.00000000000E+00 0.  1.
</event>
<event>
 7    1  0.2809593E-013  0.7246153E+02  0.7816164E-02  0.1226708E+00
        -11   -1    0    0    0    0  0.00000000000E+00  0.00000000000E+00  0.45593999997E+02  0.45594000000E+02  0.51100000000E-03 0. -1.
         11   -1    0    0    0    0 -0.00000000000E+00 -0.00000000000E+00 -0.45593999997E+02  0.45594000000E+02  0.51100000000E-03 0.  1.
    9900012    2    1    2    0    0 -0.68545733508E+01 -0.14414412040E+02  0.97938895320E+01  0.72461528831E+02  0.69999945986E+02 0.  0.
        -12    1    1    2    0    0  0.68545733508E+01  0.14414412040E+02 -0.97938895320E+01  0.18726471169E+02  0.00000000000E+00 0.  1.
         11    1    3    3    0    0 -0.34180476120E+01 -0.29125122413E+02  0.44752545104E+01  0.29664519350E+02  0.51100000000E-03 0. -1.
        -11    1    3    3    0    0 -0.74935838061E+01 -0.12607312806E+02 -0.29754199719E-01  0.14666254464E+02  0.51100000000E-03 0.  1.
        -12    1    3    3    0    0  0.40570580673E+01  0.27318023179E+02  0.53483892214E+01  0.28130755017E+02  0.00000000000E+00 0.  1.
</event>
<event>
 7    1  0.2809593E-013  0.7246157E+02  0.7816164E-02  0.1226708E+00
        -11   -1    0    0    0    0  0.00000000000E+00  0.00000000000E+00  0.45593999997E+02  0.45594000000E+02  0.51100000000E-03 0.  1.
         11   -1    0    0    0    0 -0.00000000000E+00 -0.00000000000E+00 -0.45593999997E+02  0.45594000000E+02  0.51100000000E-03 0. -1.
    9900012    2    1    2    0    0  0.15994538315E+02  0.36690518509E+01 -0.90217411287E+01  0.72461574543E+02  0.70000005535E+02 0.  0.
        -12    1    1    2    0    0 -0.15994538315E+02 -0.36690518509E+01  0.90217411287E+01  0.18726425457E+02  0.00000000000E+00 0.  1.
         11    1    3    3    0    0 -0.92006925691E+00  0.58130689620E+01  0.18329444497E+02  0.19251151498E+02  0.51100000000E-03 0. -1.
        -11    1    3    3    0    0 -0.90539673971E+01 -0.16509509962E+01  0.59641567449E+01  0.10966819537E+02  0.51100000000E-03 0.  1.
         12    1    3    3    0    0  0.25968574969E+02 -0.49306611488E+00 -0.33315342370E+02  0.42243603508E+02  0.00000000000E+00 0. -1.
</event>
<event>
 7    1  0.2809593E-013  0.7246162E+02  0.7816164E-02  0.1226708E+00
        -11   -1    0    0    0    0  0.00000000000E+00  0.00000000000E+00  0.45593999997E+02  0.45594000000E+02  0.51100000000E-03 0. -1.
         11   -1    0    0    0    0 -0.00000000000E+00 -0.00000000000E+00 -0.45593999997E+02  0.45594000000E+02  0.51100000000E-03 0.  1.
    9900012    2    1    2    0    0  0.17225171977E+01 -0.18377153578E+02  0.31607646446E+01  0.72461620952E+02  0.70000065991E+02 0.  0.
        -12    1    1    2    0    0 -0.17225171977E+01  0.18377153578E+02 -0.31607646446E+01  0.18726379048E+02  0.00000000000E+00 0.  1.
         11    1    3    3    0    0  0.21723184878E+01 -0.39899359766E+01  0.19762143337E+02  0.20277595179E+02  0.51100000000E-03 0. -1.
        -11    1    3    3    0    0 -0.14443133335E+02 -0.25596711322E+02 -0.27335510238E+01  0.29517249745E+02  0.51100000000E-03 0.  1.
         12    1    3    3    0    0  0.13993332045E+02  0.11209493721E+02 -0.13867827669E+02  0.22666776027E+02  0.00000000000E+00 0. -1.
</event>
<event>
 7    1  0.2809593E-013  0.7246160E+02  0.7816164E-02  0.1226708E+00
        -11   -1    0    0    0    0  0.00000000000E+00  0.00000000000E+00  0.45593999997E+02  0.45594000000E+02  0.51100000000E-03 0. -1.
         11   -1    0    0    0    0 -0.00000000000E+00 -0.00000000000E+00 -0.45593999997E+02  0.45594000000E+02  0.51100000000E-03 0.  1.
    9900012    2    1    2    0    0  0.16491101657E+02 -0.86725659809E+01 -0.18730694123E+01  0.72461595551E+02  0.70000032901E+02 0.  0.
        -12    1    1    2    0    0 -0.16491101657E+02  0.86725659809E+01  0.18730694123E+01  0.18726404449E+02  0.00000000000E+00 0.  1.
         11    1    3    3    0    0 -0.83132871825E+01  0.26982131987E+01 -0.86677596004E+01  0.12309392958E+02  0.51100000000E-03 0. -1.
        -11    1    3    3    0    0  0.19754024476E+02 -0.40768087468E+01 -0.22103209738E+02  0.29923130410E+02  0.51100000000E-03 0.  1.
         12    1    3    3    0    0  0.50503643638E+01 -0.72939704328E+01  0.28897899926E+02  0.30229072183E+02  0.00000000000E+00 0. -1.
</event>
<event>
 7    1  0.2809593E-013  0.7246156E+02  0.7816164E-02  0.1226708E+00
        -11   -1    0    0    0    0  0.00000000000E+00  0.00000000000E+00  0.45593999997E+02  0.45594000000E+02  0.51100000000E-03 0.  1.
         11   -1    0    0    0    0 -0.00000000000E+00 -0.00000000000E+00 -0.45593999997E+02  0.45594000000E+02  0.51100000000E-03 0. -1.
    9900012    2    1    2    0    0 -0.17034482141E+02  0.76197444223E+01  0.15637912408E+01  0.72461560671E+02  0.69999987464E+02 0.  0.
        -12    1    1    2    0    0  0.17034482141E+02 -0.76197444223E+01 -0.15637912408E+01  0.18726439329E+02  0.00000000000E+00 0.  1.
         11    1    3    3    0    0  0.24082408336E+01 -0.66022192814E+01 -0.19482229322E+02  0.20711015981E+02  0.51100000000E-03 0. -1.
        -11    1    3    3    0    0  0.12008541565E+02  0.50991553541E+01  0.12122136567E+02  0.17808780168E+02  0.51100000000E-03 0.  1.
        -12    1    3    3    0    0 -0.31451264540E+02  0.91228083496E+01  0.89238839957E+01  0.33941764523E+02  0.00000000000E+00 0.  1.
</event>
<event>
 7    1  0.2809593E-013  0.7246159E+02  0.7816164E-02  0.1226708E+00
        -11   -1    0    0    0    0  0.00000000000E+00  0.00000000000E+00  0.45593999997E+02  0.45594000000E+02  0.51100000000E-03 0.  1.
         11   -1    0    0    0    0 -0.00000000000E+00 -0.00000000000E+00 -0.45593999997E+02  0.45594000000E+02  0.51100000000E-03 0. -1.
    9900012    2    1    2    0    0 -0.17553439709E+02 -0.68135122937E+00 -0.64877551309E+01  0.72461589459E+02  0.70000024966E+02 0.  0.
        -12    1    1    2    0    0  0.17553439709E+02  0.68135122937E+00  0.64877551309E+01  0.18726410541E+02  0.00000000000E+00 0.  1.
         11    1    3    3    0    0 -0.32694240213E+01  0.28022114569E+01 -0.33650918245E+02  0.33925297662E+02  0.51100000000E-03 0. -1.
        -11    1    3    3    0    0  0.49420960631E+01  0.38733786584E+01  0.35629546918E+01  0.72195583054E+01  0.51100000000E-03 0.  1.
        -12    1    3    3    0    0 -0.19226111750E+02 -0.73569413446E+01  0.23600208423E+02  0.31316733491E+02  0.00000000000E+00 0.  1.
</event>
<event>
 7    1  0.2809593E-013  0.7246152E+02  0.7816164E-02  0.1226708E+00
        -11   -1    0    0    0    0  0.00000000000E+00  0.00000000000E+00  0.45593999997E+02  0.45594000000E+02  0.51100000000E-03 0. -1.
         11   -1    0    0    0    0 -0.00000000000E+00 -0.00000000000E+00 -0.45593999997E+02  0.45594000000E+02  0.51100000000E-03 0.  1.
    9900012    2    1    2    0    0  0.14435244074E+02  0.11039753925E+02  0.45198095064E+01  0.72461518319E+02  0.69999932292E+02 0.  0.
        -12    1    1    2    0    0 -0.14435244074E+02 -0.11039753925E+02 -0.45198095064E+01  0.18726481681E+02  0.00000000000E+00 0.  1.
         11    1    3    3    0    0  0.22821562689E+02  0.20115829234E+02 -0.18262413265E+02  0.35482193391E+02  0.51100000000E-03 0. -1.
        -11    1    3    3    0    0 -0.29545358721E+01  0.16728680621E+01 -0.53733355041E+01  0.63561391169E+01  0.51100000000E-03 0.  1.
         12    1    3    3    0    0 -0.54317827431E+01 -0.10748943372E+02  0.28155558276E+02  0.30623185810E+02  0.00000000000E+00 0. -1.
</event>
<event>
 7    1  0.2809593E-013  0.7246121E+02  0.7816164E-02  0.1226709E+00
        -11   -1    0    0    0    0  0.00000000000E+00  0.00000000000E+00  0.45593999997E+02  0.45594000000E+02  0.51100000000E-03 0. -1.
         11   -1    0    0    0    0 -0.00000000000E+00 -0.00000000000E+00 -0.45593999997E+02  0.45594000000E+02  0.51100000000E-03 0.  1.
    9900012    2    1    2    0    0  0.23315494499E+01 -0.16127824804E+02  0.92276670707E+01  0.72461209156E+02  0.69999529548E+02 0.  0.
        -12    1    1    2    0    0 -0.23315494499E+01  0.16127824804E+02 -0.92276670707E+01  0.18726790844E+02  0.00000000000E+00 0.  1.
         11    1    3    3    0    0 -0.91142649316E+01 -0.33868720472E+01  0.62959881881E+01  0.11583617528E+02  0.51100000000E-03 0.  1.
        -11    1    3    3    0    0  0.12484513291E+02 -0.29243040343E+02  0.19638204882E+02  0.37372149682E+02  0.51100000000E-03 0. -1.
        -12    1    3    3    0    0 -0.10386989096E+01  0.16502087586E+02 -0.16706525999E+02  0.23505441946E+02  0.00000000000E+00 0.  1.
</event>
<event>
 7    1  0.2809593E-013  0.7246159E+02  0.7816164E-02  0.1226708E+00
        -11   -1    0    0    0    0  0.00000000000E+00  0.00000000000E+00  0.45593999997E+02  0.45594000000E+02  0.51100000000E-03 0. -1.
         11   -1    0    0    0    0 -0.00000000000E+00 -0.00000000000E+00 -0.45593999997E+02  0.45594000000E+02  0.51100000000E-03 0.  1.
    9900012    2    1    2    0    0 -0.51657946663E+01  0.67559848581E+01 -0.16683813679E+02  0.72461590712E+02  0.70000026598E+02 0.  0.
        -12    1    1    2    0    0  0.51657946663E+01 -0.67559848581E+01  0.16683813679E+02  0.18726409288E+02  0.00000000000E+00 0.  1.
         11    1    3    3    0    0 -0.25061572224E+02 -0.55010619500E+01 -0.33427069627E+01  0.25875041546E+02  0.51100000000E-03 0. -1.
        -11    1    3    3    0    0  0.84151481331E+01  0.71779097185E+00 -0.25115073162E+02  0.26497110072E+02  0.51100000000E-03 0.  1.
         12    1    3    3    0    0  0.11480629424E+02  0.11539255836E+02  0.11773966446E+02  0.20089439094E+02  0.00000000000E+00 0. -1.
</event>
<event>
 7    1  0.2809593E-013  0.7246166E+02  0.7816164E-02  0.1226708E+00
        -11   -1    0    0    0    0  0.00000000000E+00  0.00000000000E+00  0.45593999997E+02  0.45594000000E+02  0.51100000000E-03 0. -1.
         11   -1    0    0    0    0 -0.00000000000E+00 -0.00000000000E+00 -0.45593999997E+02  0.45594000000E+02  0.51100000000E-03 0.  1.
    9900012    2    1    2    0    0  0.83580207167E+01 -0.15639100338E+02  0.60197800663E+01  0.72461662351E+02  0.70000119921E+02 0.  0.
        -12    1    1    2    0    0 -0.83580207167E+01  0.15639100338E+02 -0.60197800663E+01  0.18726337649E+02  0.00000000000E+00 0.  1.
         11    1    3    3    0    0 -0.98583658957E+01 -0.16754886967E+02  0.56131173509E+01  0.20234146932E+02  0.51100000000E-03 0. -1.
        -11    1    3    3    0    0 -0.13856830196E+02 -0.33177595918E+01 -0.10891798088E+02  0.17934618413E+02  0.51100000000E-03 0.  1.
         12    1    3    3    0    0  0.32073216809E+02  0.44335462206E+01  0.11298460803E+02  0.34292897006E+02  0.00000000000E+00 0. -1.
</event>
<event>
 7    1  0.2809593E-013  0.7246160E+02  0.7816164E-02  0.1226708E+00
        -11   -1    0    0    0    0  0.00000000000E+00  0.00000000000E+00  0.45593999997E+02  0.45594000000E+02  0.51100000000E-03 0.  1.
         11   -1    0    0    0    0 -0.00000000000E+00 -0.00000000000E+00 -0.45593999997E+02  0.45594000000E+02  0.51100000000E-03 0. -1.
    9900012    2    1    2    0    0 -0.12332439636E+02  0.60371823721E+01  0.12733482493E+02  0.72461595786E+02  0.70000033208E+02 0.  0.
        -12    1    1    2    0    0  0.12332439636E+02 -0.60371823721E+01 -0.12733482493E+02  0.18726404214E+02  0.00000000000E+00 0.  1.
         11    1    3    3    0    0  0.13140804620E+02  0.12026521526E+02 -0.10850343503E+02  0.20857802388E+02  0.51100000000E-03 0. -1.
        -11    1    3    3    0    0 -0.48953062507E+01 -0.18695241698E+02  0.24384704845E+01  0.19478763410E+02  0.51100000000E-03 0.  1.
        -12    1    3    3    0    0 -0.20577938006E+02  0.12705902544E+02  0.21145355511E+02  0.32125029988E+02  0.00000000000E+00 0.  1.
</event>
<event>
 7    1  0.2809593E-013  0.7246233E+02  0.7816164E-02  0.1226706E+00
        -11   -1    0    0    0    0  0.00000000000E+00  0.00000000000E+00  0.45593999997E+02  0.45594000000E+02  0.51100000000E-03 0.  1.
         11   -1    0    0    0    0 -0.00000000000E+00 -0.00000000000E+00 -0.45593999997E+02  0.45594000000E+02  0.51100000000E-03 0. -1.
    9900012    2    1    2    0    0 -0.17984002589E+02  0.55994759689E+00 -0.51877470867E+01  0.72462332849E+02  0.70000993362E+02 0.  0.
        -12    1    1    2    0    0  0.17984002589E+02 -0.55994759689E+00  0.51877470867E+01  0.18725667151E+02  0.00000000000E+00 0.  1.
         11    1    3    3    0    0 -0.31612934585E+02  0.67517238585E+01 -0.12770099876E+02  0.34756853414E+02  0.51100000000E-03 0. -1.
        -11    1    3    3    0    0 -0.83871083246E+01 -0.13468524068E+01 -0.68723489475E+01  0.10926425663E+02  0.51100000000E-03 0.  1.
        -12    1    3    3    0    0  0.22016040321E+02 -0.48449238548E+01  0.14454701737E+02  0.26779053771E+02  0.00000000000E+00 0.  1.
</event>
<event>
 7    1  0.2809593E-013  0.7246158E+02  0.7816164E-02  0.1226708E+00
        -11   -1    0    0    0    0  0.00000000000E+00  0.00000000000E+00  0.45593999997E+02  0.45594000000E+02  0.51100000000E-03 0.  1.
         11   -1    0    0    0    0 -0.00000000000E+00 -0.00000000000E+00 -0.45593999997E+02  0.45594000000E+02  0.51100000000E-03 0. -1.
    9900012    2    1    2    0    0  0.38626456455E+01 -0.71323628334E+01 -0.16878627588E+02  0.72461582825E+02  0.70000016323E+02 0.  0.
        -12    1    1    2    0    0 -0.38626456455E+01  0.71323628334E+01  0.16878627588E+02  0.18726417175E+02  0.00000000000E+00 0.  1.
         11    1    3    3    0    0  0.18914775061E+02 -0.21328220215E+02  0.38916525351E+00  0.28509877990E+02  0.51100000000E-03 0. -1.
        -11    1    3    3    0    0  0.23354215033E+01 -0.87392647448E+01  0.20671764779E+01  0.92791249981E+01  0.51100000000E-03 0.  1.
         12    1    3    3    0    0 -0.17387550919E+02  0.22935122126E+02 -0.19334969320E+02  0.34672579836E+02  0.00000000000E+00 0. -1.
</event>
<event>
 7    1  0.2809593E-013  0.7246081E+02  0.7816164E-02  0.1226710E+00
        -11   -1    0    0    0    0  0.00000000000E+00  0.00000000000E+00  0.45593999997E+02  0.45594000000E+02  0.51100000000E-03 0.  1.
         11   -1    0    0    0    0 -0.00000000000E+00 -0.00000000000E+00 -0.45593999997E+02  0.45594000000E+02  0.51100000000E-03 0. -1.
    9900012    2    1    2    0    0  0.15729892701E+02 -0.87551408449E+01  0.51600056026E+01  0.72460809249E+02  0.69999008591E+02 0.  0.
        -12    1    1    2    0    0 -0.15729892701E+02  0.87551408449E+01 -0.51600056026E+01  0.18727190751E+02  0.00000000000E+00 0.  1.
         11    1    3    3    0    0  0.80817441208E+01 -0.97199322372E+01  0.11261612910E+02  0.16929725229E+02  0.51100000000E-03 0. -1.
        -11    1    3    3    0    0  0.22055594808E+02 -0.13269868072E+02  0.11970345229E+02  0.28387106689E+02  0.51100000000E-03 0.  1.
         12    1    3    3    0    0 -0.14407446228E+02  0.14234659464E+02 -0.18071952537E+02  0.27143977332E+02  0.00000000000E+00 0. -1.
</event>
<event>
 7    1  0.2809593E-013  0.7246155E+02  0.7816164E-02  0.1226708E+00
        -11   -1    0    0    0    0  0.00000000000E+00  0.00000000000E+00  0.45593999997E+02  0.45594000000E+02  0.51100000000E-03 0. -1.
         11   -1    0    0    0    0 -0.00000000000E+00 -0.00000000000E+00 -0.45593999997E+02  0.45594000000E+02  0.51100000000E-03 0.  1.
    9900012    2    1    2    0    0  0.45308163535E+01  0.39144630132E+01  0.17743412852E+02  0.72461547663E+02  0.69999970518E+02 0.  0.
        -12    1    1    2    0    0 -0.45308163535E+01 -0.39144630132E+01 -0.17743412852E+02  0.18726452337E+02  0.00000000000E+00 0.  1.
         11    1    3    3    0    0  0.11300261587E+02 -0.28152451892E+02  0.12546057077E+02  0.32827732299E+02  0.51100000000E-03 0.  1.
        -11    1    3    3    0    0 -0.12668114575E+02  0.95497001351E+01  0.38102483725E+01  0.16315510794E+02  0.51100000000E-03 0. -1.
        -12    1    3    3    0    0  0.58986693422E+01  0.22517214771E+02  0.13871074023E+01  0.23318304569E+02  0.00000000000E+00 0.  1.
</event>
<event>
 7    1  0.2809593E-013  0.7246157E+02  0.7816164E-02  0.1226708E+00
        -11   -1    0    0    0    0  0.00000000000E+00  0.00000000000E+00  0.45593999997E+02  0.45594000000E+02  0.51100000000E-03 0.  1.
         11   -1    0    0    0    0 -0.00000000000E+00 -0.00000000000E+00 -0.45593999997E+02  0.45594000000E+02  0.51100000000E-03 0. -1.
    9900012    2    1    2    0    0  0.11088485475E+02 -0.12944034578E+02 -0.77573494461E+01  0.72461574508E+02  0.70000005489E+02 0.  0.
        -12    1    1    2    0    0 -0.11088485475E+02  0.12944034578E+02  0.77573494461E+01  0.18726425492E+02  0.00000000000E+00 0.  1.
         11    1    3    3    0    0 -0.93049305032E+01 -0.93369162052E+01  0.79378012027E+01  0.15387281244E+02  0.51100000000E-03 0. -1.
        -11    1    3    3    0    0 -0.15708303564E+02  0.62598563835E+01 -0.12439162268E+01  0.16955351091E+02  0.51100000000E-03 0.  1.
         12    1    3    3    0    0  0.36101719542E+02 -0.98669747565E+01 -0.14451234422E+02  0.40118942172E+02  0.00000000000E+00 0. -1.
</event>
<event>
 7    1  0.2809593E-013  0.7246159E+02  0.7816164E-02  0.1226708E+00
        -11   -1    0    0    0    0  0.00000000000E+00  0.00000000000E+00  0.45593999997E+02  0.45594000000E+02  0.51100000000E-03 0. -1.
         11   -1    0    0    0    0 -0.00000000000E+00 -0.00000000000E+00 -0.45593999997E+02  0.45594000000E+02  0.51100000000E-03 0.  1.
    9900012    2    1    2    0    0  0.70736309093E+01  0.16331386366E+02  0.58247901565E+01  0.72461585094E+02  0.70000019279E+02 0.  0.
        -12    1    1    2    0    0 -0.70736309093E+01 -0.16331386366E+02 -0.58247901565E+01  0.18726414906E+02  0.00000000000E+00 0.  1.
         11    1    3    3    0    0 -0.15914733130E-01  0.36192387201E+01 -0.66497488371E+01  0.75708851562E+01  0.51100000000E-03 0. -1.
        -11    1    3    3    0    0  0.23796227727E+02 -0.46323270780E+01 -0.14880588417E+02  0.28445576459E+02  0.51100000000E-03 0.  1.
         12    1    3    3    0    0 -0.16706682085E+02  0.17344474724E+02  0.27355127410E+02  0.36445123478E+02  0.00000000000E+00 0. -1.
</event>
<event>
 7    1  0.2809593E-013  0.7246164E+02  0.7816164E-02  0.1226708E+00
        -11   -1    0    0    0    0  0.00000000000E+00  0.00000000000E+00  0.45593999997E+02  0.45594000000E+02  0.51100000000E-03 0. -1.
         11   -1    0    0    0    0 -0.00000000000E+00 -0.00000000000E+00 -0.45593999997E+02  0.45594000000E+02  0.51100000000E-03 0.  1.
    9900012    2    1    2    0    0  0.39481179449E+01 -0.62434748227E+00  0.18294788117E+02  0.72461635768E+02  0.70000085292E+02 0.  0.
        -12    1    1    2    0    0 -0.39481179449E+01  0.62434748227E+00 -0.18294788117E+02  0.18726364232E+02  0.00000000000E+00 0.  1.
         11    1    3    3    0    0  0.11291294933E+02  0.49326084090E+01 -0.41832077666E+01  0.13012424619E+02  0.51100000000E-03 0. -1.
        -11    1    3    3    0    0 -0.73136737871E+01  0.23984980520E+02  0.66864332459E+01  0.25951445136E+02  0.51100000000E-03 0.  1.
        -12    1    3    3    0    0 -0.29503200901E-01 -0.29541936411E+02  0.15791562638E+02  0.33497766014E+02  0.00000000000E+00 0.  1.
</event>
<event>
 7    1  0.2809593E-013  0.7246199E+02  0.7816164E-02  0.1226707E+00
        -11   -1    0    0    0    0  0.00000000000E+00  0.00000000000E+00  0.45593999997E+02  0.45594000000E+02  0.51100000000E-03 0.  1.
         11   -1    0    0    0    0 -0.00000000000E+00 -0.00000000000E+00 -0.45593999997E+02  0.45594000000E+02  0.51100000000E-03 0. -1.
    9900012    2    1    2    0    0  0.15495928512E+02  0.51759619295E+01 -0.91514450214E+01  0.72461993263E+02  0.70000550993E+02 0.  0.
        -12    1    1    2    0    0 -0.15495928512E+02 -0.51759619295E+01  0.91514450214E+01  0.18726006737E+02  0.00000000000E+00 0.  1.
         11    1    3    3    0    0 -0.10063515784E+02  0.87483252734E+01 -0.15740082935E+02  0.20629051265E+02  0.51100000000E-03 0.  1.
        -11    1    3    3    0    0  0.13344492025E+02  0.98762473970E+01  0.22308693619E+02  0.27808156021E+02  0.51100000000E-03 0. -1.
         12    1    3    3    0    0  0.12214952271E+02 -0.13448610741E+02 -0.15720055705E+02  0.24024785977E+02  0.00000000000E+00 0. -1.
</event>
<event>
 7    1  0.2809593E-013  0.7246183E+02  0.7816164E-02  0.1226707E+00
        -11   -1    0    0    0    0  0.00000000000E+00  0.00000000000E+00  0.45593999997E+02  0.45594000000E+02  0.51100000000E-03 0. -1.
         11   -1    0    0    0    0 -0.00000000000E+00 -0.00000000000E+00 -0.45593999997E+02  0.45594000000E+02  0.51100000000E-03 0.  1.
    9900012    2    1    2    0    0 -0.40291689580E+01 -0.18224517467E+02 -0.15173600708E+01  0.72461825244E+02  0.70000332119E+02 0.  0.
        -12    1    1    2    0    0  0.40291689580E+01  0.18224517467E+02  0.15173600708E+01  0.18726174756E+02  0.00000000000E+00 0.  1.
         11    1    3    3    0    0 -0.12874277674E+02 -0.82073766944E+01  0.91566006993E+01  0.17803128783E+02  0.51100000000E-03 0. -1.
        -11    1    3    3    0    0 -0.40615146525E+01 -0.20045319423E+02  0.14197510212E+02  0.24897389994E+02  0.51100000000E-03 0.  1.
         12    1    3    3    0    0  0.12906623369E+02  0.10028178650E+02 -0.24871470982E+02  0.29761306467E+02  0.00000000000E+00 0. -1.
</event>
<event>
 7    1  0.2809593E-013  0.7246161E+02  0.7816164E-02  0.1226708E+00
        -11   -1    0    0    0    0  0.00000000000E+00  0.00000000000E+00  0.45593999997E+02  0.45594000000E+02  0.51100000000E-03 0.  1.
         11   -1    0    0    0    0 -0.00000000000E+00 -0.00000000000E+00 -0.45593999997E+02  0.45594000000E+02  0.51100000000E-03 0. -1.
    9900012    2    1    2    0    0  0.39537221096E+01  0.58046975578E+00 -0.18295051659E+02  0.72461607426E+02  0.70000048370E+02 0.  0.
        -12    1    1    2    0    0 -0.39537221096E+01 -0.58046975578E+00  0.18295051659E+02  0.18726392574E+02  0.00000000000E+00 0.  1.
         11    1    3    3    0    0 -0.12789625171E+02  0.74562975082E+01 -0.27910628953E+02  0.31593893292E+02  0.51100000000E-03 0. -1.
        -11    1    3    3    0    0  0.11224133139E+02  0.23337875942E+01 -0.12084195518E+02  0.16656995853E+02  0.51100000000E-03 0.  1.
        -12    1    3    3    0    0  0.55192141413E+01 -0.92096153467E+01  0.21699772812E+02  0.24210718281E+02  0.00000000000E+00 0.  1.
</event>
<event>
 7    1  0.2809593E-013  0.7246154E+02  0.7816164E-02  0.1226708E+00
        -11   -1    0    0    0    0  0.00000000000E+00  0.00000000000E+00  0.45593999997E+02  0.45594000000E+02  0.51100000000E-03 0.  1.
         11   -1    0    0    0    0 -0.00000000000E+00 -0.00000000000E+00 -0.45593999997E+02  0.45594000000E+02  0.51100000000E-03 0. -1.
    9900012    2    1    2    0    0 -0.13947139173E+02 -0.25909039030E+01 -0.12224760424E+02  0.72461541670E+02  0.69999962712E+02 0.  0.
        -12    1    1    2    0    0  0.13947139173E+02  0.25909039030E+01  0.12224760424E+02  0.18726458330E+02  0.00000000000E+00 0.  1.
         11    1    3    3    0    0  0.14647053419E+02 -0.77742964609E+01 -0.53721602229E+01  0.17430891114E+02  0.51100000000E-03 0. -1.
        -11    1    3    3    0    0  0.66748200909E+00 -0.10546205349E+02 -0.17241915084E+02  0.20222552152E+02  0.51100000000E-03 0.  1.
        -12    1    3    3    0    0 -0.29261674601E+02  0.15729597907E+02  0.10389314883E+02  0.34808098404E+02  0.00000000000E+00 0.  1.
</event>
<event>
 7    1  0.2809593E-013  0.7246157E+02  0.7816164E-02  0.1226708E+00
        -11   -1    0    0    0    0  0.00000000000E+00  0.00000000000E+00  0.45593999997E+02  0.45594000000E+02  0.51100000000E-03 0.  1.
         11   -1    0    0    0    0 -0.00000000000E+00 -0.00000000000E+00 -0.45593999997E+02  0.45594000000E+02  0.51100000000E-03 0. -1.
    9900012    2    1    2    0    0  0.11207234601E+01  0.16823354410E+01 -0.18617001995E+02  0.72461573836E+02  0.70000004613E+02 0.  0.
        -12    1    1    2    0    0 -0.11207234601E+01 -0.16823354410E+01  0.18617001995E+02  0.18726426164E+02  0.00000000000E+00 0.  1.
         11    1    3    3    0    0 -0.60849718143E+01  0.33746295471E+01 -0.74416253374E+00  0.69977699804E+01  0.51100000000E-03 0. -1.
        -11    1    3    3    0    0 -0.15217668124E+02 -0.14208047545E+02  0.13581800782E+02  0.24857822731E+02  0.51100000000E-03 0.  1.
         12    1    3    3    0    0  0.22423363399E+02  0.12515753439E+02 -0.31454640243E+02  0.40605981124E+02  0.00000000000E+00 0. -1.
</event>
<event>
 7    1  0.2809593E-013  0.7246157E+02  0.7816164E-02  0.1226708E+00
        -11   -1    0    0    0    0  0.00000000000E+00  0.00000000000E+00  0.45593999997E+02  0.45594000000E+02  0.51100000000E-03 0.  1.
         11   -1    0    0    0    0 -0.00000000000E+00 -0.00000000000E+00 -0.45593999997E+02  0.45594000000E+02  0.51100000000E-03 0. -1.
    9900012    2    1    2    0    0 -0.25838290168E-01 -0.16196259331E+02  0.93999786477E+01  0.72461572618E+02  0.70000003027E+02 0.  0.
        -12    1    1    2    0    0  0.25838290168E-01  0.16196259331E+02 -0.93999786477E+01  0.18726427382E+02  0.00000000000E+00 0.  1.
         11    1    3    3    0    0 -0.95703145843E+01 -0.17595136635E+02 -0.86974474645E+01  0.21836330899E+02  0.51100000000E-03 0. -1.
        -11    1    3    3    0    0  0.20185884128E+02 -0.74627827357E+01 -0.64276521177E+01  0.22460582276E+02  0.51100000000E-03 0.  1.
        -12    1    3    3    0    0 -0.10641407834E+02  0.88616600400E+01  0.24525078230E+02  0.28164659443E+02  0.00000000000E+00 0.  1.
</event>
<event>
 7    1  0.2809593E-013  0.7246158E+02  0.7816164E-02  0.1226708E+00
        -11   -1    0    0    0    0  0.00000000000E+00  0.00000000000E+00  0.45593999997E+02  0.45594000000E+02  0.51100000000E-03 0.  1.
         11   -1    0    0    0    0 -0.00000000000E+00 -0.00000000000E+00 -0.45593999997E+02  0.45594000000E+02  0.51100000000E-03 0. -1.
    9900012    2    1    2    0    0  0.16398811472E+02  0.25683201487E+01 -0.86695671217E+01  0.72461583361E+02  0.70000017021E+02 0.  0.
        -12    1    1    2    0    0 -0.16398811472E+02 -0.25683201487E+01  0.86695671217E+01  0.18726416639E+02  0.00000000000E+00 0.  1.
         11    1    3    3    0    0 -0.37163640706E+01 -0.16815856118E+01 -0.83224384438E+00  0.41631384979E+01  0.51100000000E-03 0. -1.
        -11    1    3    3    0    0  0.73825906225E+01 -0.28169250939E+02  0.77583068846E+01  0.30136367875E+02  0.51100000000E-03 0.  1.
         12    1    3    3    0    0  0.12732584920E+02  0.32419156699E+02 -0.15595630162E+02  0.38162076987E+02  0.00000000000E+00 0. -1.
</event>
<event>
 7    1  0.2809593E-013  0.7246157E+02  0.7816164E-02  0.1226708E+00
        -11   -1    0    0    0    0  0.00000000000E+00  0.00000000000E+00  0.45593999997E+02  0.45594000000E+02  0.51100000000E-03 0.  1.
         11   -1    0    0    0    0 -0.00000000000E+00 -0.00000000000E+00 -0.45593999997E+02  0.45594000000E+02  0.51100000000E-03 0. -1.
    9900012    2    1    2    0    0  0.82980923717E+01  0.11285864374E+02  0.12427797951E+02  0.72461568584E+02  0.69999997772E+02 0.  0.
        -12    1    1    2    0    0 -0.82980923717E+01 -0.11285864374E+02 -0.12427797951E+02  0.18726431416E+02  0.00000000000E+00 0.  1.
         11    1    3    3    0    0 -0.29077487645E+01 -0.18909000097E+02  0.27548795239E+02  0.33540146197E+02  0.51100000000E-03 0. -1.
        -11    1    3    3    0    0  0.96332413365E+00 -0.18388366437E+01 -0.18014056583E+01  0.27485225478E+01  0.51100000000E-03 0.  1.
        -12    1    3    3    0    0  0.10242517003E+02  0.32033701114E+02 -0.13319591630E+02  0.36172899840E+02  0.00000000000E+00 0.  1.
</event>
<event>
 7    1  0.2809593E-013  0.7246158E+02  0.7816164E-02  0.1226708E+00
        -11   -1    0    0    0    0  0.00000000000E+00  0.00000000000E+00  0.45593999997E+02  0.45594000000E+02  0.51100000000E-03 0. -1.
         11   -1    0    0    0    0 -0.00000000000E+00 -0.00000000000E+00 -0.45593999997E+02  0.45594000000E+02  0.51100000000E-03 0.  1.
    9900012    2    1    2    0    0 -0.83614523136E+01  0.61016415264E+01  0.15605610119E+02  0.72461575320E+02  0.70000006546E+02 0.  0.
        -12    1    1    2    0    0  0.83614523136E+01 -0.61016415264E+01 -0.15605610119E+02  0.18726424680E+02  0.00000000000E+00 0.  1.
         11    1    3    3    0    0 -0.19608206434E+01  0.83977004740E+01 -0.55792181397E-01  0.86237639042E+01  0.51100000000E-03 0. -1.
        -11    1    3    3    0    0 -0.68905052683E+01  0.29392631915E+02  0.80424614549E+01  0.31242392038E+02  0.51100000000E-03 0.  1.
         12    1    3    3    0    0  0.48987359804E+00 -0.31688690863E+02  0.76189408460E+01  0.32595419377E+02  0.00000000000E+00 0. -1.
</event>
<event>
 7    1  0.2809593E-013  0.7246159E+02  0.7816164E-02  0.1226708E+00
        -11   -1    0    0    0    0  0.00000000000E+00  0.00000000000E+00  0.45593999997E+02  0.45594000000E+02  0.51100000000E-03 0.  1.
         11   -1    0    0    0    0 -0.00000000000E+00 -0.00000000000E+00 -0.45593999997E+02  0.45594000000E+02  0.51100000000E-03 0. -1.
    9900012    2    1    2    0    0  0.61661324089E+01 -0.37559675777E+01 -0.17278603387E+02  0.72461585064E+02  0.70000019241E+02 0.  0.
        -12    1    1    2    0    0 -0.61661324089E+01  0.37559675777E+01  0.17278603387E+02  0.18726414936E+02  0.00000000000E+00 0.  1.
         11    1    3    3    0    0  0.27686870548E+01 -0.11092940791E+01 -0.12302772661E+02  0.12659161772E+02  0.51100000000E-03 0. -1.
        -11    1    3    3    0    0 -0.13070523211E+02 -0.24693073556E+02 -0.13451815399E+02  0.31008672923E+02  0.51100000000E-03 0.  1.
        -12    1    3    3    0    0  0.16467968565E+02  0.22046400057E+02  0.84759846730E+01  0.28793750369E+02  0.00000000000E+00 0.  1.
</event>
<event>
 7    1  0.2809593E-013  0.7246161E+02  0.7816164E-02  0.1226708E+00
        -11   -1    0    0    0    0  0.00000000000E+00  0.00000000000E+00  0.45593999997E+02  0.45594000000E+02  0.51100000000E-03 0.  1.
         11   -1    0    0    0    0 -0.00000000000E+00 -0.00000000000E+00 -0.45593999997E+02  0.45594000000E+02  0.51100000000E-03 0. -1.
    9900012    2    1    2    0    0  0.69284247982E+01  0.26943908547E+01 -0.17187641250E+02  0.72461606220E+02  0.70000046800E+02 0.  0.
        -12    1    1    2    0    0 -0.69284247982E+01 -0.26943908547E+01  0.17187641250E+02  0.18726393780E+02  0.00000000000E+00 0.  1.
         11    1    3    3    0    0  0.68327245602E+01 -0.17210565439E+02 -0.14486330632E+02  0.23510496870E+02  0.51100000000E-03 0. -1.
        -11    1    3    3    0    0 -0.66135134201E+01  0.50035102032E+01  0.19612046789E+02  0.21293333549E+02  0.51100000000E-03 0.  1.
         12    1    3    3    0    0  0.67092136580E+01  0.14901446090E+02 -0.22313357407E+02  0.27657775801E+02  0.00000000000E+00 0. -1.
</event>
<event>
 7    1  0.2809593E-013  0.7246160E+02  0.7816164E-02  0.1226708E+00
        -11   -1    0    0    0    0  0.00000000000E+00  0.00000000000E+00  0.45593999997E+02  0.45594000000E+02  0.51100000000E-03 0. -1.
         11   -1    0    0    0    0 -0.00000000000E+00 -0.00000000000E+00 -0.45593999997E+02  0.45594000000E+02  0.51100000000E-03 0.  1.
    9900012    2    1    2    0    0  0.44063149371E+01 -0.17980086221E+02  0.28246730738E+01  0.72461604463E+02  0.70000044511E+02 0.  0.
        -12    1    1    2    0    0 -0.44063149371E+01  0.17980086221E+02 -0.28246730738E+01  0.18726395537E+02  0.00000000000E+00 0.  1.
         11    1    3    3    0    0  0.10593756245E+00  0.69320401970E+01  0.13584571411E+02  0.15251392879E+02  0.51100000000E-03 0. -1.
        -11    1    3    3    0    0  0.23776375110E+02 -0.43202817001E-02  0.10711443989E+00  0.23776616787E+02  0.51100000000E-03 0.  1.
         12    1    3    3    0    0 -0.19475997736E+02 -0.24907806136E+02 -0.10867012777E+02  0.33433594797E+02  0.00000000000E+00 0. -1.
</event>
<event>
 7    1  0.2809593E-013  0.7246157E+02  0.7816164E-02  0.1226708E+00
        -11   -1    0    0    0    0  0.00000000000E+00  0.00000000000E+00  0.45593999997E+02  0.45594000000E+02  0.51100000000E-03 0. -1.
         11   -1    0    0    0    0 -0.00000000000E+00 -0.00000000000E+00 -0.45593999997E+02  0.45594000000E+02  0.51100000000E-03 0.  1.
    9900012    2    1    2    0    0  0.43402564094E+01  0.14628667571E+01  0.18157676916E+02  0.72461573864E+02  0.70000004651E+02 0.  0.
        -12    1    1    2    0    0 -0.43402564094E+01 -0.14628667571E+01 -0.18157676916E+02  0.18726426136E+02  0.00000000000E+00 0.  1.
         11    1    3    3    0    0 -0.11943292737E+02  0.41515348958E+01 -0.14520930832E+01  0.12727374355E+02  0.51100000000E-03 0. -1.
        -11    1    3    3    0    0  0.44136449368E+01  0.23540524503E+02  0.19593506331E+02  0.30944176288E+02  0.51100000000E-03 0.  1.
         12    1    3    3    0    0  0.11869904210E+02 -0.26229192642E+02  0.16263667696E-01  0.28790023221E+02  0.00000000000E+00 0. -1.
</event>
<event>
 7    1  0.2809593E-013  0.7246157E+02  0.7816164E-02  0.1226708E+00
        -11   -1    0    0    0    0  0.00000000000E+00  0.00000000000E+00  0.45593999997E+02  0.45594000000E+02  0.51100000000E-03 0. -1.
         11   -1    0    0    0    0 -0.00000000000E+00 -0.00000000000E+00 -0.45593999997E+02  0.45594000000E+02  0.51100000000E-03 0.  1.
    9900012    2    1    2    0    0 -0.10947614240E+02  0.13661701339E+02 -0.66473277004E+01  0.72461566635E+02  0.69999995232E+02 0.  0.
        -12    1    1    2    0    0  0.10947614240E+02 -0.13661701339E+02  0.66473277004E+01  0.18726433365E+02  0.00000000000E+00 0.  1.
         11    1    3    3    0    0 -0.25427264238E+01 -0.11778885708E+02  0.12411383365E+02  0.17298845149E+02  0.51100000000E-03 0. -1.
        -11    1    3    3    0    0 -0.23188683719E+02  0.10910589919E+02  0.18836739434E+01  0.25696385987E+02  0.51100000000E-03 0.  1.
        -12    1    3    3    0    0  0.14783795902E+02  0.14529997128E+02 -0.20942385009E+02  0.29466335498E+02  0.00000000000E+00 0.  1.
</event>
<event>
 7    1  0.2809593E-013  0.7246164E+02  0.7816164E-02  0.1226708E+00
        -11   -1    0    0    0    0  0.00000000000E+00  0.00000000000E+00  0.45593999997E+02  0.45594000000E+02  0.51100000000E-03 0. -1.
         11   -1    0    0    0    0 -0.00000000000E+00 -0.00000000000E+00 -0.45593999997E+02  0.45594000000E+02  0.51100000000E-03 0.  1.
    9900012    2    1    2    0    0 -0.18388974005E+02 -0.30761866428E+01 -0.17491175679E+01  0.72461636192E+02  0.70000085843E+02 0.  0.
        -12    1    1    2    0    0  0.18388974005E+02  0.30761866428E+01  0.17491175679E+01  0.18726363808E+02  0.00000000000E+00 0.  1.
         11    1    3    3    0    0  0.86989190788E+00 -0.15361029324E+02  0.83124900739E+01  0.17487579172E+02  0.51100000000E-03 0. -1.
        -11    1    3    3    0    0 -0.38662275073E+01 -0.15358917469E+02 -0.16296926129E+02  0.22725181242E+02  0.51100000000E-03 0.  1.
         12    1    3    3    0    0 -0.15392638406E+02  0.27643760150E+02  0.62353184869E+01  0.32248875778E+02  0.00000000000E+00 0. -1.
</event>
<event>
 7    1  0.2809593E-013  0.7246161E+02  0.7816164E-02  0.1226708E+00
        -11   -1    0    0    0    0  0.00000000000E+00  0.00000000000E+00  0.45593999997E+02  0.45594000000E+02  0.51100000000E-03 0. -1.
         11   -1    0    0    0    0 -0.00000000000E+00 -0.00000000000E+00 -0.45593999997E+02  0.45594000000E+02  0.51100000000E-03 0.  1.
    9900012    2    1    2    0    0  0.16339874655E+02 -0.57478091075E+01  0.71167973272E+01  0.72461611735E+02  0.70000053984E+02 0.  0.
        -12    1    1    2    0    0 -0.16339874655E+02  0.57478091075E+01 -0.71167973272E+01  0.18726388265E+02  0.00000000000E+00 0.  1.
         11    1    3    3    0    0  0.13887906551E+02 -0.24158203013E+01 -0.11226331155E+02  0.18020561799E+02  0.51100000000E-03 0. -1.
        -11    1    3    3    0    0  0.20864480130E+02  0.12204551148E+02  0.17727657361E-01  0.24171841352E+02  0.51100000000E-03 0.  1.
         12    1    3    3    0    0 -0.18412512026E+02 -0.15536539954E+02  0.18325400825E+02  0.30269208583E+02  0.00000000000E+00 0. -1.
</event>
<event>
 7    1  0.2809593E-013  0.7246153E+02  0.7816164E-02  0.1226708E+00
        -11   -1    0    0    0    0  0.00000000000E+00  0.00000000000E+00  0.45593999997E+02  0.45594000000E+02  0.51100000000E-03 0. -1.
         11   -1    0    0    0    0 -0.00000000000E+00 -0.00000000000E+00 -0.45593999997E+02  0.45594000000E+02  0.51100000000E-03 0.  1.
    9900012    2    1    2    0    0 -0.87137949107E+01  0.66549248545E+01  0.15180984280E+02  0.72461533962E+02  0.69999952671E+02 0.  0.
        -12    1    1    2    0    0  0.87137949107E+01 -0.66549248545E+01 -0.15180984280E+02  0.18726466038E+02  0.00000000000E+00 0.  1.
         11    1    3    3    0    0 -0.35755058532E+02  0.34442432756E+01  0.11448379321E+02  0.37700827732E+02  0.51100000000E-03 0. -1.
        -11    1    3    3    0    0  0.39928511869E+01 -0.44373736980E+01 -0.61243862530E+01  0.85522659672E+01  0.51100000000E-03 0.  1.
        -12    1    3    3    0    0  0.23048412434E+02  0.76480552769E+01  0.98569912117E+01  0.26208440263E+02  0.00000000000E+00 0.  1.
</event>
<event>
 7    1  0.2809593E-013  0.7246158E+02  0.7816164E-02  0.1226708E+00
        -11   -1    0    0    0    0  0.00000000000E+00  0.00000000000E+00  0.45593999997E+02  0.45594000000E+02  0.51100000000E-03 0.  1.
         11   -1    0    0    0    0 -0.00000000000E+00 -0.00000000000E+00 -0.45593999997E+02  0.45594000000E+02  0.51100000000E-03 0. -1.
    9900012    2    1    2    0    0 -0.16810656389E+02  0.69142246640E+01 -0.45026955486E+01  0.72461576472E+02  0.70000008048E+02 0.  0.
        -12    1    1    2    0    0  0.16810656389E+02 -0.69142246640E+01  0.45026955486E+01  0.18726423528E+02  0.00000000000E+00 0.  1.
         11    1    3    3    0    0  0.16612285499E+02 -0.21023025192E+01 -0.20565516842E+02  0.26520335379E+02  0.51100000000E-03 0. -1.
        -11    1    3    3    0    0 -0.23000894657E+02 -0.12664005339E+01 -0.14900061834E+01  0.23083869780E+02  0.51100000000E-03 0.  1.
        -12    1    3    3    0    0 -0.10422047231E+02  0.10282927717E+02  0.17552827477E+02  0.22857371313E+02  0.00000000000E+00 0.  1.
</event>
<event>
 7    1  0.2809593E-013  0.7246159E+02  0.7816164E-02  0.1226708E+00
        -11   -1    0    0    0    0  0.00000000000E+00  0.00000000000E+00  0.45593999997E+02  0.45594000000E+02  0.51100000000E-03 0. -1.
         11   -1    0    0    0    0 -0.00000000000E+00 -0.00000000000E+00 -0.45593999997E+02  0.45594000000E+02  0.51100000000E-03 0.  1.
    9900012    2    1    2    0    0 -0.14473530644E+02  0.95515870023E+01 -0.70684178373E+01  0.72461589926E+02  0.70000025573E+02 0.  0.
        -12    1    1    2    0    0  0.14473530644E+02 -0.95515870023E+01  0.70684178373E+01  0.18726410074E+02  0.00000000000E+00 0.  1.
         11    1    3    3    0    0  0.57111402320E+01  0.82116082166E+01 -0.12135510975E+02  0.15726355558E+02  0.51100000000E-03 0. -1.
        -11    1    3    3    0    0  0.15412462955E+02 -0.83807793644E+01 -0.54403206434E+01  0.18367867760E+02  0.51100000000E-03 0.  1.
         12    1    3    3    0    0 -0.35597133831E+02  0.97207581502E+01  0.10507413781E+02  0.38367366607E+02  0.00000000000E+00 0. -1.
</event>
<event>
 7    1  0.2809593E-013  0.7246154E+02  0.7816164E-02  0.1226708E+00
        -11   -1    0    0    0    0  0.00000000000E+00  0.00000000000E+00  0.45593999997E+02  0.45594000000E+02  0.51100000000E-03 0.  1.
         11   -1    0    0    0    0 -0.00000000000E+00 -0.00000000000E+00 -0.45593999997E+02  0.45594000000E+02  0.51100000000E-03 0. -1.
    9900012    2    1    2    0    0  0.46939156831E+01 -0.70682320619E+01 -0.16693940519E+02  0.72461537468E+02  0.69999957238E+02 0.  0.
        -12    1    1    2    0    0 -0.46939156831E+01  0.70682320619E+01  0.16693940519E+02  0.18726462532E+02  0.00000000000E+00 0.  1.
         11    1    3    3    0    0 -0.20356705268E+02  0.14281829966E+02  0.46467400418E+01  0.25297397293E+02  0.51100000000E-03 0. -1.
        -11    1    3    3    0    0  0.82898102951E+01  0.46499292928E+01 -0.11022104602E+02  0.14554366605E+02  0.51100000000E-03 0.  1.
        -12    1    3    3    0    0  0.16760810656E+02 -0.25999991320E+02 -0.10318575959E+02  0.32609773570E+02  0.00000000000E+00 0.  1.
</event>
<event>
 7    1  0.2809593E-013  0.7246158E+02  0.7816164E-02  0.1226708E+00
        -11   -1    0    0    0    0  0.00000000000E+00  0.00000000000E+00  0.45593999997E+02  0.45594000000E+02  0.51100000000E-03 0.  1.
         11   -1    0    0    0    0 -0.00000000000E+00 -0.00000000000E+00 -0.45593999997E+02  0.45594000000E+02  0.51100000000E-03 0. -1.
    9900012    2    1    2    0    0  0.13573356096E+02 -0.73961228116E+01 -0.10570728112E+02  0.72461576925E+02  0.70000008638E+02 0.  0.
        -12    1    1    2    0    0 -0.13573356096E+02  0.73961228116E+01  0.10570728112E+02  0.18726423075E+02  0.00000000000E+00 0.  1.
         11    1    3    3    0    0  0.15408813398E+02 -0.48939941664E+01 -0.12306994604E+02  0.20318583259E+02  0.51100000000E-03 0. -1.
        -11    1    3    3    0    0  0.83786165318E+01 -0.15901178338E+01 -0.23448132424E+02  0.24950843756E+02  0.51100000000E-03 0.  1.
        -12    1    3    3    0    0 -0.10214073834E+02 -0.91201081137E+00  0.25184398915E+02  0.27192149910E+02  0.00000000000E+00 0.  1.
</event>
<event>
 7    1  0.2809593E-013  0.7246157E+02  0.7816164E-02  0.1226708E+00
        -11   -1    0    0    0    0  0.00000000000E+00  0.00000000000E+00  0.45593999997E+02  0.45594000000E+02  0.51100000000E-03 0.  1.
         11   -1    0    0    0    0 -0.00000000000E+00 -0.00000000000E+00 -0.45593999997E+02  0.45594000000E+02  0.51100000000E-03 0. -1.
    9900012    2    1    2    0    0  0.36325938980E+01  0.35703536088E+01 -0.18020428381E+02  0.72461574758E+02  0.70000005814E+02 0.  0.
        -12    1    1    2    0    0 -0.36325938980E+01 -0.35703536088E+01  0.18020428381E+02  0.18726425242E+02  0.00000000000E+00 0.  1.
         11    1    3    3    0    0 -0.47869231952E+01  0.13379881596E+02  0.93681044745E+01  0.17020494908E+02  0.51100000000E-03 0. -1.
        -11    1    3    3    0    0  0.16669586368E+01 -0.16946114219E+02  0.79282582086E+01  0.18783152469E+02  0.51100000000E-03 0.  1.
         12    1    3    3    0    0  0.67525584564E+01  0.71365862310E+01 -0.35316791064E+02  0.36657927380E+02  0.00000000000E+00 0. -1.
</event>
<event>
 7    1  0.2809593E-013  0.7246157E+02  0.7816164E-02  0.1226708E+00
        -11   -1    0    0    0    0  0.00000000000E+00  0.00000000000E+00  0.45593999997E+02  0.45594000000E+02  0.51100000000E-03 0.  1.
         11   -1    0    0    0    0 -0.00000000000E+00 -0.00000000000E+00 -0.45593999997E+02  0.45594000000E+02  0.51100000000E-03 0. -1.
    9900012    2    1    2    0    0 -0.17383859107E+02 -0.61609366125E+01 -0.32439639953E+01  0.72461574826E+02  0.70000005904E+02 0.  0.
        -12    1    1    2    0    0  0.17383859107E+02  0.61609366125E+01  0.32439639953E+01  0.18726425174E+02  0.00000000000E+00 0.  1.
         11    1    3    3    0    0 -0.32530956485E+02  0.88531909870E+01 -0.74632029264E+01  0.34530298560E+02  0.51100000000E-03 0. -1.
        -11    1    3    3    0    0 -0.96772443370E+01 -0.36654798776E+01  0.27050005171E+00  0.10351713444E+02  0.51100000000E-03 0.  1.
        -12    1    3    3    0    0  0.24824341715E+02 -0.11348647722E+02  0.39487388794E+01  0.27579562822E+02  0.00000000000E+00 0.  1.
</event>
<event>
 7    1  0.2809593E-013  0.7246155E+02  0.7816164E-02  0.1226708E+00
        -11   -1    0    0    0    0  0.00000000000E+00  0.00000000000E+00  0.45593999997E+02  0.45594000000E+02  0.51100000000E-03 0.  1.
         11   -1    0    0    0    0 -0.00000000000E+00 -0.00000000000E+00 -0.45593999997E+02  0.45594000000E+02  0.51100000000E-03 0. -1.
    9900012    2    1    2    0    0 -0.29271380694E+01 -0.87612461498E+01 -0.16289634899E+02  0.72461554087E+02  0.69999978887E+02 0.  0.
        -12    1    1    2    0    0  0.29271380694E+01  0.87612461498E+01  0.16289634899E+02  0.18726445913E+02  0.00000000000E+00 0.  1.
         11    1    3    3    0    0 -0.19585714600E+02  0.16651915778E+02 -0.23702609910E+02  0.34967130742E+02  0.51100000000E-03 0. -1.
        -11    1    3    3    0    0 -0.16749923063E+01  0.17847641453E+01 -0.22248013527E+01  0.33076764655E+01  0.51100000000E-03 0.  1.
        -12    1    3    3    0    0  0.18333568837E+02 -0.27197926074E+02  0.96377763636E+01  0.34186746880E+02  0.00000000000E+00 0.  1.
</event>
<event>
 7    1  0.2809593E-013  0.7246162E+02  0.7816164E-02  0.1226708E+00
        -11   -1    0    0    0    0  0.00000000000E+00  0.00000000000E+00  0.45593999997E+02  0.45594000000E+02  0.51100000000E-03 0.  1.
         11   -1    0    0    0    0 -0.00000000000E+00 -0.00000000000E+00 -0.45593999997E+02  0.45594000000E+02  0.51100000000E-03 0. -1.
    9900012    2    1    2    0    0 -0.18473774181E+01  0.44548503131E+01 -0.18094713889E+02  0.72461623806E+02  0.70000069709E+02 0.  0.
        -12    1    1    2    0    0  0.18473774181E+01 -0.44548503131E+01  0.18094713889E+02  0.18726376194E+02  0.00000000000E+00 0.  1.
         11    1    3    3    0    0 -0.30066691106E+01  0.48324362083E+00 -0.12334256566E+02  0.12704623916E+02  0.51100000000E-03 0. -1.
        -11    1    3    3    0    0  0.27862041114E+02  0.13195580940E+02 -0.64554858616E+01  0.31497460046E+02  0.51100000000E-03 0.  1.
         12    1    3    3    0    0 -0.26702749421E+02 -0.92239742477E+01  0.69502853871E+00  0.28259539845E+02  0.00000000000E+00 0. -1.
</event>
<event>
 7    1  0.2809593E-013  0.7246156E+02  0.7816164E-02  0.1226708E+00
        -11   -1    0    0    0    0  0.00000000000E+00  0.00000000000E+00  0.45593999997E+02  0.45594000000E+02  0.51100000000E-03 0.  1.
         11   -1    0    0    0    0 -0.00000000000E+00 -0.00000000000E+00 -0.45593999997E+02  0.45594000000E+02  0.51100000000E-03 0. -1.
    9900012    2    1    2    0    0  0.13351998849E+02  0.26170163749E+01 -0.12866818506E+02  0.72461557027E+02  0.69999982716E+02 0.  0.
        -12    1    1    2    0    0 -0.13351998849E+02 -0.26170163749E+01  0.12866818506E+02  0.18726442973E+02  0.00000000000E+00 0.  1.
         11    1    3    3    0    0  0.22406115982E-01  0.19957191428E+02  0.10927106857E+02  0.22752838422E+02  0.51100000000E-03 0. -1.
        -11    1    3    3    0    0 -0.11652588243E+02 -0.26609870160E+01  0.40173632313E+00  0.11959308383E+02  0.51100000000E-03 0.  1.
        -12    1    3    3    0    0  0.24982180976E+02 -0.14679188037E+02 -0.24195661686E+02  0.37749410222E+02  0.00000000000E+00 0.  1.
</event>
<event>
 7    1  0.2809593E-013  0.7246162E+02  0.7816164E-02  0.1226708E+00
        -11   -1    0    0    0    0  0.00000000000E+00  0.00000000000E+00  0.45593999997E+02  0.45594000000E+02  0.51100000000E-03 0. -1.
         11   -1    0    0    0    0 -0.00000000000E+00 -0.00000000000E+00 -0.45593999997E+02  0.45594000000E+02  0.51100000000E-03 0.  1.
    9900012    2    1    2    0    0 -0.96423274583E+01  0.16025444962E+02 -0.94225929797E+00  0.72461622411E+02  0.70000067891E+02 0.  0.
        -12    1    1    2    0    0  0.96423274583E+01 -0.16025444962E+02  0.94225929797E+00  0.18726377589E+02  0.00000000000E+00 0.  1.
         11    1    3    3    0    0  0.11557180158E+02 -0.61216370015E+01 -0.71874897242E+01  0.14923232277E+02  0.51100000000E-03 0. -1.
        -11    1    3    3    0    0 -0.12186358696E+02  0.50354909625E+01 -0.20595998406E+02  0.24455237846E+02  0.51100000000E-03 0.  1.
         12    1    3    3    0    0 -0.90131489203E+01  0.17111591001E+02  0.26841228832E+02  0.33083152287E+02  0.00000000000E+00 0. -1.
</event>
<event>
 7    1  0.2809593E-013  0.7246163E+02  0.7816164E-02  0.1226708E+00
        -11   -1    0    0    0    0  0.00000000000E+00  0.00000000000E+00  0.45593999997E+02  0.45594000000E+02  0.51100000000E-03 0. -1.
         11   -1    0    0    0    0 -0.00000000000E+00 -0.00000000000E+00 -0.45593999997E+02  0.45594000000E+02  0.51100000000E-03 0.  1.
    9900012    2    1    2    0    0  0.11553767618E+02 -0.13733756971E+02  0.53452212622E+01  0.72461627766E+02  0.70000074868E+02 0.  0.
        -12    1    1    2    0    0 -0.11553767618E+02  0.13733756971E+02 -0.53452212622E+01  0.18726372234E+02  0.00000000000E+00 0.  1.
         11    1    3    3    0    0 -0.99452314260E+01 -0.43714819887E+01  0.15248417724E+02  0.18722492522E+02  0.51100000000E-03 0. -1.
        -11    1    3    3    0    0 -0.14726654425E+02 -0.69632988742E+01 -0.79645592288E+00  0.16309390671E+02  0.51100000000E-03 0.  1.
         12    1    3    3    0    0  0.36225653469E+02 -0.23989761077E+01 -0.91067405386E+01  0.37429744574E+02  0.00000000000E+00 0. -1.
</event>
<event>
 7    1  0.2809593E-013  0.7246157E+02  0.7816164E-02  0.1226708E+00
        -11   -1    0    0    0    0  0.00000000000E+00  0.00000000000E+00  0.45593999997E+02  0.45594000000E+02  0.51100000000E-03 0.  1.
         11   -1    0    0    0    0 -0.00000000000E+00 -0.00000000000E+00 -0.45593999997E+02  0.45594000000E+02  0.51100000000E-03 0. -1.
    9900012    2    1    2    0    0  0.13233558222E+01  0.29844185870E+01 -0.18439659675E+02  0.72461572849E+02  0.70000003327E+02 0.  0.
        -12    1    1    2    0    0 -0.13233558222E+01 -0.29844185870E+01  0.18439659675E+02  0.18726427151E+02  0.00000000000E+00 0.  1.
         11    1    3    3    0    0 -0.46482362761E+01  0.10321618712E+02 -0.47150012024E-01  0.11320076709E+02  0.51100000000E-03 0. -1.
        -11    1    3    3    0    0  0.82349137093E+01  0.60542656158E+01  0.18881419805E+02  0.21470350487E+02  0.51100000000E-03 0.  1.
         12    1    3    3    0    0 -0.22633216109E+01 -0.13391465741E+02 -0.37273929468E+02  0.39671145652E+02  0.00000000000E+00 0. -1.
</event>
<event>
 7    1  0.2809593E-013  0.7246133E+02  0.7816164E-02  0.1226709E+00
        -11   -1    0    0    0    0  0.00000000000E+00  0.00000000000E+00  0.45593999997E+02  0.45594000000E+02  0.51100000000E-03 0.  1.
         11   -1    0    0    0    0 -0.00000000000E+00 -0.00000000000E+00 -0.45593999997E+02  0.45594000000E+02  0.51100000000E-03 0. -1.
    9900012    2    1    2    0    0  0.33496976705E+01 -0.18424040529E+02  0.15018841196E+00  0.72461326498E+02  0.69999682410E+02 0.  0.
        -12    1    1    2    0    0 -0.33496976705E+01  0.18424040529E+02 -0.15018841196E+00  0.18726673502E+02  0.00000000000E+00 0.  1.
         11    1    3    3    0    0  0.19903257149E+02  0.59834498406E+01 -0.11003285855E+02  0.23516241558E+02  0.51100000000E-03 0. -1.
        -11    1    3    3    0    0 -0.15688922161E+02  0.52249354266E+01 -0.17204268880E+01  0.16625345041E+02  0.51100000000E-03 0.  1.
        -12    1    3    3    0    0 -0.86463731736E+00 -0.29632425796E+02  0.12873901155E+02  0.32319739900E+02  0.00000000000E+00 0.  1.
</event>
<event>
 7    1  0.2809593E-013  0.7246158E+02  0.7816164E-02  0.1226708E+00
        -11   -1    0    0    0    0  0.00000000000E+00  0.00000000000E+00  0.45593999997E+02  0.45594000000E+02  0.51100000000E-03 0. -1.
         11   -1    0    0    0    0 -0.00000000000E+00 -0.00000000000E+00 -0.45593999997E+02  0.45594000000E+02  0.51100000000E-03 0.  1.
    9900012    2    1    2    0    0  0.11219005916E+02 -0.14472711981E+02  0.39183525921E+01  0.72461575545E+02  0.70000006840E+02 0.  0.
        -12    1    1    2    0    0 -0.11219005916E+02  0.14472711981E+02 -0.39183525921E+01  0.18726424455E+02  0.00000000000E+00 0.  1.
         11    1    3    3    0    0  0.23454655024E+02 -0.11232880861E+02  0.22652964870E+02  0.34488480286E+02  0.51100000000E-03 0.  1.
        -11    1    3    3    0    0  0.73580606521E+01 -0.92714242722E+01 -0.32297906071E+01  0.12269144723E+02  0.51100000000E-03 0. -1.
        -12    1    3    3    0    0 -0.19593709761E+02  0.60315931520E+01 -0.15504821671E+02  0.25703950537E+02  0.00000000000E+00 0.  1.
</event>
<event>
 7    1  0.2809593E-013  0.7246158E+02  0.7816164E-02  0.1226708E+00
        -11   -1    0    0    0    0  0.00000000000E+00  0.00000000000E+00  0.45593999997E+02  0.45594000000E+02  0.51100000000E-03 0.  1.
         11   -1    0    0    0    0 -0.00000000000E+00 -0.00000000000E+00 -0.45593999997E+02  0.45594000000E+02  0.51100000000E-03 0. -1.
    9900012    2    1    2    0    0  0.18477762035E+01  0.17778472669E+02 -0.55848508958E+01  0.72461576773E+02  0.70000008439E+02 0.  0.
        -12    1    1    2    0    0 -0.18477762035E+01 -0.17778472669E+02  0.55848508958E+01  0.18726423227E+02  0.00000000000E+00 0.  1.
         11    1    3    3    0    0 -0.80711168663E+01 -0.86273918763E+01  0.50978158420E+01  0.12867110969E+02  0.51100000000E-03 0. -1.
        -11    1    3    3    0    0  0.21666404807E+02 -0.73329354703E+01 -0.32409165523E+01  0.23102133673E+02  0.51100000000E-03 0.  1.
         12    1    3    3    0    0 -0.11747511738E+02  0.33738800016E+02 -0.74417501855E+01  0.36492332131E+02  0.00000000000E+00 0. -1.
</event>
<event>
 7    1  0.2809593E-013  0.7246158E+02  0.7816164E-02  0.1226708E+00
        -11   -1    0    0    0    0  0.00000000000E+00  0.00000000000E+00  0.45593999997E+02  0.45594000000E+02  0.51100000000E-03 0. -1.
         11   -1    0    0    0    0 -0.00000000000E+00 -0.00000000000E+00 -0.45593999997E+02  0.45594000000E+02  0.51100000000E-03 0.  1.
    9900012    2    1    2    0    0  0.17091830309E+02  0.14547732922E+01 -0.75120986519E+01  0.72461584037E+02  0.70000017903E+02 0.  0.
        -12    1    1    2    0    0 -0.17091830309E+02 -0.14547732922E+01  0.75120986519E+01  0.18726415963E+02  0.00000000000E+00 0.  1.
         11    1    3    3    0    0  0.10958315449E+02  0.26977875544E+02  0.36082710070E+01  0.29341268995E+02  0.51100000000E-03 0. -1.
        -11    1    3    3    0    0  0.41703250027E+01  0.74970064272E+01 -0.20359388231E+01  0.88171289630E+01  0.51100000000E-03 0.  1.
         12    1    3    3    0    0  0.19631898571E+01 -0.33020108679E+02 -0.90844308358E+01  0.34303186079E+02  0.00000000000E+00 0. -1.
</event>
<event>
 7    1  0.2809593E-013  0.7246160E+02  0.7816164E-02  0.1226708E+00
        -11   -1    0    0    0    0  0.00000000000E+00  0.00000000000E+00  0.45593999997E+02  0.45594000000E+02  0.51100000000E-03 0.  1.
         11   -1    0    0    0    0 -0.00000000000E+00 -0.00000000000E+00 -0.45593999997E+02  0.45594000000E+02  0.51100000000E-03 0. -1.
    9900012    2    1    2    0    0 -0.17676977529E+02 -0.16297087653E+01 -0.59620956832E+01  0.72461599648E+02  0.70000038239E+02 0.  0.
        -12    1    1    2    0    0  0.17676977529E+02  0.16297087653E+01  0.59620956832E+01  0.18726400352E+02  0.00000000000E+00 0.  1.
         11    1    3    3    0    0 -0.69451461621E+01  0.95584697659E+01 -0.15044009776E+02  0.19129078124E+02  0.51100000000E-03 0. -1.
        -11    1    3    3    0    0 -0.13359419910E+02  0.17947631961E+02  0.88967857658E+01  0.24077881771E+02  0.51100000000E-03 0.  1.
         12    1    3    3    0    0  0.26275885437E+01 -0.29135810492E+02  0.18512832683E+00  0.29254639753E+02  0.00000000000E+00 0. -1.
</event>
<event>
 7    1  0.2809593E-013  0.7246154E+02  0.7816164E-02  0.1226708E+00
        -11   -1    0    0    0    0  0.00000000000E+00  0.00000000000E+00  0.45593999997E+02  0.45594000000E+02  0.51100000000E-03 0. -1.
         11   -1    0    0    0    0 -0.00000000000E+00 -0.00000000000E+00 -0.45593999997E+02  0.45594000000E+02  0.51100000000E-03 0.  1.
    9900012    2    1    2    0    0  0.55392188965E+01 -0.10523758199E+02  0.14465402809E+02  0.72461539816E+02  0.69999960296E+02 0.  0.
        -12    1    1    2    0    0 -0.55392188965E+01  0.10523758199E+02 -0.14465402809E+02  0.18726460184E+02  0.00000000000E+00 0.  1.
         11    1    3    3    0    0  0.19188238318E+02 -0.98642239876E+01  0.70510312748E+01  0.22698203605E+02  0.51100000000E-03 0. -1.
        -11    1    3    3    0    0 -0.78152759857E+01  0.19575777487E+02 -0.91416961492E+01  0.22975208633E+02  0.51100000000E-03 0.  1.
         12    1    3    3    0    0 -0.58337434355E+01 -0.20235311698E+02  0.16556067683E+02  0.26788127578E+02  0.00000000000E+00 0. -1.
</event>
<event>
 7    1  0.2809593E-013  0.7246148E+02  0.7816164E-02  0.1226708E+00
        -11   -1    0    0    0    0  0.00000000000E+00  0.00000000000E+00  0.45593999997E+02  0.45594000000E+02  0.51100000000E-03 0. -1.
         11   -1    0    0    0    0 -0.00000000000E+00 -0.00000000000E+00 -0.45593999997E+02  0.45594000000E+02  0.51100000000E-03 0.  1.
    9900012    2    1    2    0    0  0.18104687504E+02  0.27624705324E+01  0.39079044516E+01  0.72461476824E+02  0.69999878237E+02 0.  0.
        -12    1    1    2    0    0 -0.18104687504E+02 -0.27624705324E+01 -0.39079044516E+01  0.18726523176E+02  0.00000000000E+00 0.  1.
         11    1    3    3    0    0  0.23610095252E+02 -0.17906549758E+01 -0.12583188285E+02  0.26813796276E+02  0.51100000000E-03 0. -1.
        -11    1    3    3    0    0  0.76181424085E+01 -0.15102568867E+02  0.13858456503E+02  0.21867338591E+02  0.51100000000E-03 0.  1.
        -12    1    3    3    0    0 -0.13123550156E+02  0.19655694375E+02  0.26326362343E+01  0.23780341957E+02  0.00000000000E+00 0.  1.
</event>
<event>
 7    1  0.2809593E-013  0.7246156E+02  0.7816164E-02  0.1226708E+00
        -11   -1    0    0    0    0  0.00000000000E+00  0.00000000000E+00  0.45593999997E+02  0.45594000000E+02  0.51100000000E-03 0.  1.
         11   -1    0    0    0    0 -0.00000000000E+00 -0.00000000000E+00 -0.45593999997E+02  0.45594000000E+02  0.51100000000E-03 0. -1.
    9900012    2    1    2    0    0  0.15362828014E+02 -0.38874024433E+01 -0.99775333403E+01  0.72461560031E+02  0.69999986630E+02 0.  0.
        -12    1    1    2    0    0 -0.15362828014E+02  0.38874024433E+01  0.99775333403E+01  0.18726439969E+02  0.00000000000E+00 0.  1.
         11    1    3    3    0    0  0.13791273468E+02  0.13397502651E+02  0.32219015642E+01  0.19495459756E+02  0.51100000000E-03 0. -1.
        -11    1    3    3    0    0 -0.14233471153E+02  0.88150913261E+01  0.49566849895E+01  0.17460419883E+02  0.51100000000E-03 0.  1.
         12    1    3    3    0    0  0.15805025700E+02 -0.26099996420E+02 -0.18156119894E+02  0.35505680392E+02  0.00000000000E+00 0. -1.
</event>
<event>
 7    1  0.2809593E-013  0.7246154E+02  0.7816164E-02  0.1226708E+00
        -11   -1    0    0    0    0  0.00000000000E+00  0.00000000000E+00  0.45593999997E+02  0.45594000000E+02  0.51100000000E-03 0. -1.
         11   -1    0    0    0    0 -0.00000000000E+00 -0.00000000000E+00 -0.45593999997E+02  0.45594000000E+02  0.51100000000E-03 0.  1.
    9900012    2    1    2    0    0  0.76138025255E+01  0.17107079872E+02  0.24128880221E+00  0.72461537682E+02  0.69999957517E+02 0.  0.
        -12    1    1    2    0    0 -0.76138025255E+01 -0.17107079872E+02 -0.24128880221E+00  0.18726462318E+02  0.00000000000E+00 0.  1.
         11    1    3    3    0    0 -0.19305343941E+02 -0.81611799510E+01  0.11466308134E+02  0.23890947770E+02  0.51100000000E-03 0. -1.
        -11    1    3    3    0    0 -0.54641688784E+01 -0.51358262662E+00  0.60174868773E+00  0.55211421274E+01  0.51100000000E-03 0.  1.
        -12    1    3    3    0    0  0.32383315345E+02  0.25781842450E+02 -0.11826768019E+02  0.43049447785E+02  0.00000000000E+00 0.  1.
</event>
<event>
 7    1  0.2809593E-013  0.7246149E+02  0.7816164E-02  0.1226708E+00
        -11   -1    0    0    0    0  0.00000000000E+00  0.00000000000E+00  0.45593999997E+02  0.45594000000E+02  0.51100000000E-03 0. -1.
         11   -1    0    0    0    0 -0.00000000000E+00 -0.00000000000E+00 -0.45593999997E+02  0.45594000000E+02  0.51100000000E-03 0.  1.
    9900012    2    1    2    0    0  0.18358022626E+02  0.36931573590E+00 -0.36781361420E+01  0.72461492736E+02  0.69999898965E+02 0.  0.
        -12    1    1    2    0    0 -0.18358022626E+02 -0.36931573590E+00  0.36781361420E+01  0.18726507264E+02  0.00000000000E+00 0.  1.
         11    1    3    3    0    0  0.17008441849E+02  0.19069016162E+02  0.16391147602E+01  0.25604709898E+02  0.51100000000E-03 0. -1.
        -11    1    3    3    0    0 -0.76959249682E+01  0.33205800303E+01 -0.18019992930E+02  0.19873944206E+02  0.51100000000E-03 0.  1.
        -12    1    3    3    0    0  0.90455057451E+01 -0.22020280456E+02  0.12702742028E+02  0.26982838631E+02  0.00000000000E+00 0.  1.
</event>
<event>
 7    1  0.2809593E-013  0.7246161E+02  0.7816164E-02  0.1226708E+00
        -11   -1    0    0    0    0  0.00000000000E+00  0.00000000000E+00  0.45593999997E+02  0.45594000000E+02  0.51100000000E-03 0.  1.
         11   -1    0    0    0    0 -0.00000000000E+00 -0.00000000000E+00 -0.45593999997E+02  0.45594000000E+02  0.51100000000E-03 0. -1.
    9900012    2    1    2    0    0  0.17473684986E+02 -0.13115514470E+01  0.66051468119E+01  0.72461606898E+02  0.70000047683E+02 0.  0.
        -12    1    1    2    0    0 -0.17473684986E+02  0.13115514470E+01 -0.66051468119E+01  0.18726393102E+02  0.00000000000E+00 0.  1.
         11    1    3    3    0    0  0.36142004261E+02 -0.13789637812E+02  0.21943464718E+02  0.44473747617E+02  0.51100000000E-03 0. -1.
        -11    1    3    3    0    0 -0.75854354873E+00 -0.53632432062E-01 -0.25546223051E+01  0.26654005583E+01  0.51100000000E-03 0.  1.
        -12    1    3    3    0    0 -0.17909775726E+02  0.12531718797E+02 -0.12783695601E+02  0.25322458723E+02  0.00000000000E+00 0.  1.
</event>
<event>
 7    1  0.2809593E-013  0.7246154E+02  0.7816164E-02  0.1226708E+00
        -11   -1    0    0    0    0  0.00000000000E+00  0.00000000000E+00  0.45593999997E+02  0.45594000000E+02  0.51100000000E-03 0. -1.
         11   -1    0    0    0    0 -0.00000000000E+00 -0.00000000000E+00 -0.45593999997E+02  0.45594000000E+02  0.51100000000E-03 0.  1.
    9900012    2    1    2    0    0 -0.40650128365E+01  0.18271490136E+02 -0.55542698061E+00  0.72461543307E+02  0.69999964843E+02 0.  0.
        -12    1    1    2    0    0  0.40650128365E+01 -0.18271490136E+02  0.55542698061E+00  0.18726456693E+02  0.00000000000E+00 0.  1.
         11    1    3    3    0    0  0.88974337370E+01  0.30106066838E+02  0.47359164628E+01  0.31748519533E+02  0.51100000000E-03 0. -1.
        -11    1    3    3    0    0 -0.94709568631E+01  0.88042011450E+01  0.86551945139E+01  0.15560378339E+02  0.51100000000E-03 0.  1.
        -12    1    3    3    0    0 -0.34914897105E+01 -0.20638777846E+02 -0.13946537957E+02  0.25152645435E+02  0.00000000000E+00 0.  1.
</event>
<event>
 7    1  0.2809593E-013  0.7246148E+02  0.7816164E-02  0.1226708E+00
        -11   -1    0    0    0    0  0.00000000000E+00  0.00000000000E+00  0.45593999997E+02  0.45594000000E+02  0.51100000000E-03 0. -1.
         11   -1    0    0    0    0 -0.00000000000E+00 -0.00000000000E+00 -0.45593999997E+02  0.45594000000E+02  0.51100000000E-03 0.  1.
    9900012    2    1    2    0    0  0.60541793528E+01  0.64122395682E+01  0.16520068016E+02  0.72461480004E+02  0.69999882380E+02 0.  0.
        -12    1    1    2    0    0 -0.60541793528E+01 -0.64122395682E+01 -0.16520068016E+02  0.18726519996E+02  0.00000000000E+00 0.  1.
         11    1    3    3    0    0  0.56532387373E+01  0.41756948681E+01  0.20859187749E+02  0.22011389090E+02  0.51100000000E-03 0. -1.
        -11    1    3    3    0    0 -0.18016465231E+02  0.15222581830E+02  0.78134205212E+01  0.24846922495E+02  0.51100000000E-03 0.  1.
        -12    1    3    3    0    0  0.18417405846E+02 -0.12986037130E+02 -0.12152540255E+02  0.25603168419E+02  0.00000000000E+00 0.  1.
</event>
<event>
 7    1  0.2809593E-013  0.7246154E+02  0.7816164E-02  0.1226708E+00
        -11   -1    0    0    0    0  0.00000000000E+00  0.00000000000E+00  0.45593999997E+02  0.45594000000E+02  0.51100000000E-03 0. -1.
         11   -1    0    0    0    0 -0.00000000000E+00 -0.00000000000E+00 -0.45593999997E+02  0.45594000000E+02  0.51100000000E-03 0.  1.
    9900012    2    1    2    0    0 -0.18463712226E+02  0.13385627788E+01  0.28248621001E+01  0.72461541035E+02  0.69999961884E+02 0.  0.
        -12    1    1    2    0    0  0.18463712226E+02 -0.13385627788E+01 -0.28248621001E+01  0.18726458965E+02  0.00000000000E+00 0.  1.
         11    1    3    3    0    0 -0.98560436717E+01  0.15765783071E+02 -0.20811156484E+01  0.18709156991E+02  0.51100000000E-03 0. -1.
        -11    1    3    3    0    0  0.63519009283E+01  0.10521466515E+02 -0.14329354886E+02  0.18877984923E+02  0.51100000000E-03 0.  1.
         12    1    3    3    0    0 -0.14959569483E+02 -0.24948686808E+02  0.19235332634E+02  0.34874399122E+02  0.00000000000E+00 0. -1.
</event>
<event>
 7    1  0.2809593E-013  0.7246083E+02  0.7816164E-02  0.1226710E+00
        -11   -1    0    0    0    0  0.00000000000E+00  0.00000000000E+00  0.45593999997E+02  0.45594000000E+02  0.51100000000E-03 0.  1.
         11   -1    0    0    0    0 -0.00000000000E+00 -0.00000000000E+00 -0.45593999997E+02  0.45594000000E+02  0.51100000000E-03 0. -1.
    9900012    2    1    2    0    0  0.15593860939E+02 -0.70450231993E+00 -0.10346108331E+02  0.72460833100E+02  0.69999039661E+02 0.  0.
        -12    1    1    2    0    0 -0.15593860939E+02  0.70450231993E+00  0.10346108331E+02  0.18727166900E+02  0.00000000000E+00 0.  1.
         11    1    3    3    0    0  0.15600873107E+02 -0.46200563641E+01 -0.12670928144E+02  0.20622429120E+02  0.51100000000E-03 0. -1.
        -11    1    3    3    0    0 -0.16207403296E+01  0.17401266912E+02 -0.19466755278E+02  0.26160761661E+02  0.51100000000E-03 0.  1.
         12    1    3    3    0    0  0.16137281619E+01 -0.13485712868E+02  0.21791575091E+02  0.25677642319E+02  0.00000000000E+00 0. -1.
</event>
<event>
 7    1  0.2809593E-013  0.7246154E+02  0.7816164E-02  0.1226708E+00
        -11   -1    0    0    0    0  0.00000000000E+00  0.00000000000E+00  0.45593999997E+02  0.45594000000E+02  0.51100000000E-03 0.  1.
         11   -1    0    0    0    0 -0.00000000000E+00 -0.00000000000E+00 -0.45593999997E+02  0.45594000000E+02  0.51100000000E-03 0. -1.
    9900012    2    1    2    0    0  0.82610516505E+01  0.11869248351E+02 -0.11897744033E+02  0.72461538939E+02  0.69999959154E+02 0.  0.
        -12    1    1    2    0    0 -0.82610516505E+01 -0.11869248351E+02  0.11897744033E+02  0.18726461061E+02  0.00000000000E+00 0.  1.
         11    1    3    3    0    0 -0.60421491152E+01 -0.58042188606E+01 -0.62967576672E+01  0.10480728977E+02  0.51100000000E-03 0. -1.
        -11    1    3    3    0    0  0.20048471664E+02 -0.16713735011E+02 -0.72126137640E+01  0.27079733227E+02  0.51100000000E-03 0.  1.
         12    1    3    3    0    0 -0.57452708981E+01  0.34387202223E+02  0.16116273986E+01  0.34901076735E+02  0.00000000000E+00 0. -1.
</event>
<event>
 7    1  0.2809593E-013  0.7246158E+02  0.7816164E-02  0.1226708E+00
        -11   -1    0    0    0    0  0.00000000000E+00  0.00000000000E+00  0.45593999997E+02  0.45594000000E+02  0.51100000000E-03 0.  1.
         11   -1    0    0    0    0 -0.00000000000E+00 -0.00000000000E+00 -0.45593999997E+02  0.45594000000E+02  0.51100000000E-03 0. -1.
    9900012    2    1    2    0    0 -0.48140587753E+01  0.22974124268E+01 -0.17950638150E+02  0.72461583478E+02  0.70000017175E+02 0.  0.
        -12    1    1    2    0    0  0.48140587753E+01 -0.22974124268E+01  0.17950638150E+02  0.18726416522E+02  0.00000000000E+00 0.  1.
         11    1    3    3    0    0 -0.47711098594E+01  0.17321580853E+02  0.89673291092E+01  0.20080180382E+02  0.51100000000E-03 0. -1.
        -11    1    3    3    0    0 -0.12861304417E+02  0.10298814753E+02 -0.84229525861E+01  0.18504725536E+02  0.51100000000E-03 0.  1.
        -12    1    3    3    0    0  0.12818355501E+02 -0.25322983179E+02 -0.18495014673E+02  0.33876677561E+02  0.00000000000E+00 0.  1.
</event>
<event>
 7    1  0.2809593E-013  0.7246149E+02  0.7816164E-02  0.1226708E+00
        -11   -1    0    0    0    0  0.00000000000E+00  0.00000000000E+00  0.45593999997E+02  0.45594000000E+02  0.51100000000E-03 0. -1.
         11   -1    0    0    0    0 -0.00000000000E+00 -0.00000000000E+00 -0.45593999997E+02  0.45594000000E+02  0.51100000000E-03 0.  1.
    9900012    2    1    2    0    0  0.72026131017E+01 -0.10923555524E+02 -0.13397028001E+02  0.72461493117E+02  0.69999899462E+02 0.  0.
        -12    1    1    2    0    0 -0.72026131017E+01  0.10923555524E+02  0.13397028001E+02  0.18726506883E+02  0.00000000000E+00 0.  1.
         11    1    3    3    0    0  0.93684482539E+01  0.23817635906E+02  0.54672985037E+01  0.26171338445E+02  0.51100000000E-03 0. -1.
        -11    1    3    3    0    0  0.17410885903E+01 -0.13659887352E+01  0.47359670134E+01  0.52274944779E+01  0.51100000000E-03 0.  1.
        -12    1    3    3    0    0 -0.39069237425E+01 -0.33375202695E+02 -0.23600293518E+02  0.41062660194E+02  0.00000000000E+00 0.  1.
</event>
<event>
 7    1  0.2809593E-013  0.7246159E+02  0.7816164E-02  0.1226708E+00
        -11   -1    0    0    0    0  0.00000000000E+00  0.00000000000E+00  0.45593999997E+02  0.45594000000E+02  0.51100000000E-03 0. -1.
         11   -1    0    0    0    0 -0.00000000000E+00 -0.00000000000E+00 -0.45593999997E+02  0.45594000000E+02  0.51100000000E-03 0.  1.
    9900012    2    1    2    0    0  0.84434576025E+01  0.13213725803E+02  0.10236406793E+02  0.72461586838E+02  0.70000021552E+02 0.  0.
        -12    1    1    2    0    0 -0.84434576025E+01 -0.13213725803E+02 -0.10236406793E+02  0.18726413162E+02  0.00000000000E+00 0.  1.
         11    1    3    3    0    0  0.40584643333E+01  0.22774776595E+02  0.21496425967E+01  0.23233220725E+02  0.51100000000E-03 0. -1.
        -11    1    3    3    0    0 -0.89243787746E+00  0.18905920965E+02 -0.79784679407E+00  0.18943781372E+02  0.51100000000E-03 0.  1.
        -12    1    3    3    0    0  0.52774311466E+01 -0.28466971757E+02  0.88846109902E+01  0.30284584742E+02  0.00000000000E+00 0.  1.
</event>
<event>
 7    1  0.2809593E-013  0.7246159E+02  0.7816164E-02  0.1226708E+00
        -11   -1    0    0    0    0  0.00000000000E+00  0.00000000000E+00  0.45593999997E+02  0.45594000000E+02  0.51100000000E-03 0.  1.
         11   -1    0    0    0    0 -0.00000000000E+00 -0.00000000000E+00 -0.45593999997E+02  0.45594000000E+02  0.51100000000E-03 0. -1.
    9900012    2    1    2    0    0  0.18651184240E+00  0.85978809212E+01 -0.16634909673E+02  0.72461586493E+02  0.70000021102E+02 0.  0.
        -12    1    1    2    0    0 -0.18651184240E+00 -0.85978809212E+01  0.16634909673E+02  0.18726413507E+02  0.00000000000E+00 0.  1.
         11    1    3    3    0    0  0.14580243147E+01 -0.33302091412E+01  0.14872053555E+02  0.15309934847E+02  0.51100000000E-03 0. -1.
        -11    1    3    3    0    0  0.19544397105E+02  0.15157310308E+02 -0.89868563849E+01  0.26315225667E+02  0.51100000000E-03 0.  1.
         12    1    3    3    0    0 -0.20815909578E+02 -0.32292202452E+01 -0.22520106843E+02  0.30836425979E+02  0.00000000000E+00 0. -1.
</event>
<event>
 7    1  0.2809593E-013  0.7246153E+02  0.7816164E-02  0.1226708E+00
        -11   -1    0    0    0    0  0.00000000000E+00  0.00000000000E+00  0.45593999997E+02  0.45594000000E+02  0.51100000000E-03 0. -1.
         11   -1    0    0    0    0 -0.00000000000E+00 -0.00000000000E+00 -0.45593999997E+02  0.45594000000E+02  0.51100000000E-03 0.  1.
    9900012    2    1    2    0    0 -0.18294046595E+02  0.21773264790E+01  0.33567743531E+01  0.72461526080E+02  0.69999942403E+02 0.  0.
        -12    1    1    2    0    0  0.18294046595E+02 -0.21773264790E+01 -0.33567743531E+01  0.18726473920E+02  0.00000000000E+00 0.  1.
         11    1    3    3    0    0 -0.29074470172E+01 -0.48761681736E+01 -0.17984739735E+01  0.59552307352E+01  0.51100000000E-03 0. -1.
        -11    1    3    3    0    0 -0.14601319792E+02  0.78980375598E+01 -0.28418991196E+02  0.32912256043E+02  0.51100000000E-03 0.  1.
         12    1    3    3    0    0 -0.78527978600E+00 -0.84454290723E+00  0.33574239523E+02  0.33594039302E+02  0.00000000000E+00 0. -1.
</event>
<event>
 7    1  0.2809593E-013  0.7246162E+02  0.7816164E-02  0.1226708E+00
        -11   -1    0    0    0    0  0.00000000000E+00  0.00000000000E+00  0.45593999997E+02  0.45594000000E+02  0.51100000000E-03 0. -1.
         11   -1    0    0    0    0 -0.00000000000E+00 -0.00000000000E+00 -0.45593999997E+02  0.45594000000E+02  0.51100000000E-03 0.  1.
    9900012    2    1    2    0    0 -0.66600638289E+00  0.88524504600E+01  0.16488411806E+02  0.72461623748E+02  0.70000069633E+02 0.  0.
        -12    1    1    2    0    0  0.66600638289E+00 -0.88524504600E+01 -0.16488411806E+02  0.18726376252E+02  0.00000000000E+00 0.  1.
         11    1    3    3    0    0  0.17562347329E+01  0.33938011876E+01 -0.13496939394E+01  0.40526436963E+01  0.51100000000E-03 0. -1.
        -11    1    3    3    0    0  0.10900863411E+02  0.69323778214E+01 -0.22476412876E+02  0.25924425190E+02  0.51100000000E-03 0.  1.
         12    1    3    3    0    0 -0.13323104526E+02 -0.14737285490E+01  0.40314518622E+02  0.42484554862E+02  0.00000000000E+00 0. -1.
</event>
<event>
 7    1  0.2809593E-013  0.7246184E+02  0.7816164E-02  0.1226707E+00
        -11   -1    0    0    0    0  0.00000000000E+00  0.00000000000E+00  0.45593999997E+02  0.45594000000E+02  0.51100000000E-03 0.  1.
         11   -1    0    0    0    0 -0.00000000000E+00 -0.00000000000E+00 -0.45593999997E+02  0.45594000000E+02  0.51100000000E-03 0. -1.
    9900012    2    1    2    0    0 -0.48820736403E+01 -0.17530681452E+02 -0.44169910206E+01  0.72461835287E+02  0.70000345201E+02 0.  0.
        -12    1    1    2    0    0  0.48820736403E+01  0.17530681452E+02  0.44169910206E+01  0.18726164713E+02  0.00000000000E+00 0.  1.
         11    1    3    3    0    0 -0.98853479913E+01 -0.41753382086E+01 -0.65020505630E+01  0.12547119823E+02  0.51100000000E-03 0. -1.
        -11    1    3    3    0    0 -0.20158161773E+02 -0.15475784002E+02 -0.14922134465E+02  0.29470688384E+02  0.51100000000E-03 0.  1.
        -12    1    3    3    0    0  0.25161436125E+02  0.21204407586E+01  0.17007194007E+02  0.30444027080E+02  0.00000000000E+00 0.  1.
</event>
<event>
 7    1  0.2809593E-013  0.7246176E+02  0.7816164E-02  0.1226708E+00
        -11   -1    0    0    0    0  0.00000000000E+00  0.00000000000E+00  0.45593999997E+02  0.45594000000E+02  0.51100000000E-03 0. -1.
         11   -1    0    0    0    0 -0.00000000000E+00 -0.00000000000E+00 -0.45593999997E+02  0.45594000000E+02  0.51100000000E-03 0.  1.
    9900012    2    1    2    0    0  0.93127425049E+01 -0.10448273172E+02  0.12441002044E+02  0.72461758597E+02  0.70000245299E+02 0.  0.
        -12    1    1    2    0    0 -0.93127425049E+01  0.10448273172E+02 -0.12441002044E+02  0.18726241403E+02  0.00000000000E+00 0.  1.
         11    1    3    3    0    0  0.11525275393E+02 -0.79966179242E+01  0.92696896557E+00  0.14058347799E+02  0.51100000000E-03 0. -1.
        -11    1    3    3    0    0  0.13812508502E+02 -0.24682617796E+02 -0.94310116540E+00  0.28300290678E+02  0.51100000000E-03 0.  1.
         12    1    3    3    0    0 -0.16025041390E+02  0.22230962549E+02  0.12457134244E+02  0.30103120120E+02  0.00000000000E+00 0. -1.
</event>
<event>
 7    1  0.2809593E-013  0.7246155E+02  0.7816164E-02  0.1226708E+00
        -11   -1    0    0    0    0  0.00000000000E+00  0.00000000000E+00  0.45593999997E+02  0.45594000000E+02  0.51100000000E-03 0. -1.
         11   -1    0    0    0    0 -0.00000000000E+00 -0.00000000000E+00 -0.45593999997E+02  0.45594000000E+02  0.51100000000E-03 0.  1.
    9900012    2    1    2    0    0  0.43599797132E+01 -0.18103405984E+02  0.19842194823E+01  0.72461551904E+02  0.69999976044E+02 0.  0.
        -12    1    1    2    0    0 -0.43599797132E+01  0.18103405984E+02 -0.19842194823E+01  0.18726448096E+02  0.00000000000E+00 0.  1.
         11    1    3    3    0    0  0.58267150932E+01  0.86335868416E+00  0.17108370153E+02  0.18093985922E+02  0.51100000000E-03 0. -1.
        -11    1    3    3    0    0  0.21911659292E+02 -0.18755056509E+02 -0.83380669833E+01  0.30023262961E+02  0.51100000000E-03 0.  1.
        -12    1    3    3    0    0 -0.23378394672E+02 -0.21170815923E+00 -0.67860836872E+01  0.24344303021E+02  0.00000000000E+00 0.  1.
</event>
<event>
 7    1  0.2809593E-013  0.7246154E+02  0.7816164E-02  0.1226708E+00
        -11   -1    0    0    0    0  0.00000000000E+00  0.00000000000E+00  0.45593999997E+02  0.45594000000E+02  0.51100000000E-03 0. -1.
         11   -1    0    0    0    0 -0.00000000000E+00 -0.00000000000E+00 -0.45593999997E+02  0.45594000000E+02  0.51100000000E-03 0.  1.
    9900012    2    1    2    0    0  0.10471721968E+02  0.15319690559E+02 -0.25160613777E+01  0.72461536249E+02  0.69999955649E+02 0.  0.
        -12    1    1    2    0    0 -0.10471721968E+02 -0.15319690559E+02  0.25160613777E+01  0.18726463751E+02  0.00000000000E+00 0.  1.
         11    1    3    3    0    0  0.81917523458E+00  0.39902459706E+02  0.53531951004E+00  0.39914457354E+02  0.51100000000E-03 0. -1.
        -11    1    3    3    0    0  0.62261346160E+01  0.87246313593E+00 -0.27458960740E+01  0.68604584169E+01  0.51100000000E-03 0.  1.
        -12    1    3    3    0    0  0.34264121170E+01 -0.25455232283E+02 -0.30548481383E+00  0.25686620478E+02  0.00000000000E+00 0.  1.
</event>
<event>
 7    1  0.2809593E-013  0.7246159E+02  0.7816164E-02  0.1226708E+00
        -11   -1    0    0    0    0  0.00000000000E+00  0.00000000000E+00  0.45593999997E+02  0.45594000000E+02  0.51100000000E-03 0.  1.
         11   -1    0    0    0    0 -0.00000000000E+00 -0.00000000000E+00 -0.45593999997E+02  0.45594000000E+02  0.51100000000E-03 0. -1.
    9900012    2    1    2    0    0 -0.68964161212E+01  0.46135259515E+01 -0.16787885903E+02  0.72461593774E+02  0.70000030587E+02 0.  0.
        -12    1    1    2    0    0  0.68964161212E+01 -0.46135259515E+01  0.16787885903E+02  0.18726406226E+02  0.00000000000E+00 0.  1.
         11    1    3    3    0    0  0.92644335592E+01 -0.79197029887E+01  0.50123544457E+00  0.12198469651E+02  0.51100000000E-03 0. -1.
        -11    1    3    3    0    0 -0.20183080491E+02  0.28056890625E+02  0.26637463219E+01  0.34664699542E+02  0.51100000000E-03 0.  1.
         12    1    3    3    0    0  0.40222308103E+01 -0.15523661684E+02 -0.19952867670E+02  0.25598424581E+02  0.00000000000E+00 0. -1.
</event>
<event>
 7    1  0.2809593E-013  0.7246157E+02  0.7816164E-02  0.1226708E+00
        -11   -1    0    0    0    0  0.00000000000E+00  0.00000000000E+00  0.45593999997E+02  0.45594000000E+02  0.51100000000E-03 0. -1.
         11   -1    0    0    0    0 -0.00000000000E+00 -0.00000000000E+00 -0.45593999997E+02  0.45594000000E+02  0.51100000000E-03 0.  1.
    9900012    2    1    2    0    0 -0.24308935503E+01 -0.60983464566E+01  0.17537964945E+02  0.72461567148E+02  0.69999995901E+02 0.  0.
        -12    1    1    2    0    0  0.24308935503E+01  0.60983464566E+01 -0.17537964945E+02  0.18726432852E+02  0.00000000000E+00 0.  1.
         11    1    3    3    0    0 -0.86464192377E+01 -0.14910229558E+02  0.13129419351E+02  0.21666960190E+02  0.51100000000E-03 0. -1.
        -11    1    3    3    0    0 -0.10781416122E+02  0.69402721384E+01 -0.18314197899E+02  0.22356568518E+02  0.51100000000E-03 0.  1.
        -12    1    3    3    0    0  0.16996941809E+02  0.18716109628E+01  0.22722743493E+02  0.28438038440E+02  0.00000000000E+00 0.  1.
</event>
<event>
 7    1  0.2809593E-013  0.7246158E+02  0.7816164E-02  0.1226708E+00
        -11   -1    0    0    0    0  0.00000000000E+00  0.00000000000E+00  0.45593999997E+02  0.45594000000E+02  0.51100000000E-03 0.  1.
         11   -1    0    0    0    0 -0.00000000000E+00 -0.00000000000E+00 -0.45593999997E+02  0.45594000000E+02  0.51100000000E-03 0. -1.
    9900012    2    1    2    0    0  0.67309001316E+00 -0.86650518341E+01 -0.16587425323E+02  0.72461578765E+02  0.70000011034E+02 0.  0.
        -12    1    1    2    0    0 -0.67309001316E+00  0.86650518341E+01  0.16587425323E+02  0.18726421235E+02  0.00000000000E+00 0.  1.
         11    1    3    3    0    0 -0.29632337207E+01  0.99705999015E+01 -0.25116877419E+02  0.27185495177E+02  0.51100000000E-03 0. -1.
        -11    1    3    3    0    0  0.98311378564E+01 -0.31969603437E+01 -0.13917528412E+02  0.17336938148E+02  0.51100000000E-03 0.  1.
        -12    1    3    3    0    0 -0.61948141225E+01 -0.15438691392E+02  0.22446980509E+02  0.27939145439E+02  0.00000000000E+00 0.  1.
</event>
<event>
 7    1  0.2809593E-013  0.7246156E+02  0.7816164E-02  0.1226708E+00
        -11   -1    0    0    0    0  0.00000000000E+00  0.00000000000E+00  0.45593999997E+02  0.45594000000E+02  0.51100000000E-03 0.  1.
         11   -1    0    0    0    0 -0.00000000000E+00 -0.00000000000E+00 -0.45593999997E+02  0.45594000000E+02  0.51100000000E-03 0. -1.
    9900012    2    1    2    0    0 -0.10685801202E+02 -0.12012468472E+02 -0.96017650939E+01  0.72461557758E+02  0.69999983669E+02 0.  0.
        -12    1    1    2    0    0  0.10685801202E+02  0.12012468472E+02  0.96017650939E+01  0.18726442242E+02  0.00000000000E+00 0.  1.
         11    1    3    3    0    0  0.22426816898E+01  0.16243181732E+02 -0.20222167292E+01  0.16521499166E+02  0.51100000000E-03 0. -1.
        -11    1    3    3    0    0  0.13395377435E+02 -0.22122053667E+02 -0.12071763674E+02  0.28540302619E+02  0.51100000000E-03 0.  1.
        -12    1    3    3    0    0 -0.26323860327E+02 -0.61335965365E+01  0.44922153098E+01  0.27399755973E+02  0.00000000000E+00 0.  1.
</event>
<event>
 7    1  0.2809593E-013  0.7246161E+02  0.7816164E-02  0.1226708E+00
        -11   -1    0    0    0    0  0.00000000000E+00  0.00000000000E+00  0.45593999997E+02  0.45594000000E+02  0.51100000000E-03 0.  1.
         11   -1    0    0    0    0 -0.00000000000E+00 -0.00000000000E+00 -0.45593999997E+02  0.45594000000E+02  0.51100000000E-03 0. -1.
    9900012    2    1    2    0    0  0.36914969487E+01 -0.13960837469E+02 -0.11922483735E+02  0.72461608170E+02  0.70000049340E+02 0.  0.
        -12    1    1    2    0    0 -0.36914969487E+01  0.13960837469E+02  0.11922483735E+02  0.18726391830E+02  0.00000000000E+00 0.  1.
         11    1    3    3    0    0  0.65161912759E+01  0.29622117470E+01  0.16326744363E+00  0.71597558406E+01  0.51100000000E-03 0. -1.
        -11    1    3    3    0    0 -0.23500327199E+02  0.76009136646E+01  0.96903978436E+01  0.26531925630E+02  0.51100000000E-03 0.  1.
         12    1    3    3    0    0  0.20675632872E+02 -0.24523962880E+02 -0.21776149023E+02  0.38769926699E+02  0.00000000000E+00 0. -1.
</event>
<event>
 7    1  0.2809593E-013  0.7246168E+02  0.7816164E-02  0.1226708E+00
        -11   -1    0    0    0    0  0.00000000000E+00  0.00000000000E+00  0.45593999997E+02  0.45594000000E+02  0.51100000000E-03 0. -1.
         11   -1    0    0    0    0 -0.00000000000E+00 -0.00000000000E+00 -0.45593999997E+02  0.45594000000E+02  0.51100000000E-03 0.  1.
    9900012    2    1    2    0    0 -0.56783882158E+01  0.82585700980E+01  0.15818559099E+02  0.72461684699E+02  0.70000149033E+02 0.  0.
        -12    1    1    2    0    0  0.56783882158E+01 -0.82585700980E+01 -0.15818559099E+02  0.18726315301E+02  0.00000000000E+00 0.  1.
         11    1    3    3    0    0  0.32184353960E+01  0.20304195193E+01  0.59225604154E+01  0.70397195937E+01  0.51100000000E-03 0. -1.
        -11    1    3    3    0    0 -0.24255930598E+02  0.12913999307E+02  0.29042270587E+02  0.39982183887E+02  0.51100000000E-03 0.  1.
         12    1    3    3    0    0  0.15359106986E+02 -0.66858487279E+01 -0.19146271904E+02  0.25439781218E+02  0.00000000000E+00 0. -1.
</event>
<event>
 7    1  0.2809593E-013  0.7246160E+02  0.7816164E-02  0.1226708E+00
        -11   -1    0    0    0    0  0.00000000000E+00  0.00000000000E+00  0.45593999997E+02  0.45594000000E+02  0.51100000000E-03 0.  1.
         11   -1    0    0    0    0 -0.00000000000E+00 -0.00000000000E+00 -0.45593999997E+02  0.45594000000E+02  0.51100000000E-03 0. -1.
    9900012    2    1    2    0    0 -0.30142456600E+01  0.80470197340E+01 -0.16638446430E+02  0.72461598768E+02  0.70000037093E+02 0.  0.
        -12    1    1    2    0    0  0.30142456600E+01 -0.80470197340E+01  0.16638446430E+02  0.18726401232E+02  0.00000000000E+00 0.  1.
         11    1    3    3    0    0  0.10661267151E+02  0.22175366872E+02 -0.10121342243E+02  0.26605470908E+02  0.51100000000E-03 0. -1.
        -11    1    3    3    0    0 -0.30935704439E+01  0.11572521500E+02  0.80925341075E+01  0.14456228433E+02  0.51100000000E-03 0.  1.
        -12    1    3    3    0    0 -0.10581942367E+02 -0.25700868638E+02 -0.14609638294E+02  0.31399899428E+02  0.00000000000E+00 0.  1.
</event>
<event>
 7    1  0.2809593E-013  0.7246156E+02  0.7816164E-02  0.1226708E+00
        -11   -1    0    0    0    0  0.00000000000E+00  0.00000000000E+00  0.45593999997E+02  0.45594000000E+02  0.51100000000E-03 0.  1.
         11   -1    0    0    0    0 -0.00000000000E+00 -0.00000000000E+00 -0.45593999997E+02  0.45594000000E+02  0.51100000000E-03 0. -1.
    9900012    2    1    2    0    0 -0.10730377938E+02  0.73560440568E+01 -0.13469494339E+02  0.72461556862E+02  0.69999982502E+02 0.  0.
        -12    1    1    2    0    0  0.10730377938E+02 -0.73560440568E+01  0.13469494339E+02  0.18726443138E+02  0.00000000000E+00 0.  1.
         11    1    3    3    0    0  0.23203255118E+01  0.19407603792E+02 -0.89016541169E+01  0.21477393736E+02  0.51100000000E-03 0. -1.
        -11    1    3    3    0    0  0.12564495209E+02  0.85668806795E+01  0.61432354466E+01  0.16401137962E+02  0.51100000000E-03 0.  1.
         12    1    3    3    0    0 -0.25615198659E+02 -0.20618440415E+02 -0.10711075669E+02  0.34583025163E+02  0.00000000000E+00 0. -1.
</event>
<event>
 7    1  0.2809593E-013  0.7246158E+02  0.7816164E-02  0.1226708E+00
        -11   -1    0    0    0    0  0.00000000000E+00  0.00000000000E+00  0.45593999997E+02  0.45594000000E+02  0.51100000000E-03 0. -1.
         11   -1    0    0    0    0 -0.00000000000E+00 -0.00000000000E+00 -0.45593999997E+02  0.45594000000E+02  0.51100000000E-03 0.  1.
    9900012    2    1    2    0    0 -0.17526889369E+02 -0.62610653384E+01 -0.20702996930E+01  0.72461576664E+02  0.70000008298E+02 0.  0.
        -12    1    1    2    0    0  0.17526889369E+02  0.62610653384E+01  0.20702996930E+01  0.18726423336E+02  0.00000000000E+00 0.  1.
         11    1    3    3    0    0  0.99063561141E+01  0.14677585449E+02  0.19075642564E+02  0.26027822528E+02  0.51100000000E-03 0. -1.
        -11    1    3    3    0    0 -0.38667011080E+01 -0.20959154104E+01  0.48923659895E+01  0.65787144719E+01  0.51100000000E-03 0.  1.
        -12    1    3    3    0    0 -0.23566544375E+02 -0.18842735377E+02 -0.26038308247E+02  0.39855039664E+02  0.00000000000E+00 0.  1.
</event>
<event>
 7    1  0.2809593E-013  0.7246168E+02  0.7816164E-02  0.1226708E+00
        -11   -1    0    0    0    0  0.00000000000E+00  0.00000000000E+00  0.45593999997E+02  0.45594000000E+02  0.51100000000E-03 0. -1.
         11   -1    0    0    0    0 -0.00000000000E+00 -0.00000000000E+00 -0.45593999997E+02  0.45594000000E+02  0.51100000000E-03 0.  1.
    9900012    2    1    2    0    0  0.12023162916E+02 -0.95938067348E+00  0.14324746849E+02  0.72461675479E+02  0.70000137022E+02 0.  0.
        -12    1    1    2    0    0 -0.12023162916E+02  0.95938067348E+00 -0.14324746849E+02  0.18726324521E+02  0.00000000000E+00 0.  1.
         11    1    3    3    0    0 -0.16708555943E+01  0.17006873040E+00  0.19518496477E+02  0.19590619867E+02  0.51100000000E-03 0. -1.
        -11    1    3    3    0    0  0.86463580651E+00  0.22995662994E+02  0.52771424765E+01  0.23609242779E+02  0.51100000000E-03 0.  1.
        -12    1    3    3    0    0  0.12829382704E+02 -0.24125112398E+02 -0.10470892105E+02  0.29261812833E+02  0.00000000000E+00 0.  1.
</event>
<event>
 7    1  0.2809593E-013  0.7246150E+02  0.7816164E-02  0.1226708E+00
        -11   -1    0    0    0    0  0.00000000000E+00  0.00000000000E+00  0.45593999997E+02  0.45594000000E+02  0.51100000000E-03 0. -1.
         11   -1    0    0    0    0 -0.00000000000E+00 -0.00000000000E+00 -0.45593999997E+02  0.45594000000E+02  0.51100000000E-03 0.  1.
    9900012    2    1    2    0    0  0.25626849314E+01 -0.15830866761E+02  0.96694498670E+01  0.72461495863E+02  0.69999903039E+02 0.  0.
        -12    1    1    2    0    0 -0.25626849314E+01  0.15830866761E+02 -0.96694498670E+01  0.18726504137E+02  0.00000000000E+00 0.  1.
         11    1    3    3    0    0 -0.87925457480E+01  0.36787940925E+01 -0.56361156162E+01  0.11072858087E+02  0.51100000000E-03 0. -1.
        -11    1    3    3    0    0  0.35776503440E+01  0.73959426351E+01 -0.16849930647E+02  0.18746191947E+02  0.51100000000E-03 0.  1.
         12    1    3    3    0    0  0.77775803354E+01 -0.26905603489E+02  0.32155496130E+02  0.42642445830E+02  0.00000000000E+00 0. -1.
</event>
<event>
 7    1  0.2809593E-013  0.7246155E+02  0.7816164E-02  0.1226708E+00
        -11   -1    0    0    0    0  0.00000000000E+00  0.00000000000E+00  0.45593999997E+02  0.45594000000E+02  0.51100000000E-03 0.  1.
         11   -1    0    0    0    0 -0.00000000000E+00 -0.00000000000E+00 -0.45593999997E+02  0.45594000000E+02  0.51100000000E-03 0. -1.
    9900012    2    1    2    0    0 -0.60481490121E+01  0.17268322549E+02 -0.39880714459E+01  0.72461553888E+02  0.69999978628E+02 0.  0.
        -12    1    1    2    0    0  0.60481490121E+01 -0.17268322549E+02  0.39880714459E+01  0.18726446112E+02  0.00000000000E+00 0.  1.
         11    1    3    3    0    0 -0.21966421296E+02 -0.60974792303E+01 -0.70820161799E+01  0.23871696022E+02  0.51100000000E-03 0. -1.
        -11    1    3    3    0    0  0.16610776747E+02 -0.70365036938E+01  0.18243881194E+00  0.18040608985E+02  0.51100000000E-03 0.  1.
         12    1    3    3    0    0 -0.69250446330E+00  0.30402305473E+02  0.29115059221E+01  0.30549248881E+02  0.00000000000E+00 0. -1.
</event>
<event>
 7    1  0.2809593E-013  0.7246158E+02  0.7816164E-02  0.1226708E+00
        -11   -1    0    0    0    0  0.00000000000E+00  0.00000000000E+00  0.45593999997E+02  0.45594000000E+02  0.51100000000E-03 0. -1.
         11   -1    0    0    0    0 -0.00000000000E+00 -0.00000000000E+00 -0.45593999997E+02  0.45594000000E+02  0.51100000000E-03 0.  1.
    9900012    2    1    2    0    0  0.14600452229E+02 -0.10735464400E+02  0.47175792933E+01  0.72461576007E+02  0.70000007442E+02 0.  0.
        -12    1    1    2    0    0 -0.14600452229E+02  0.10735464400E+02 -0.47175792933E+01  0.18726423993E+02  0.00000000000E+00 0.  1.
         11    1    3    3    0    0  0.18217944968E+02 -0.16308710004E+02 -0.14552787745E+02  0.28454370003E+02  0.51100000000E-03 0. -1.
        -11    1    3    3    0    0  0.14317163088E+02 -0.69206162129E+01  0.17569435150E+01  0.15998841784E+02  0.51100000000E-03 0.  1.
         12    1    3    3    0    0 -0.17934655827E+02  0.12493861817E+02  0.17513423524E+02  0.28008364220E+02  0.00000000000E+00 0. -1.
</event>
<event>
 7    1  0.2809593E-013  0.7246157E+02  0.7816164E-02  0.1226708E+00
        -11   -1    0    0    0    0  0.00000000000E+00  0.00000000000E+00  0.45593999997E+02  0.45594000000E+02  0.51100000000E-03 0.  1.
         11   -1    0    0    0    0 -0.00000000000E+00 -0.00000000000E+00 -0.45593999997E+02  0.45594000000E+02  0.51100000000E-03 0. -1.
    9900012    2    1    2    0    0 -0.68061133648E-01 -0.76006704659E+00 -0.18710878524E+02  0.72461566560E+02  0.69999995135E+02 0.  0.
        -12    1    1    2    0    0  0.68061133648E-01  0.76006704659E+00  0.18710878524E+02  0.18726433440E+02  0.00000000000E+00 0.  1.
         11    1    3    3    0    0 -0.32107637295E+01  0.14113140181E+02 -0.32758943858E+02  0.35813937685E+02  0.51100000000E-03 0. -1.
        -11    1    3    3    0    0 -0.22824748008E+01  0.29512212936E+01 -0.73694786018E+01  0.82600613474E+01  0.51100000000E-03 0.  1.
        -12    1    3    3    0    0  0.54251773966E+01 -0.17824428521E+02  0.21417543936E+02  0.28387567528E+02  0.00000000000E+00 0.  1.
</event>
<event>
 7    1  0.2809593E-013  0.7246159E+02  0.7816164E-02  0.1226708E+00
        -11   -1    0    0    0    0  0.00000000000E+00  0.00000000000E+00  0.45593999997E+02  0.45594000000E+02  0.51100000000E-03 0.  1.
         11   -1    0    0    0    0 -0.00000000000E+00 -0.00000000000E+00 -0.45593999997E+02  0.45594000000E+02  0.51100000000E-03 0. -1.
    9900012    2    1    2    0    0 -0.10965664068E+02 -0.20596426589E+01 -0.15039634519E+02  0.72461587561E+02  0.70000022494E+02 0.  0.
        -12    1    1    2    0    0  0.10965664068E+02  0.20596426589E+01  0.15039634519E+02  0.18726412439E+02  0.00000000000E+00 0.  1.
         11    1    3    3    0    0 -0.20113499362E+01  0.14465194237E+02  0.15253829460E+02  0.21117923343E+02  0.51100000000E-03 0. -1.
        -11    1    3    3    0    0  0.56140912101E+00 -0.35634428406E+01  0.85628999852E+01  0.92917469562E+01  0.51100000000E-03 0.  1.
         12    1    3    3    0    0 -0.95157232531E+01 -0.12961394056E+02 -0.38856363964E+02  0.42051917262E+02  0.00000000000E+00 0. -1.
</event>
<event>
 7    1  0.2809593E-013  0.7246159E+02  0.7816164E-02  0.1226708E+00
        -11   -1    0    0    0    0  0.00000000000E+00  0.00000000000E+00  0.45593999997E+02  0.45594000000E+02  0.51100000000E-03 0.  1.
         11   -1    0    0    0    0 -0.00000000000E+00 -0.00000000000E+00 -0.45593999997E+02  0.45594000000E+02  0.51100000000E-03 0. -1.
    9900012    2    1    2    0    0  0.10877817359E+02 -0.88310651377E+01 -0.12424317905E+02  0.72461593581E+02  0.70000030335E+02 0.  0.
        -12    1    1    2    0    0 -0.10877817359E+02  0.88310651377E+01  0.12424317905E+02  0.18726406419E+02  0.00000000000E+00 0.  1.
         11    1    3    3    0    0  0.26495776353E+02 -0.36374361495E+01  0.15865928786E+02  0.31096379256E+02  0.51100000000E-03 0. -1.
        -11    1    3    3    0    0 -0.13976368527E+02 -0.10327195620E+02 -0.59256712043E+01  0.18360376523E+02  0.51100000000E-03 0.  1.
        -12    1    3    3    0    0 -0.16415904668E+01  0.51335666315E+01 -0.22364575487E+02  0.23004837802E+02  0.00000000000E+00 0.  1.
</event>
<event>
 7    1  0.2809593E-013  0.7246171E+02  0.7816164E-02  0.1226708E+00
        -11   -1    0    0    0    0  0.00000000000E+00  0.00000000000E+00  0.45593999997E+02  0.45594000000E+02  0.51100000000E-03 0. -1.
         11   -1    0    0    0    0 -0.00000000000E+00 -0.00000000000E+00 -0.45593999997E+02  0.45594000000E+02  0.51100000000E-03 0.  1.
    9900012    2    1    2    0    0  0.14706350874E+02 -0.93356739940E+01  0.68733208600E+01  0.72461705529E+02  0.70000176168E+02 0.  0.
        -12    1    1    2    0    0 -0.14706350874E+02  0.93356739940E+01 -0.68733208600E+01  0.18726294471E+02  0.00000000000E+00 0.  1.
         11    1    3    3    0    0 -0.85793030190E+00  0.52089267879E+01  0.49802471176E+01  0.72575356904E+01  0.51100000000E-03 0. -1.
        -11    1    3    3    0    0 -0.15260341204E+02 -0.15226241474E+02 -0.18359035866E+02  0.28315554759E+02  0.51100000000E-03 0.  1.
        -12    1    3    3    0    0  0.30824622380E+02  0.68164069216E+00  0.20252109609E+02  0.36888615080E+02  0.00000000000E+00 0.  1.
</event>
<event>
 7    1  0.2809593E-013  0.7246163E+02  0.7816164E-02  0.1226708E+00
        -11   -1    0    0    0    0  0.00000000000E+00  0.00000000000E+00  0.45593999997E+02  0.45594000000E+02  0.51100000000E-03 0.  1.
         11   -1    0    0    0    0 -0.00000000000E+00 -0.00000000000E+00 -0.45593999997E+02  0.45594000000E+02  0.51100000000E-03 0. -1.
    9900012    2    1    2    0    0 -0.89004107065E+01 -0.12208832487E+02 -0.11063632690E+02  0.72461631699E+02  0.70000079991E+02 0.  0.
        -12    1    1    2    0    0  0.89004107065E+01  0.12208832487E+02  0.11063632690E+02  0.18726368301E+02  0.00000000000E+00 0.  1.
         11    1    3    3    0    0 -0.47650736932E+01  0.48153186569E+01 -0.20667456864E+02  0.21749413660E+02  0.51100000000E-03 0. -1.
        -11    1    3    3    0    0  0.19727872745E+02  0.11995289930E+01  0.34857303523E+01  0.20069333552E+02  0.51100000000E-03 0.  1.
         12    1    3    3    0    0 -0.23863209759E+02 -0.18223680137E+02  0.61180938219E+01  0.30642884488E+02  0.00000000000E+00 0. -1.
</event>
<event>
 7    1  0.2809593E-013  0.7246155E+02  0.7816164E-02  0.1226708E+00
        -11   -1    0    0    0    0  0.00000000000E+00  0.00000000000E+00  0.45593999997E+02  0.45594000000E+02  0.51100000000E-03 0. -1.
         11   -1    0    0    0    0 -0.00000000000E+00 -0.00000000000E+00 -0.45593999997E+02  0.45594000000E+02  0.51100000000E-03 0.  1.
    9900012    2    1    2    0    0  0.73943495760E+01  0.15624528984E+02  0.72026075541E+01  0.72461551666E+02  0.69999975734E+02 0.  0.
        -12    1    1    2    0    0 -0.73943495760E+01 -0.15624528984E+02 -0.72026075541E+01  0.18726448334E+02  0.00000000000E+00 0.  1.
         11    1    3    3    0    0  0.11860922208E+02  0.18487525263E+02  0.31621662270E+02  0.38501942690E+02  0.51100000000E-03 0. -1.
        -11    1    3    3    0    0 -0.42787646315E+01  0.17216204889E+01  0.34219944240E+01  0.57429826727E+01  0.51100000000E-03 0.  1.
        -12    1    3    3    0    0 -0.18780800008E+00 -0.45846167677E+01 -0.27841049140E+02  0.28216626304E+02  0.00000000000E+00 0.  1.
</event>
<event>
 7    1  0.2809593E-013  0.7246154E+02  0.7816164E-02  0.1226708E+00
        -11   -1    0    0    0    0  0.00000000000E+00  0.00000000000E+00  0.45593999997E+02  0.45594000000E+02  0.51100000000E-03 0. -1.
         11   -1    0    0    0    0 -0.00000000000E+00 -0.00000000000E+00 -0.45593999997E+02  0.45594000000E+02  0.51100000000E-03 0.  1.
    9900012    2    1    2    0    0  0.11642085365E+02  0.42090732508E+01  0.14050836770E+02  0.72461535753E+02  0.69999955003E+02 0.  0.
        -12    1    1    2    0    0 -0.11642085365E+02 -0.42090732508E+01 -0.14050836770E+02  0.18726464247E+02  0.00000000000E+00 0.  1.
         11    1    3    3    0    0  0.30495312245E+02  0.75156482809E+01  0.18118266812E+02  0.36259076526E+02  0.51100000000E-03 0. -1.
        -11    1    3    3    0    0 -0.12605507478E+02  0.11430718559E+02  0.50897011977E+01  0.17761340155E+02  0.51100000000E-03 0.  1.
        -12    1    3    3    0    0 -0.62477194025E+01 -0.14737293589E+02 -0.91571312404E+01  0.18441119072E+02  0.00000000000E+00 0.  1.
</event>
<event>
 7    1  0.2809593E-013  0.7246150E+02  0.7816164E-02  0.1226708E+00
        -11   -1    0    0    0    0  0.00000000000E+00  0.00000000000E+00  0.45593999997E+02  0.45594000000E+02  0.51100000000E-03 0. -1.
         11   -1    0    0    0    0 -0.00000000000E+00 -0.00000000000E+00 -0.45593999997E+02  0.45594000000E+02  0.51100000000E-03 0.  1.
    9900012    2    1    2    0    0 -0.31718811825E+01  0.95468883053E+01  0.15794874594E+02  0.72461495522E+02  0.69999902594E+02 0.  0.
        -12    1    1    2    0    0  0.31718811825E+01 -0.95468883053E+01 -0.15794874594E+02  0.18726504478E+02  0.00000000000E+00 0.  1.
         11    1    3    3    0    0 -0.44370326156E+01 -0.13715047936E+02  0.57967297621E+01  0.15536790998E+02  0.51100000000E-03 0. -1.
        -11    1    3    3    0    0  0.11892102318E+02  0.24609298325E+02 -0.13952767901E+02  0.30687446847E+02  0.51100000000E-03 0.  1.
         12    1    3    3    0    0 -0.10626950884E+02 -0.13473620843E+01  0.23950912733E+02  0.26237257677E+02  0.00000000000E+00 0. -1.
</event>
<event>
 7    1  0.2809593E-013  0.7246153E+02  0.7816164E-02  0.1226708E+00
        -11   -1    0    0    0    0  0.00000000000E+00  0.00000000000E+00  0.45593999997E+02  0.45594000000E+02  0.51100000000E-03 0.  1.
         11   -1    0    0    0    0 -0.00000000000E+00 -0.00000000000E+00 -0.45593999997E+02  0.45594000000E+02  0.51100000000E-03 0. -1.
    9900012    2    1    2    0    0  0.11377407223E+01  0.73034415270E+01 -0.17205983474E+02  0.72461532650E+02  0.69999950962E+02 0.  0.
        -12    1    1    2    0    0 -0.11377407223E+01 -0.73034415270E+01  0.17205983474E+02  0.18726467350E+02  0.00000000000E+00 0.  1.
         11    1    3    3    0    0 -0.12329371644E+02 -0.17983258828E+02 -0.95626551868E+01  0.23808724823E+02  0.51100000000E-03 0. -1.
        -11    1    3    3    0    0  0.65864462393E+01 -0.90815936593E+01 -0.76922558849E+01  0.13602478389E+02  0.51100000000E-03 0.  1.
         12    1    3    3    0    0  0.68806661273E+01  0.34368294015E+02  0.48927597830E-01  0.35050329438E+02  0.00000000000E+00 0. -1.
</event>
<event>
 7    1  0.2809593E-013  0.7246155E+02  0.7816164E-02  0.1226708E+00
        -11   -1    0    0    0    0  0.00000000000E+00  0.00000000000E+00  0.45593999997E+02  0.45594000000E+02  0.51100000000E-03 0.  1.
         11   -1    0    0    0    0 -0.00000000000E+00 -0.00000000000E+00 -0.45593999997E+02  0.45594000000E+02  0.51100000000E-03 0. -1.
    9900012    2    1    2    0    0  0.16633285493E+02 -0.50907504085E+01  0.69352756694E+01  0.72461548798E+02  0.69999971996E+02 0.  0.
        -12    1    1    2    0    0 -0.16633285493E+02  0.50907504085E+01 -0.69352756694E+01  0.18726451202E+02  0.00000000000E+00 0.  1.
         11    1    3    3    0    0  0.23936792186E+02 -0.21881252547E+02 -0.88660798263E+01  0.33620925106E+02  0.51100000000E-03 0. -1.
        -11    1    3    3    0    0  0.31289962929E+00 -0.79456605231E+01  0.91401023452E+01  0.12114986524E+02  0.51100000000E-03 0.  1.
        -12    1    3    3    0    0 -0.76164063222E+01  0.24736162662E+02  0.66612531504E+01  0.26725637168E+02  0.00000000000E+00 0.  1.
</event>
<event>
 7    1  0.2809593E-013  0.7246156E+02  0.7816164E-02  0.1226708E+00
        -11   -1    0    0    0    0  0.00000000000E+00  0.00000000000E+00  0.45593999997E+02  0.45594000000E+02  0.51100000000E-03 0. -1.
         11   -1    0    0    0    0 -0.00000000000E+00 -0.00000000000E+00 -0.45593999997E+02  0.45594000000E+02  0.51100000000E-03 0.  1.
    9900012    2    1    2    0    0 -0.46605742658E+01  0.10130277563E+02  0.15044474311E+02  0.72461556577E+02  0.69999982130E+02 0.  0.
        -12    1    1    2    0    0  0.46605742658E+01 -0.10130277563E+02 -0.15044474311E+02  0.18726443423E+02  0.00000000000E+00 0.  1.
         11    1    3    3    0    0 -0.28310733852E+01 -0.27617868817E+01 -0.26281228051E+01  0.47486285422E+01  0.51100000000E-03 0. -1.
        -11    1    3    3    0    0 -0.21984420240E+02 -0.69475539958E+00 -0.15267959044E+02  0.26775137571E+02  0.51100000000E-03 0.  1.
         12    1    3    3    0    0  0.20154919359E+02  0.13586819844E+02  0.32940556160E+02  0.40937790463E+02  0.00000000000E+00 0. -1.
</event>
<event>
 7    1  0.3217341E-013  0.7246154E+02  0.7816164E-02  0.1226708E+00
        -11   -1    0    0    0    0  0.00000000000E+00  0.00000000000E+00  0.45593999997E+02  0.45594000000E+02  0.51100000000E-03 0. -1.
         11   -1    0    0    0    0 -0.00000000000E+00 -0.00000000000E+00 -0.45593999997E+02  0.45594000000E+02  0.51100000000E-03 0.  1.
    9900012    2    1    2    0    0  0.14192537127E+02 -0.19667492264E+01  0.12057528779E+02  0.72461542437E+02  0.69999963710E+02 0.  0.
        -12    1    1    2    0    0 -0.14192537127E+02  0.19667492264E+01 -0.12057528779E+02  0.18726457563E+02  0.00000000000E+00 0.  1.
         11    1    3    3    0    0  0.14931884652E+02 -0.86482768219E+01  0.33177687345E+02  0.37396695163E+02  0.51100000000E-03 0. -1.
        -11    1    3    3    0    0 -0.30620418365E+01 -0.86462768957E+01 -0.39228927979E+00  0.91808548352E+01  0.51100000000E-03 0.  1.
        -12    1    3    3    0    0  0.23226943116E+01  0.15327804491E+02 -0.20727869287E+02  0.25883992439E+02  0.00000000000E+00 0.  1.
</event>
<event>
 7    1  0.2809593E-013  0.7246153E+02  0.7816164E-02  0.1226708E+00
        -11   -1    0    0    0    0  0.00000000000E+00  0.00000000000E+00  0.45593999997E+02  0.45594000000E+02  0.51100000000E-03 0.  1.
         11   -1    0    0    0    0 -0.00000000000E+00 -0.00000000000E+00 -0.45593999997E+02  0.45594000000E+02  0.51100000000E-03 0. -1.
    9900012    2    1    2    0    0  0.21799570724E+01 -0.18429803482E+02 -0.25041400842E+01  0.72461532453E+02  0.69999950705E+02 0.  0.
        -12    1    1    2    0    0 -0.21799570724E+01  0.18429803482E+02  0.25041400842E+01  0.18726467547E+02  0.00000000000E+00 0.  1.
         11    1    3    3    0    0 -0.58503875000E+00  0.70623082019E+01  0.36140907046E+01  0.79548802228E+01  0.51100000000E-03 0. -1.
        -11    1    3    3    0    0 -0.24605253746E+02 -0.17947633208E+02  0.97549742958E+01  0.31979611840E+02  0.51100000000E-03 0.  1.
         12    1    3    3    0    0  0.27370249568E+02 -0.75444784755E+01 -0.15873205085E+02  0.32527040390E+02  0.00000000000E+00 0. -1.
</event>
<event>
 7    1  0.2809593E-013  0.7246164E+02  0.7816164E-02  0.1226708E+00
        -11   -1    0    0    0    0  0.00000000000E+00  0.00000000000E+00  0.45593999997E+02  0.45594000000E+02  0.51100000000E-03 0.  1.
         11   -1    0    0    0    0 -0.00000000000E+00 -0.00000000000E+00 -0.45593999997E+02  0.45594000000E+02  0.51100000000E-03 0. -1.
    9900012    2    1    2    0    0  0.10661171449E+01  0.14321103387E+02 -0.12018566389E+02  0.72461640342E+02  0.70000091250E+02 0.  0.
        -12    1    1    2    0    0 -0.10661171449E+01 -0.14321103387E+02  0.12018566389E+02  0.18726359658E+02  0.00000000000E+00 0.  1.
         11    1    3    3    0    0 -0.74018428993E+01  0.22833410168E+01  0.36445880173E+01  0.85606043350E+01  0.51100000000E-03 0. -1.
        -11    1    3    3    0    0 -0.21541627230E+02  0.18816595741E+02  0.15552644399E+01  0.28644804533E+02  0.51100000000E-03 0.  1.
        -12    1    3    3    0    0  0.30009587274E+02 -0.67788333708E+01 -0.17218418846E+02  0.35256231474E+02  0.00000000000E+00 0.  1.
</event>
<event>
 7    1  0.2809593E-013  0.7246157E+02  0.7816164E-02  0.1226708E+00
        -11   -1    0    0    0    0  0.00000000000E+00  0.00000000000E+00  0.45593999997E+02  0.45594000000E+02  0.51100000000E-03 0.  1.
         11   -1    0    0    0    0 -0.00000000000E+00 -0.00000000000E+00 -0.45593999997E+02  0.45594000000E+02  0.51100000000E-03 0. -1.
    9900012    2    1    2    0    0  0.21442808557E+00 -0.14186331491E+01 -0.18671385318E+02  0.72461571373E+02  0.70000001405E+02 0.  0.
        -12    1    1    2    0    0 -0.21442808557E+00  0.14186331491E+01  0.18671385318E+02  0.18726428627E+02  0.00000000000E+00 0.  1.
         11    1    3    3    0    0 -0.25552590178E+02 -0.11970631273E+02 -0.74959923222E+01  0.29196245975E+02  0.51100000000E-03 0. -1.
        -11    1    3    3    0    0  0.41774720417E+01 -0.57223567095E+01 -0.14388975093E+02  0.16038679605E+02  0.51100000000E-03 0.  1.
        -12    1    3    3    0    0  0.21589546221E+02  0.16274354833E+02  0.32135820974E+01  0.27226645794E+02  0.00000000000E+00 0.  1.
</event>
<event>
 7    1  0.2809593E-013  0.7246156E+02  0.7816164E-02  0.1226708E+00
        -11   -1    0    0    0    0  0.00000000000E+00  0.00000000000E+00  0.45593999997E+02  0.45594000000E+02  0.51100000000E-03 0. -1.
         11   -1    0    0    0    0 -0.00000000000E+00 -0.00000000000E+00 -0.45593999997E+02  0.45594000000E+02  0.51100000000E-03 0.  1.
    9900012    2    1    2    0    0 -0.47123640000E+01 -0.46216521963E+01  0.17524655287E+02  0.72461559163E+02  0.69999985500E+02 0.  0.
        -12    1    1    2    0    0  0.47123640000E+01  0.46216521963E+01 -0.17524655287E+02  0.18726440837E+02  0.00000000000E+00 0.  1.
         11    1    3    3    0    0  0.12868995227E+02  0.95663986330E+01  0.25426622163E+02  0.30060607709E+02  0.51100000000E-03 0. -1.
        -11    1    3    3    0    0 -0.15831954261E+02 -0.81147953463E+01  0.12039831269E+02  0.21481578538E+02  0.51100000000E-03 0.  1.
        -12    1    3    3    0    0 -0.17494049657E+01 -0.60732554830E+01 -0.19941798146E+02  0.20919372916E+02  0.00000000000E+00 0.  1.
</event>
<event>
 7    1  0.2809593E-013  0.7246157E+02  0.7816164E-02  0.1226708E+00
        -11   -1    0    0    0    0  0.00000000000E+00  0.00000000000E+00  0.45593999997E+02  0.45594000000E+02  0.51100000000E-03 0.  1.
         11   -1    0    0    0    0 -0.00000000000E+00 -0.00000000000E+00 -0.45593999997E+02  0.45594000000E+02  0.51100000000E-03 0. -1.
    9900012    2    1    2    0    0 -0.12639723759E+02 -0.84023198783E+01 -0.10968937410E+02  0.72461569909E+02  0.69999999498E+02 0.  0.
        -12    1    1    2    0    0  0.12639723759E+02  0.84023198783E+01  0.10968937410E+02  0.18726430091E+02  0.00000000000E+00 0.  1.
         11    1    3    3    0    0  0.89331265866E+00 -0.46577079929E+01 -0.26121894632E+02  0.26548928993E+02  0.51100000000E-03 0. -1.
        -11    1    3    3    0    0  0.35011226045E+01 -0.84418689834E+01 -0.11030523621E+02  0.14324645302E+02  0.51100000000E-03 0.  1.
         12    1    3    3    0    0 -0.17034159022E+02  0.46972570980E+01  0.26183480843E+02  0.31587995614E+02  0.00000000000E+00 0. -1.
</event>
<event>
 7    1  0.2809593E-013  0.7246159E+02  0.7816164E-02  0.1226708E+00
        -11   -1    0    0    0    0  0.00000000000E+00  0.00000000000E+00  0.45593999997E+02  0.45594000000E+02  0.51100000000E-03 0.  1.
         11   -1    0    0    0    0 -0.00000000000E+00 -0.00000000000E+00 -0.45593999997E+02  0.45594000000E+02  0.51100000000E-03 0. -1.
    9900012    2    1    2    0    0 -0.50891971680E+01  0.93418995015E+01 -0.15411275063E+02  0.72461590489E+02  0.70000026307E+02 0.  0.
        -12    1    1    2    0    0  0.50891971680E+01 -0.93418995015E+01  0.15411275063E+02  0.18726409511E+02  0.00000000000E+00 0.  1.
         11    1    3    3    0    0  0.24460072675E+02 -0.33754410239E-01 -0.66634679028E+01  0.25351491068E+02  0.51100000000E-03 0. -1.
        -11    1    3    3    0    0 -0.34757824459E+00 -0.10084368630E+02  0.22445128547E+01  0.10336979226E+02  0.51100000000E-03 0.  1.
        -12    1    3    3    0    0 -0.29201691598E+02  0.19460022542E+02 -0.10992320015E+02  0.36773120195E+02  0.00000000000E+00 0.  1.
</event>
<event>
 7    1  0.2809593E-013  0.7246162E+02  0.7816164E-02  0.1226708E+00
        -11   -1    0    0    0    0  0.00000000000E+00  0.00000000000E+00  0.45593999997E+02  0.45594000000E+02  0.51100000000E-03 0. -1.
         11   -1    0    0    0    0 -0.00000000000E+00 -0.00000000000E+00 -0.45593999997E+02  0.45594000000E+02  0.51100000000E-03 0.  1.
    9900012    2    1    2    0    0  0.98965801865E+01  0.15160622010E+02 -0.47844252917E+01  0.72461615285E+02  0.70000058609E+02 0.  0.
        -12    1    1    2    0    0 -0.98965801865E+01 -0.15160622010E+02  0.47844252917E+01  0.18726384715E+02  0.00000000000E+00 0.  1.
         11    1    3    3    0    0 -0.74614264299E+01  0.26252908484E+02  0.23330168426E+02  0.35905220334E+02  0.51100000000E-03 0. -1.
        -11    1    3    3    0    0 -0.14378163626E+01 -0.20563453821E+01 -0.29062388620E+01  0.38395438280E+01  0.51100000000E-03 0.  1.
        -12    1    3    3    0    0  0.18795822979E+02 -0.90359410917E+01 -0.25208354855E+02  0.32716851123E+02  0.00000000000E+00 0.  1.
</event>
<event>
 7    1  0.2809593E-013  0.7246162E+02  0.7816164E-02  0.1226708E+00
        -11   -1    0    0    0    0  0.00000000000E+00  0.00000000000E+00  0.45593999997E+02  0.45594000000E+02  0.51100000000E-03 0.  1.
         11   -1    0    0    0    0 -0.00000000000E+00 -0.00000000000E+00 -0.45593999997E+02  0.45594000000E+02  0.51100000000E-03 0. -1.
    9900012    2    1    2    0    0  0.12956265729E+02 -0.12634581340E+02 -0.48145344244E+01  0.72461622640E+02  0.70000068190E+02 0.  0.
        -12    1    1    2    0    0 -0.12956265729E+02  0.12634581340E+02  0.48145344244E+01  0.18726377360E+02  0.00000000000E+00 0.  1.
         11    1    3    3    0    0  0.57332698866E+01  0.13450701816E+02  0.11857558088E+02  0.18825340555E+02  0.51100000000E-03 0. -1.
        -11    1    3    3    0    0  0.11769190645E+02 -0.70614577069E+01  0.12466537379E+02  0.18541644691E+02  0.51100000000E-03 0.  1.
        -12    1    3    3    0    0 -0.45461948018E+01 -0.19023825450E+02 -0.29138629891E+02  0.35094637394E+02  0.00000000000E+00 0.  1.
</event>
<event>
 7    1  0.2809593E-013  0.7246157E+02  0.7816164E-02  0.1226708E+00
        -11   -1    0    0    0    0  0.00000000000E+00  0.00000000000E+00  0.45593999997E+02  0.45594000000E+02  0.51100000000E-03 0.  1.
         11   -1    0    0    0    0 -0.00000000000E+00 -0.00000000000E+00 -0.45593999997E+02  0.45594000000E+02  0.51100000000E-03 0. -1.
    9900012    2    1    2    0    0  0.16028978587E+02 -0.37246136578E+00 -0.96753410799E+01  0.72461571963E+02  0.70000002174E+02 0.  0.
        -12    1    1    2    0    0 -0.16028978587E+02  0.37246136578E+00  0.96753410799E+01  0.18726428037E+02  0.00000000000E+00 0.  1.
         11    1    3    3    0    0  0.31162851165E+02 -0.19887552468E+02  0.10603413352E+01  0.36983271353E+02  0.51100000000E-03 0. -1.
        -11    1    3    3    0    0  0.55762615668E+00  0.67705027102E+01 -0.13463222282E+02  0.15080086484E+02  0.51100000000E-03 0.  1.
        -12    1    3    3    0    0 -0.15691498735E+02  0.12744588392E+02  0.27275398670E+01  0.20398214127E+02  0.00000000000E+00 0.  1.
</event>
<event>
 7    1  0.2809593E-013  0.7246157E+02  0.7816164E-02  0.1226708E+00
        -11   -1    0    0    0    0  0.00000000000E+00  0.00000000000E+00  0.45593999997E+02  0.45594000000E+02  0.51100000000E-03 0.  1.
         11   -1    0    0    0    0 -0.00000000000E+00 -0.00000000000E+00 -0.45593999997E+02  0.45594000000E+02  0.51100000000E-03 0. -1.
    9900012    2    1    2    0    0 -0.15058777787E+02 -0.64004319801E+01 -0.91075270017E+01  0.72461565047E+02  0.69999993164E+02 0.  0.
        -12    1    1    2    0    0  0.15058777787E+02  0.64004319801E+01  0.91075270017E+01  0.18726434953E+02  0.00000000000E+00 0.  1.
         11    1    3    3    0    0  0.17525870641E+02 -0.12001183310E+02 -0.11351737827E+02  0.24084154428E+02  0.51100000000E-03 0. -1.
        -11    1    3    3    0    0 -0.10583469917E+02 -0.13652542746E+02  0.72174703719E+01  0.18721475308E+02  0.51100000000E-03 0.  1.
        -12    1    3    3    0    0 -0.22001178511E+02  0.19253294076E+02 -0.49732595467E+01  0.29655935311E+02  0.00000000000E+00 0.  1.
</event>
<event>
 7    1  0.2809593E-013  0.7246155E+02  0.7816164E-02  0.1226708E+00
        -11   -1    0    0    0    0  0.00000000000E+00  0.00000000000E+00  0.45593999997E+02  0.45594000000E+02  0.51100000000E-03 0.  1.
         11   -1    0    0    0    0 -0.00000000000E+00 -0.00000000000E+00 -0.45593999997E+02  0.45594000000E+02  0.51100000000E-03 0. -1.
    9900012    2    1    2    0    0 -0.96178382298E+01 -0.21569661348E+01 -0.15922458996E+02  0.72461547704E+02  0.69999970572E+02 0.  0.
        -12    1    1    2    0    0  0.96178382298E+01  0.21569661348E+01  0.15922458996E+02  0.18726452296E+02  0.00000000000E+00 0.  1.
         11    1    3    3    0    0 -0.95191223620E+01 -0.40313554819E+01  0.21447053509E+02  0.23808435942E+02  0.51100000000E-03 0. -1.
        -11    1    3    3    0    0  0.33384935005E+01 -0.42792529704E+01  0.39652657941E+01  0.67216722559E+01  0.51100000000E-03 0.  1.
         12    1    3    3    0    0 -0.34372093683E+01  0.61536423174E+01 -0.41334778299E+02  0.41931439506E+02  0.00000000000E+00 0. -1.
</event>
<event>
 7    1  0.2809593E-013  0.7246155E+02  0.7816164E-02  0.1226708E+00
        -11   -1    0    0    0    0  0.00000000000E+00  0.00000000000E+00  0.45593999997E+02  0.45594000000E+02  0.51100000000E-03 0.  1.
         11   -1    0    0    0    0 -0.00000000000E+00 -0.00000000000E+00 -0.45593999997E+02  0.45594000000E+02  0.51100000000E-03 0. -1.
    9900012    2    1    2    0    0 -0.78866133227E+00 -0.74618833138E+01 -0.17157449652E+02  0.72461554318E+02  0.69999979188E+02 0.  0.
        -12    1    1    2    0    0  0.78866133227E+00  0.74618833138E+01  0.17157449652E+02  0.18726445682E+02  0.00000000000E+00 0.  1.
         11    1    3    3    0    0  0.69895885834E+01  0.12728344698E+02 -0.28285595969E+02  0.31795283406E+02  0.51100000000E-03 0. -1.
        -11    1    3    3    0    0 -0.13333938698E+02 -0.14551585273E+02 -0.69550407866E+01  0.20926422240E+02  0.51100000000E-03 0.  1.
        -12    1    3    3    0    0  0.55556887826E+01 -0.56386427388E+01  0.18083187103E+02  0.19739848672E+02  0.00000000000E+00 0.  1.
</event>
<event>
 7    1  0.2809593E-013  0.7246186E+02  0.7816164E-02  0.1226707E+00
        -11   -1    0    0    0    0  0.00000000000E+00  0.00000000000E+00  0.45593999997E+02  0.45594000000E+02  0.51100000000E-03 0. -1.
         11   -1    0    0    0    0 -0.00000000000E+00 -0.00000000000E+00 -0.45593999997E+02  0.45594000000E+02  0.51100000000E-03 0.  1.
    9900012    2    1    2    0    0  0.18548438870E+02  0.25201665805E+01  0.52193903541E+00  0.72461861998E+02  0.70000379997E+02 0.  0.
        -12    1    1    2    0    0 -0.18548438870E+02 -0.25201665805E+01 -0.52193903541E+00  0.18726138002E+02  0.00000000000E+00 0.  1.
         11    1    3    3    0    0 -0.18510603829E+02 -0.33427756520E+01  0.17965140978E+02  0.26010822628E+02  0.51100000000E-03 0.  1.
        -11    1    3    3    0    0  0.21453006475E+02 -0.36913467057E+01 -0.90608599770E+00  0.21787118199E+02  0.51100000000E-03 0. -1.
        -12    1    3    3    0    0  0.15606036224E+02  0.95542889382E+01 -0.16537115945E+02  0.24663921171E+02  0.00000000000E+00 0.  1.
</event>
<event>
 7    1  0.2809593E-013  0.7246147E+02  0.7816164E-02  0.1226708E+00
        -11   -1    0    0    0    0  0.00000000000E+00  0.00000000000E+00  0.45593999997E+02  0.45594000000E+02  0.51100000000E-03 0.  1.
         11   -1    0    0    0    0 -0.00000000000E+00 -0.00000000000E+00 -0.45593999997E+02  0.45594000000E+02  0.51100000000E-03 0. -1.
    9900012    2    1    2    0    0 -0.76509094321E-01  0.18694512872E+02  0.10918245684E+01  0.72461474801E+02  0.69999875602E+02 0.  0.
        -12    1    1    2    0    0  0.76509094321E-01 -0.18694512872E+02 -0.10918245684E+01  0.18726525199E+02  0.00000000000E+00 0.  1.
         11    1    3    3    0    0 -0.95129774279E+01  0.31268652957E+01  0.49212215063E+01  0.11157618361E+02  0.51100000000E-03 0. -1.
        -11    1    3    3    0    0 -0.24624020972E+02  0.91769009841E+01 -0.44001377285E+01  0.26644307700E+02  0.51100000000E-03 0.  1.
         12    1    3    3    0    0  0.34060489306E+02  0.63907465920E+01  0.57074079054E+00  0.34659548739E+02  0.00000000000E+00 0. -1.
</event>
<event>
 7    1  0.2809593E-013  0.7246154E+02  0.7816164E-02  0.1226708E+00
        -11   -1    0    0    0    0  0.00000000000E+00  0.00000000000E+00  0.45593999997E+02  0.45594000000E+02  0.51100000000E-03 0.  1.
         11   -1    0    0    0    0 -0.00000000000E+00 -0.00000000000E+00 -0.45593999997E+02  0.45594000000E+02  0.51100000000E-03 0. -1.
    9900012    2    1    2    0    0  0.86377877099E+01 -0.12531484631E+02 -0.10910125572E+02  0.72461539481E+02  0.69999959860E+02 0.  0.
        -12    1    1    2    0    0 -0.86377877099E+01  0.12531484631E+02  0.10910125572E+02  0.18726460519E+02  0.00000000000E+00 0.  1.
         11    1    3    3    0    0 -0.46533604409E+01  0.14775099988E+02 -0.28280175732E+01  0.15746587779E+02  0.51100000000E-03 0. -1.
        -11    1    3    3    0    0  0.52336946081E+01 -0.38434985030E+02  0.32218920087E+01  0.38923260679E+02  0.51100000000E-03 0.  1.
         12    1    3    3    0    0  0.80574535428E+01  0.11128400411E+02 -0.11304000007E+02  0.17791691023E+02  0.00000000000E+00 0. -1.
</event>
<event>
 7    1  0.2809593E-013  0.7246152E+02  0.7816164E-02  0.1226708E+00
        -11   -1    0    0    0    0  0.00000000000E+00  0.00000000000E+00  0.45593999997E+02  0.45594000000E+02  0.51100000000E-03 0. -1.
         11   -1    0    0    0    0 -0.00000000000E+00 -0.00000000000E+00 -0.45593999997E+02  0.45594000000E+02  0.51100000000E-03 0.  1.
    9900012    2    1    2    0    0 -0.17014970825E+02  0.71259284699E+01  0.32238220336E+01  0.72461518290E+02  0.69999932255E+02 0.  0.
        -12    1    1    2    0    0  0.17014970825E+02 -0.71259284699E+01 -0.32238220336E+01  0.18726481710E+02  0.00000000000E+00 0.  1.
         11    1    3    3    0    0  0.17410671715E+01 -0.32444497890E+01 -0.43060391737E+01  0.56656635053E+01  0.51100000000E-03 0. -1.
        -11    1    3    3    0    0 -0.34915715497E+02  0.17019208821E+02 -0.11938062680E+02  0.40635920051E+02  0.51100000000E-03 0.  1.
         12    1    3    3    0    0  0.16159677501E+02 -0.66488305622E+01  0.19467923887E+02  0.26159934734E+02  0.00000000000E+00 0. -1.
</event>
<event>
 7    1  0.2809593E-013  0.7246151E+02  0.7816164E-02  0.1226708E+00
        -11   -1    0    0    0    0  0.00000000000E+00  0.00000000000E+00  0.45593999997E+02  0.45594000000E+02  0.51100000000E-03 0.  1.
         11   -1    0    0    0    0 -0.00000000000E+00 -0.00000000000E+00 -0.45593999997E+02  0.45594000000E+02  0.51100000000E-03 0. -1.
    9900012    2    1    2    0    0  0.12612413706E+02 -0.13223316127E+02 -0.40929654510E+01  0.72461509804E+02  0.69999921200E+02 0.  0.
        -12    1    1    2    0    0 -0.12612413706E+02  0.13223316127E+02  0.40929654510E+01  0.18726490196E+02  0.00000000000E+00 0.  1.
         11    1    3    3    0    0 -0.12858120351E+02 -0.11209039616E+02 -0.55557947726E+01  0.17939918726E+02  0.51100000000E-03 0. -1.
        -11    1    3    3    0    0 -0.24585133249E+01 -0.19109651752E+02  0.84500489020E+01  0.21038688280E+02  0.51100000000E-03 0.  1.
         12    1    3    3    0    0  0.27929047382E+02  0.17095375242E+02 -0.69872195805E+01  0.33482902798E+02  0.00000000000E+00 0. -1.
</event>
<event>
 7    1  0.2809593E-013  0.7246161E+02  0.7816164E-02  0.1226708E+00
        -11   -1    0    0    0    0  0.00000000000E+00  0.00000000000E+00  0.45593999997E+02  0.45594000000E+02  0.51100000000E-03 0. -1.
         11   -1    0    0    0    0 -0.00000000000E+00 -0.00000000000E+00 -0.45593999997E+02  0.45594000000E+02  0.51100000000E-03 0.  1.
    9900012    2    1    2    0    0  0.18543580564E+02 -0.56623125081E+00 -0.25481083102E+01  0.72461605421E+02  0.70000045759E+02 0.  0.
        -12    1    1    2    0    0 -0.18543580564E+02  0.56623125081E+00  0.25481083102E+01  0.18726394579E+02  0.00000000000E+00 0.  1.
         11    1    3    3    0    0  0.44463428414E+01 -0.93254771321E+01  0.24991923017E+02  0.27043126756E+02  0.51100000000E-03 0. -1.
        -11    1    3    3    0    0  0.10653921239E+02 -0.11270357639E+02 -0.91323185192E+01  0.17997951019E+02  0.51100000000E-03 0.  1.
        -12    1    3    3    0    0  0.34433164837E+01  0.20029603520E+02 -0.18407712808E+02  0.27420527646E+02  0.00000000000E+00 0.  1.
</event>
<event>
 7    1  0.2809593E-013  0.7246159E+02  0.7816164E-02  0.1226708E+00
        -11   -1    0    0    0    0  0.00000000000E+00  0.00000000000E+00  0.45593999997E+02  0.45594000000E+02  0.51100000000E-03 0. -1.
         11   -1    0    0    0    0 -0.00000000000E+00 -0.00000000000E+00 -0.45593999997E+02  0.45594000000E+02  0.51100000000E-03 0.  1.
    9900012    2    1    2    0    0 -0.50070741254E+01  0.33153733691E+01  0.17737417723E+02  0.72461588722E+02  0.70000024006E+02 0.  0.
        -12    1    1    2    0    0  0.50070741254E+01 -0.33153733691E+01 -0.17737417723E+02  0.18726411278E+02  0.00000000000E+00 0.  1.
         11    1    3    3    0    0  0.52388716566E+01  0.78839737116E+01 -0.15471304773E+01  0.95914769819E+01  0.51100000000E-03 0. -1.
        -11    1    3    3    0    0  0.14295517912E+02  0.11370498864E+02 -0.10538301009E+02  0.21088050294E+02  0.51100000000E-03 0.  1.
        -12    1    3    3    0    0 -0.24541463694E+02 -0.15939099206E+02  0.29822849210E+02  0.41782061446E+02  0.00000000000E+00 0.  1.
</event>
<event>
 7    1  0.2809593E-013  0.7246158E+02  0.7816164E-02  0.1226708E+00
        -11   -1    0    0    0    0  0.00000000000E+00  0.00000000000E+00  0.45593999997E+02  0.45594000000E+02  0.51100000000E-03 0.  1.
         11   -1    0    0    0    0 -0.00000000000E+00 -0.00000000000E+00 -0.45593999997E+02  0.45594000000E+02  0.51100000000E-03 0. -1.
    9900012    2    1    2    0    0  0.99162881351E+01 -0.49229893108E+01 -0.15103316983E+02  0.72461580748E+02  0.70000013617E+02 0.  0.
        -12    1    1    2    0    0 -0.99162881351E+01  0.49229893108E+01  0.15103316983E+02  0.18726419252E+02  0.00000000000E+00 0.  1.
         11    1    3    3    0    0  0.96048062473E+01  0.14007144195E+02 -0.37088938366E+01  0.17384138900E+02  0.51100000000E-03 0. -1.
        -11    1    3    3    0    0 -0.11651260595E+02 -0.62463305411E+01  0.17135125679E+02  0.21642112905E+02  0.51100000000E-03 0.  1.
        -12    1    3    3    0    0  0.11962742483E+02 -0.12683802964E+02 -0.28529548825E+02  0.33435328943E+02  0.00000000000E+00 0.  1.
</event>
<event>
 7    1  0.2809593E-013  0.7246156E+02  0.7816164E-02  0.1226708E+00
        -11   -1    0    0    0    0  0.00000000000E+00  0.00000000000E+00  0.45593999997E+02  0.45594000000E+02  0.51100000000E-03 0.  1.
         11   -1    0    0    0    0 -0.00000000000E+00 -0.00000000000E+00 -0.45593999997E+02  0.45594000000E+02  0.51100000000E-03 0. -1.
    9900012    2    1    2    0    0 -0.17256051341E+02  0.70444528419E+01 -0.18121207565E+01  0.72461563997E+02  0.69999991797E+02 0.  0.
        -12    1    1    2    0    0  0.17256051341E+02 -0.70444528419E+01  0.18121207565E+01  0.18726436003E+02  0.00000000000E+00 0.  1.
         11    1    3    3    0    0 -0.46349747026E+01  0.24152918818E+02  0.69960063554E+01  0.25569328953E+02  0.51100000000E-03 0. -1.
        -11    1    3    3    0    0  0.39681444942E+01 -0.51456473639E+00 -0.20352454055E+02  0.20742066771E+02  0.51100000000E-03 0.  1.
        -12    1    3    3    0    0 -0.16589221132E+02 -0.16593901240E+02  0.11544326943E+02  0.26150168273E+02  0.00000000000E+00 0.  1.
</event>
<event>
 7    1  0.2809593E-013  0.7246153E+02  0.7816164E-02  0.1226708E+00
        -11   -1    0    0    0    0  0.00000000000E+00  0.00000000000E+00  0.45593999997E+02  0.45594000000E+02  0.51100000000E-03 0.  1.
         11   -1    0    0    0    0 -0.00000000000E+00 -0.00000000000E+00 -0.45593999997E+02  0.45594000000E+02  0.51100000000E-03 0. -1.
    9900012    2    1    2    0    0  0.88800056745E+01 -0.12240974625E+02 -0.11044660991E+02  0.72461534852E+02  0.69999953829E+02 0.  0.
        -12    1    1    2    0    0 -0.88800056745E+01  0.12240974625E+02  0.11044660991E+02  0.18726465148E+02  0.00000000000E+00 0.  1.
         11    1    3    3    0    0 -0.19642598359E+02  0.87548360252E+01  0.83830901441E+00  0.21521653895E+02  0.51100000000E-03 0. -1.
        -11    1    3    3    0    0  0.34882229075E+01  0.52344167908E+01  0.75292749737E+01  0.98110549934E+01  0.51100000000E-03 0.  1.
         12    1    3    3    0    0  0.25034381126E+02 -0.26230227441E+02 -0.19412244979E+02  0.41128825963E+02  0.00000000000E+00 0. -1.
</event>
<event>
 7    1  0.2809593E-013  0.7246176E+02  0.7816164E-02  0.1226707E+00
        -11   -1    0    0    0    0  0.00000000000E+00  0.00000000000E+00  0.45593999997E+02  0.45594000000E+02  0.51100000000E-03 0. -1.
         11   -1    0    0    0    0 -0.00000000000E+00 -0.00000000000E+00 -0.45593999997E+02  0.45594000000E+02  0.51100000000E-03 0.  1.
    9900012    2    1    2    0    0  0.38497218314E+01 -0.18292890914E+02  0.11052950227E+01  0.72461764573E+02  0.70000253084E+02 0.  0.
        -12    1    1    2    0    0 -0.38497218314E+01  0.18292890914E+02 -0.11052950227E+01  0.18726235427E+02  0.00000000000E+00 0.  1.
         11    1    3    3    0    0 -0.22169760890E+01 -0.44981539683E+01  0.52947864577E+01  0.72926768745E+01  0.51100000000E-03 0. -1.
        -11    1    3    3    0    0 -0.13078867181E+01 -0.24517126261E+02 -0.28486213480E+02  0.37606706935E+02  0.51100000000E-03 0.  1.
         12    1    3    3    0    0  0.73745846385E+01  0.10722389315E+02  0.24296722045E+02  0.27562380764E+02  0.00000000000E+00 0. -1.
</event>
<event>
 7    1  0.2809593E-013  0.7246156E+02  0.7816164E-02  0.1226708E+00
        -11   -1    0    0    0    0  0.00000000000E+00  0.00000000000E+00  0.45593999997E+02  0.45594000000E+02  0.51100000000E-03 0. -1.
         11   -1    0    0    0    0 -0.00000000000E+00 -0.00000000000E+00 -0.45593999997E+02  0.45594000000E+02  0.51100000000E-03 0.  1.
    9900012    2    1    2    0    0 -0.18691988171E+02  0.68515979307E+00 -0.90529640059E+00  0.72461563412E+02  0.69999991034E+02 0.  0.
        -12    1    1    2    0    0  0.18691988171E+02 -0.68515979307E+00  0.90529640059E+00  0.18726436588E+02  0.00000000000E+00 0.  1.
         11    1    3    3    0    0 -0.13050827044E+02  0.46417004248E+01 -0.19523417734E+01  0.13988606365E+02  0.51100000000E-03 0. -1.
        -11    1    3    3    0    0  0.30209804952E+01  0.54454672360E+01 -0.26968668304E+02  0.27678303903E+02  0.51100000000E-03 0.  1.
         12    1    3    3    0    0 -0.86621416218E+01 -0.94020078677E+01  0.28015713677E+02  0.30794653144E+02  0.00000000000E+00 0. -1.
</event>
<event>
 7    1  0.2809593E-013  0.7246156E+02  0.7816164E-02  0.1226708E+00
        -11   -1    0    0    0    0  0.00000000000E+00  0.00000000000E+00  0.45593999997E+02  0.45594000000E+02  0.51100000000E-03 0. -1.
         11   -1    0    0    0    0 -0.00000000000E+00 -0.00000000000E+00 -0.45593999997E+02  0.45594000000E+02  0.51100000000E-03 0.  1.
    9900012    2    1    2    0    0 -0.93793410846E+01 -0.98977669100E+01  0.12835180247E+02  0.72461556639E+02  0.69999982211E+02 0.  0.
        -12    1    1    2    0    0  0.93793410846E+01  0.98977669100E+01 -0.12835180247E+02  0.18726443361E+02  0.00000000000E+00 0.  1.
         11    1    3    3    0    0 -0.95854174625E+01 -0.26045952902E+02  0.25595801788E+02  0.37754694542E+02  0.51100000000E-03 0. -1.
        -11    1    3    3    0    0 -0.26563769842E+01 -0.20982180398E+01  0.69282506955E+01  0.77109996489E+01  0.51100000000E-03 0.  1.
        -12    1    3    3    0    0  0.28624533621E+01  0.18246404032E+02 -0.19688872237E+02  0.26995862448E+02  0.00000000000E+00 0.  1.
</event>
<event>
 7    1  0.2809593E-013  0.7246159E+02  0.7816164E-02  0.1226708E+00
        -11   -1    0    0    0    0  0.00000000000E+00  0.00000000000E+00  0.45593999997E+02  0.45594000000E+02  0.51100000000E-03 0.  1.
         11   -1    0    0    0    0 -0.00000000000E+00 -0.00000000000E+00 -0.45593999997E+02  0.45594000000E+02  0.51100000000E-03 0. -1.
    9900012    2    1    2    0    0 -0.28093335638E+00 -0.45431864941E+01 -0.18164776460E+02  0.72461586278E+02  0.70000020821E+02 0.  0.
        -12    1    1    2    0    0  0.28093335638E+00  0.45431864941E+01  0.18164776460E+02  0.18726413722E+02  0.00000000000E+00 0.  1.
         11    1    3    3    0    0 -0.14653647522E+02 -0.29245577015E+02 -0.88233981083E+01  0.33880459193E+02  0.51100000000E-03 0. -1.
        -11    1    3    3    0    0  0.29566072666E+01 -0.46638972189E+01  0.57072083429E+00  0.55515030693E+01  0.51100000000E-03 0.  1.
        -12    1    3    3    0    0  0.11416106899E+02  0.29366287740E+02 -0.99120991856E+01  0.33029624016E+02  0.00000000000E+00 0.  1.
</event>
<event>
 7    1  0.2809593E-013  0.7246157E+02  0.7816164E-02  0.1226708E+00
        -11   -1    0    0    0    0  0.00000000000E+00  0.00000000000E+00  0.45593999997E+02  0.45594000000E+02  0.51100000000E-03 0. -1.
         11   -1    0    0    0    0 -0.00000000000E+00 -0.00000000000E+00 -0.45593999997E+02  0.45594000000E+02  0.51100000000E-03 0.  1.
    9900012    2    1    2    0    0  0.29110757458E+01 -0.13284868976E+02  0.12873109403E+02  0.72461573448E+02  0.70000004108E+02 0.  0.
        -12    1    1    2    0    0 -0.29110757458E+01  0.13284868976E+02 -0.12873109403E+02  0.18726426552E+02  0.00000000000E+00 0.  1.
         11    1    3    3    0    0  0.14339519949E+02 -0.15784002019E+02 -0.16836216403E+02  0.27170107381E+02  0.51100000000E-03 0. -1.
        -11    1    3    3    0    0  0.82858302086E+01 -0.78085705002E+00 -0.12762595763E+01  0.84198312778E+01  0.51100000000E-03 0.  1.
        -12    1    3    3    0    0 -0.19714274411E+02  0.32799900928E+01  0.30985585382E+02  0.36871634789E+02  0.00000000000E+00 0.  1.
</event>
<event>
 7    1  0.2809593E-013  0.7246157E+02  0.7816164E-02  0.1226708E+00
        -11   -1    0    0    0    0  0.00000000000E+00  0.00000000000E+00  0.45593999997E+02  0.45594000000E+02  0.51100000000E-03 0. -1.
         11   -1    0    0    0    0 -0.00000000000E+00 -0.00000000000E+00 -0.45593999997E+02  0.45594000000E+02  0.51100000000E-03 0.  1.
    9900012    2    1    2    0    0 -0.70815304810E+01  0.17301627729E+02 -0.10884533578E+01  0.72461571437E+02  0.70000001488E+02 0.  0.
        -12    1    1    2    0    0  0.70815304810E+01 -0.17301627729E+02  0.10884533578E+01  0.18726428563E+02  0.00000000000E+00 0.  1.
         11    1    3    3    0    0 -0.75782383956E+01  0.22749559802E+01 -0.11800429799E+02  0.14207577753E+02  0.51100000000E-03 0. -1.
        -11    1    3    3    0    0  0.25923013007E+02  0.18145197848E+02  0.57272788409E+01  0.32156687197E+02  0.51100000000E-03 0.  1.
         12    1    3    3    0    0 -0.25426305093E+02 -0.31185260993E+01  0.49846976004E+01  0.26097306487E+02  0.00000000000E+00 0. -1.
</event>
<event>
 7    1  0.2809593E-013  0.7246156E+02  0.7816164E-02  0.1226708E+00
        -11   -1    0    0    0    0  0.00000000000E+00  0.00000000000E+00  0.45593999997E+02  0.45594000000E+02  0.51100000000E-03 0. -1.
         11   -1    0    0    0    0 -0.00000000000E+00 -0.00000000000E+00 -0.45593999997E+02  0.45594000000E+02  0.51100000000E-03 0.  1.
    9900012    2    1    2    0    0  0.10911794827E+02 -0.87431814965E+00  0.15193675839E+02  0.72461561895E+02  0.69999989059E+02 0.  0.
        -12    1    1    2    0    0 -0.10911794827E+02  0.87431814965E+00 -0.15193675839E+02  0.18726438105E+02  0.00000000000E+00 0.  1.
         11    1    3    3    0    0 -0.10479278371E+02  0.22736698292E+00 -0.30090735377E+01  0.10905113239E+02  0.51100000000E-03 0. -1.
        -11    1    3    3    0    0  0.13894169396E+02 -0.22314954417E+02 -0.75597890286E+01  0.27352432146E+02  0.51100000000E-03 0.  1.
         12    1    3    3    0    0  0.74969038019E+01  0.21213269285E+02  0.25762538406E+02  0.34204016511E+02  0.00000000000E+00 0. -1.
</event>
<event>
 7    1  0.2809593E-013  0.7246142E+02  0.7816164E-02  0.1226708E+00
        -11   -1    0    0    0    0  0.00000000000E+00  0.00000000000E+00  0.45593999997E+02  0.45594000000E+02  0.51100000000E-03 0.  1.
         11   -1    0    0    0    0 -0.00000000000E+00 -0.00000000000E+00 -0.45593999997E+02  0.45594000000E+02  0.51100000000E-03 0. -1.
    9900012    2    1    2    0    0 -0.62500497788E+01  0.13199540333E+02 -0.11721506389E+02  0.72461422649E+02  0.69999807664E+02 0.  0.
        -12    1    1    2    0    0  0.62500497788E+01 -0.13199540333E+02  0.11721506389E+02  0.18726577351E+02  0.00000000000E+00 0.  1.
         11    1    3    3    0    0 -0.10785455619E+02 -0.48726043709E+01 -0.14584113948E+02  0.18782031471E+02  0.51100000000E-03 0. -1.
        -11    1    3    3    0    0  0.18208194054E+02 -0.76850916710E+01 -0.95938403444E+01  0.21969085951E+02  0.51100000000E-03 0.  1.
        -12    1    3    3    0    0 -0.13672788214E+02  0.25757236375E+02  0.12456447903E+02  0.31710305227E+02  0.00000000000E+00 0.  1.
</event>
<event>
 7    1  0.2809593E-013  0.7246154E+02  0.7816164E-02  0.1226708E+00
        -11   -1    0    0    0    0  0.00000000000E+00  0.00000000000E+00  0.45593999997E+02  0.45594000000E+02  0.51100000000E-03 0.  1.
         11   -1    0    0    0    0 -0.00000000000E+00 -0.00000000000E+00 -0.45593999997E+02  0.45594000000E+02  0.51100000000E-03 0. -1.
    9900012    2    1    2    0    0 -0.54570670745E+01  0.58955940589E+00 -0.17903994862E+02  0.72461542957E+02  0.69999964388E+02 0.  0.
        -12    1    1    2    0    0  0.54570670745E+01 -0.58955940589E+00  0.17903994862E+02  0.18726457043E+02  0.00000000000E+00 0.  1.
         11    1    3    3    0    0 -0.12840281329E+01 -0.92153351780E+01 -0.11136010018E+02  0.14511438594E+02  0.51100000000E-03 0. -1.
        -11    1    3    3    0    0  0.96788995628E+01 -0.16473970753E+00 -0.28626007705E+02  0.30218480328E+02  0.51100000000E-03 0.  1.
        -12    1    3    3    0    0 -0.13851938504E+02  0.99696342915E+01  0.21858022861E+02  0.27731624035E+02  0.00000000000E+00 0.  1.
</event>
<event>
 7    1  0.2809593E-013  0.7246166E+02  0.7816164E-02  0.1226708E+00
        -11   -1    0    0    0    0  0.00000000000E+00  0.00000000000E+00  0.45593999997E+02  0.45594000000E+02  0.51100000000E-03 0.  1.
         11   -1    0    0    0    0 -0.00000000000E+00 -0.00000000000E+00 -0.45593999997E+02  0.45594000000E+02  0.51100000000E-03 0. -1.
    9900012    2    1    2    0    0 -0.16179612466E+02  0.53000894334E+01  0.77977561389E+01  0.72461660038E+02  0.70000116908E+02 0.  0.
        -12    1    1    2    0    0  0.16179612466E+02 -0.53000894334E+01 -0.77977561389E+01  0.18726339962E+02  0.00000000000E+00 0.  1.
         11    1    3    3    0    0 -0.17697123544E+02  0.15146249170E+02 -0.19989389632E+02  0.30694832526E+02  0.51100000000E-03 0. -1.
        -11    1    3    3    0    0 -0.98432068303E+01  0.35867295049E+00  0.24131580421E+02  0.26064353835E+02  0.51100000000E-03 0.  1.
         12    1    3    3    0    0  0.11360717908E+02 -0.10204832687E+02  0.36555653501E+01  0.15702473677E+02  0.00000000000E+00 0. -1.
</event>
<event>
 7    1  0.2809593E-013  0.7246155E+02  0.7816164E-02  0.1226708E+00
        -11   -1    0    0    0    0  0.00000000000E+00  0.00000000000E+00  0.45593999997E+02  0.45594000000E+02  0.51100000000E-03 0. -1.
         11   -1    0    0    0    0 -0.00000000000E+00 -0.00000000000E+00 -0.45593999997E+02  0.45594000000E+02  0.51100000000E-03 0.  1.
    9900012    2    1    2    0    0 -0.10203822415E+02 -0.15702158235E+02  0.63229897235E-01  0.72461554444E+02  0.69999979352E+02 0.  0.
        -12    1    1    2    0    0  0.10203822415E+02  0.15702158235E+02 -0.63229897235E-01  0.18726445556E+02  0.00000000000E+00 0.  1.
         11    1    3    3    0    0 -0.14971458301E+02 -0.21442787041E+02  0.12417868820E+02  0.28950667454E+02  0.51100000000E-03 0. -1.
        -11    1    3    3    0    0 -0.14489334502E+02  0.13412565914E+02 -0.75858402768E+00  0.19758876200E+02  0.51100000000E-03 0.  1.
        -12    1    3    3    0    0  0.19256970387E+02 -0.76719371080E+01 -0.11596054895E+02  0.23752010790E+02  0.00000000000E+00 0.  1.
</event>
<event>
 7    1  0.2809593E-013  0.7246149E+02  0.7816164E-02  0.1226708E+00
        -11   -1    0    0    0    0  0.00000000000E+00  0.00000000000E+00  0.45593999997E+02  0.45594000000E+02  0.51100000000E-03 0. -1.
         11   -1    0    0    0    0 -0.00000000000E+00 -0.00000000000E+00 -0.45593999997E+02  0.45594000000E+02  0.51100000000E-03 0.  1.
    9900012    2    1    2    0    0 -0.18328168390E+02 -0.21361964818E+01  0.31933140813E+01  0.72461485461E+02  0.69999889489E+02 0.  0.
        -12    1    1    2    0    0  0.18328168390E+02  0.21361964818E+01 -0.31933140813E+01  0.18726514539E+02  0.00000000000E+00 0.  1.
         11    1    3    3    0    0  0.20071179123E+01 -0.84442377150E+01  0.21594117084E+01  0.89440892264E+01  0.51100000000E-03 0. -1.
        -11    1    3    3    0    0 -0.26615753019E+01 -0.46496910546E+01 -0.27607763804E+02  0.28122806270E+02  0.51100000000E-03 0.  1.
         12    1    3    3    0    0 -0.17673711001E+02  0.10957732288E+02  0.28641666176E+02  0.35394589965E+02  0.00000000000E+00 0. -1.
</event>
<event>
 7    1  0.2809593E-013  0.7246153E+02  0.7816164E-02  0.1226708E+00
        -11   -1    0    0    0    0  0.00000000000E+00  0.00000000000E+00  0.45593999997E+02  0.45594000000E+02  0.51100000000E-03 0. -1.
         11   -1    0    0    0    0 -0.00000000000E+00 -0.00000000000E+00 -0.45593999997E+02  0.45594000000E+02  0.51100000000E-03 0.  1.
    9900012    2    1    2    0    0  0.20070842255E+00 -0.99873249904E+01  0.15839621269E+02  0.72461533534E+02  0.69999952113E+02 0.  0.
        -12    1    1    2    0    0 -0.20070842255E+00  0.99873249904E+01 -0.15839621269E+02  0.18726466466E+02  0.00000000000E+00 0.  1.
         11    1    3    3    0    0 -0.25559480888E+02  0.10368611142E+01  0.14636075441E+02  0.29471627862E+02  0.51100000000E-03 0. -1.
        -11    1    3    3    0    0 -0.71386597781E+00  0.70076295299E+01 -0.69936298235E+01  0.99260936239E+01  0.51100000000E-03 0.  1.
        -12    1    3    3    0    0  0.26474055289E+02 -0.18031815634E+02  0.81971756514E+01  0.33063812048E+02  0.00000000000E+00 0.  1.
</event>
<event>
 7    1  0.2809593E-013  0.7246160E+02  0.7816164E-02  0.1226708E+00
        -11   -1    0    0    0    0  0.00000000000E+00  0.00000000000E+00  0.45593999997E+02  0.45594000000E+02  0.51100000000E-03 0.  1.
         11   -1    0    0    0    0 -0.00000000000E+00 -0.00000000000E+00 -0.45593999997E+02  0.45594000000E+02  0.51100000000E-03 0. -1.
    9900012    2    1    2    0    0 -0.17379677052E+02 -0.45272763484E+01 -0.53036334068E+01  0.72461603313E+02  0.70000043013E+02 0.  0.
        -12    1    1    2    0    0  0.17379677052E+02  0.45272763484E+01  0.53036334068E+01  0.18726396687E+02  0.00000000000E+00 0.  1.
         11    1    3    3    0    0 -0.56142661417E+01  0.36033776450E+01 -0.26759009220E+02  0.27578050864E+02  0.51100000000E-03 0. -1.
        -11    1    3    3    0    0 -0.19408278123E+02 -0.86718088996E+01 -0.87474049181E+00  0.21275495306E+02  0.51100000000E-03 0.  1.
         12    1    3    3    0    0  0.76428672131E+01  0.54115490627E+00  0.22330116305E+02  0.23608057143E+02  0.00000000000E+00 0. -1.
</event>
<event>
 7    1  0.2809593E-013  0.7246157E+02  0.7816164E-02  0.1226708E+00
        -11   -1    0    0    0    0  0.00000000000E+00  0.00000000000E+00  0.45593999997E+02  0.45594000000E+02  0.51100000000E-03 0.  1.
         11   -1    0    0    0    0 -0.00000000000E+00 -0.00000000000E+00 -0.45593999997E+02  0.45594000000E+02  0.51100000000E-03 0. -1.
    9900012    2    1    2    0    0  0.10652522980E+02 -0.11518900833E+02 -0.10223398643E+02  0.72461569426E+02  0.69999998869E+02 0.  0.
        -12    1    1    2    0    0 -0.10652522980E+02  0.11518900833E+02  0.10223398643E+02  0.18726430574E+02  0.00000000000E+00 0.  1.
         11    1    3    3    0    0 -0.10773271193E+02 -0.27526271358E+02  0.38292792540E+01  0.29806414862E+02  0.51100000000E-03 0. -1.
        -11    1    3    3    0    0 -0.56365288761E+01  0.71212858161E+01  0.28684686713E+01  0.95242470687E+01  0.51100000000E-03 0.  1.
        -12    1    3    3    0    0  0.27062323049E+02  0.88860847089E+01 -0.16921146568E+02  0.33130907495E+02  0.00000000000E+00 0.  1.
</event>
<event>
 7    1  0.2809593E-013  0.7246154E+02  0.7816164E-02  0.1226708E+00
        -11   -1    0    0    0    0  0.00000000000E+00  0.00000000000E+00  0.45593999997E+02  0.45594000000E+02  0.51100000000E-03 0. -1.
         11   -1    0    0    0    0 -0.00000000000E+00 -0.00000000000E+00 -0.45593999997E+02  0.45594000000E+02  0.51100000000E-03 0.  1.
    9900012    2    1    2    0    0 -0.15351707257E+02 -0.10123477337E+02 -0.35384206896E+01  0.72461544647E+02  0.69999966590E+02 0.  0.
        -12    1    1    2    0    0  0.15351707257E+02  0.10123477337E+02  0.35384206896E+01  0.18726455353E+02  0.00000000000E+00 0.  1.
         11    1    3    3    0    0 -0.86573355539E+00  0.45971330838E+01 -0.29498220794E+00  0.46872317996E+01  0.51100000000E-03 0. -1.
        -11    1    3    3    0    0 -0.11119475412E+02  0.59628803759E+01 -0.30724850172E+02  0.33214681907E+02  0.51100000000E-03 0.  1.
         12    1    3    3    0    0 -0.33664982900E+01 -0.20683490796E+02  0.27481411691E+02  0.34559630941E+02  0.00000000000E+00 0. -1.
</event>
<event>
 7    1  0.2809593E-013  0.7246162E+02  0.7816164E-02  0.1226708E+00
        -11   -1    0    0    0    0  0.00000000000E+00  0.00000000000E+00  0.45593999997E+02  0.45594000000E+02  0.51100000000E-03 0.  1.
         11   -1    0    0    0    0 -0.00000000000E+00 -0.00000000000E+00 -0.45593999997E+02  0.45594000000E+02  0.51100000000E-03 0. -1.
    9900012    2    1    2    0    0  0.82588202072E+01  0.16652257421E+02 -0.22741262614E+01  0.72461616508E+02  0.70000060202E+02 0.  0.
        -12    1    1    2    0    0 -0.82588202072E+01 -0.16652257421E+02  0.22741262614E+01  0.18726383492E+02  0.00000000000E+00 0.  1.
         11    1    3    3    0    0 -0.70483246830E+01  0.13157682892E+02 -0.42971692296E+01  0.15532841452E+02  0.51100000000E-03 0. -1.
        -11    1    3    3    0    0  0.27914744507E+02  0.63148800210E+01  0.19909877717E+02  0.34864220937E+02  0.51100000000E-03 0.  1.
         12    1    3    3    0    0 -0.12607599617E+02 -0.28203054916E+01 -0.17886834748E+02  0.22064554119E+02  0.00000000000E+00 0. -1.
</event>
<event>
 7    1  0.2809593E-013  0.7246157E+02  0.7816164E-02  0.1226708E+00
        -11   -1    0    0    0    0  0.00000000000E+00  0.00000000000E+00  0.45593999997E+02  0.45594000000E+02  0.51100000000E-03 0. -1.
         11   -1    0    0    0    0 -0.00000000000E+00 -0.00000000000E+00 -0.45593999997E+02  0.45594000000E+02  0.51100000000E-03 0.  1.
    9900012    2    1    2    0    0 -0.12272558866E+02 -0.61488759708E+01  0.12737924434E+02  0.72461572265E+02  0.70000002567E+02 0.  0.
        -12    1    1    2    0    0  0.12272558866E+02  0.61488759708E+01 -0.12737924434E+02  0.18726427735E+02  0.00000000000E+00 0.  1.
         11    1    3    3    0    0  0.43171176732E+01 -0.20561985070E+02  0.12484537838E+01  0.21047360218E+02  0.51100000000E-03 0. -1.
        -11    1    3    3    0    0 -0.38227204117E+01 -0.73597292990E+01 -0.13533650609E+02  0.15872570862E+02  0.51100000000E-03 0.  1.
        -12    1    3    3    0    0 -0.12766956127E+02  0.21772838398E+02  0.25023121259E+02  0.35541641186E+02  0.00000000000E+00 0.  1.
</event>
<event>
 7    1  0.2809593E-013  0.7246158E+02  0.7816164E-02  0.1226708E+00
        -11   -1    0    0    0    0  0.00000000000E+00  0.00000000000E+00  0.45593999997E+02  0.45594000000E+02  0.51100000000E-03 0.  1.
         11   -1    0    0    0    0 -0.00000000000E+00 -0.00000000000E+00 -0.45593999997E+02  0.45594000000E+02  0.51100000000E-03 0. -1.
    9900012    2    1    2    0    0  0.91472791003E+01 -0.78986547085E+01  0.14304456742E+02  0.72461576320E+02  0.70000007850E+02 0.  0.
        -12    1    1    2    0    0 -0.91472791003E+01  0.78986547085E+01 -0.14304456742E+02  0.18726423680E+02  0.00000000000E+00 0.  1.
         11    1    3    3    0    0 -0.59160616031E+01  0.75470150576E+01  0.15784796980E+01  0.97184782548E+01  0.51100000000E-03 0. -1.
        -11    1    3    3    0    0  0.10359369288E+02  0.13785927624E+02  0.25265557234E+02  0.30589487003E+02  0.51100000000E-03 0.  1.
         12    1    3    3    0    0  0.47039714156E+01 -0.29231597390E+02 -0.12539580190E+02  0.32153611063E+02  0.00000000000E+00 0. -1.
</event>
<event>
 7    1  0.2809593E-013  0.7246156E+02  0.7816164E-02  0.1226708E+00
        -11   -1    0    0    0    0  0.00000000000E+00  0.00000000000E+00  0.45593999997E+02  0.45594000000E+02  0.51100000000E-03 0.  1.
         11   -1    0    0    0    0 -0.00000000000E+00 -0.00000000000E+00 -0.45593999997E+02  0.45594000000E+02  0.51100000000E-03 0. -1.
    9900012    2    1    2    0    0 -0.11363432229E+02  0.21828207865E+01 -0.14723691424E+02  0.72461564467E+02  0.69999992409E+02 0.  0.
        -12    1    1    2    0    0  0.11363432229E+02 -0.21828207865E+01  0.14723691424E+02  0.18726435533E+02  0.00000000000E+00 0.  1.
         11    1    3    3    0    0 -0.11314222922E+02 -0.21211582809E+01 -0.82171109604E+01  0.14143262197E+02  0.51100000000E-03 0. -1.
        -11    1    3    3    0    0 -0.27871740945E+02  0.94549677608E+01 -0.58950414918E+01  0.30016360091E+02  0.51100000000E-03 0.  1.
         12    1    3    3    0    0  0.27822531637E+02 -0.51509886934E+01 -0.61153897172E+00  0.28301942180E+02  0.00000000000E+00 0. -1.
</event>
<event>
 7    1  0.2809593E-013  0.7246159E+02  0.7816164E-02  0.1226708E+00
        -11   -1    0    0    0    0  0.00000000000E+00  0.00000000000E+00  0.45593999997E+02  0.45594000000E+02  0.51100000000E-03 0.  1.
         11   -1    0    0    0    0 -0.00000000000E+00 -0.00000000000E+00 -0.45593999997E+02  0.45594000000E+02  0.51100000000E-03 0. -1.
    9900012    2    1    2    0    0  0.15064959095E+02 -0.95804930427E+01 -0.56515233274E+01  0.72461586692E+02  0.70000021360E+02 0.  0.
        -12    1    1    2    0    0 -0.15064959095E+02  0.95804930427E+01  0.56515233274E+01  0.18726413308E+02  0.00000000000E+00 0.  1.
         11    1    3    3    0    0  0.14765183802E+01  0.14745365347E+02 -0.13327982824E+02  0.19930906456E+02  0.51100000000E-03 0. -1.
        -11    1    3    3    0    0  0.25460503686E+02 -0.79416644436E+00  0.18676469591E+01  0.25541261788E+02  0.51100000000E-03 0.  1.
         12    1    3    3    0    0 -0.11872062971E+02 -0.23531691945E+02  0.58088125380E+01  0.26989418447E+02  0.00000000000E+00 0. -1.
</event>
<event>
 7    1  0.2809593E-013  0.7246161E+02  0.7816164E-02  0.1226708E+00
        -11   -1    0    0    0    0  0.00000000000E+00  0.00000000000E+00  0.45593999997E+02  0.45594000000E+02  0.51100000000E-03 0. -1.
         11   -1    0    0    0    0 -0.00000000000E+00 -0.00000000000E+00 -0.45593999997E+02  0.45594000000E+02  0.51100000000E-03 0.  1.
    9900012    2    1    2    0    0 -0.86823018654E+01 -0.98182453843E+01 -0.13375255028E+02  0.72461608058E+02  0.70000049194E+02 0.  0.
        -12    1    1    2    0    0  0.86823018654E+01  0.98182453843E+01  0.13375255028E+02  0.18726391942E+02  0.00000000000E+00 0.  1.
         11    1    3    3    0    0 -0.23209526671E+02 -0.11574074556E+01 -0.13728639221E+02  0.26990688309E+02  0.51100000000E-03 0. -1.
        -11    1    3    3    0    0 -0.20503313527E+01  0.13705066034E+02 -0.85007228748E+01  0.16257151758E+02  0.51100000000E-03 0.  1.
        -12    1    3    3    0    0  0.16577556158E+02 -0.22365903962E+02  0.88541070676E+01  0.29213767990E+02  0.00000000000E+00 0.  1.
</event>
<event>
 7    1  0.2809593E-013  0.7246159E+02  0.7816164E-02  0.1226708E+00
        -11   -1    0    0    0    0  0.00000000000E+00  0.00000000000E+00  0.45593999997E+02  0.45594000000E+02  0.51100000000E-03 0. -1.
         11   -1    0    0    0    0 -0.00000000000E+00 -0.00000000000E+00 -0.45593999997E+02  0.45594000000E+02  0.51100000000E-03 0.  1.
    9900012    2    1    2    0    0  0.43225343821E+01  0.20680803671E+01  0.18102959152E+02  0.72461591109E+02  0.70000027115E+02 0.  0.
        -12    1    1    2    0    0 -0.43225343821E+01 -0.20680803671E+01 -0.18102959152E+02  0.18726408891E+02  0.00000000000E+00 0.  1.
         11    1    3    3    0    0 -0.54395704190E+01 -0.11438134089E+02 -0.41023875710E+01  0.13313505242E+02  0.51100000000E-03 0.  1.
        -11    1    3    3    0    0  0.26721226871E+02  0.24980220412E+01  0.27315583721E+02  0.38293670416E+02  0.51100000000E-03 0. -1.
         12    1    3    3    0    0 -0.16959122070E+02  0.11008192415E+02 -0.51102369983E+01  0.20854415451E+02  0.00000000000E+00 0. -1.
</event>
<event>
 7    1  0.2809593E-013  0.7246159E+02  0.7816164E-02  0.1226708E+00
        -11   -1    0    0    0    0  0.00000000000E+00  0.00000000000E+00  0.45593999997E+02  0.45594000000E+02  0.51100000000E-03 0.  1.
         11   -1    0    0    0    0 -0.00000000000E+00 -0.00000000000E+00 -0.45593999997E+02  0.45594000000E+02  0.51100000000E-03 0. -1.
    9900012    2    1    2    0    0 -0.51853193049E+01  0.17339191987E+02  0.48107555554E+01  0.72461588596E+02  0.70000023842E+02 0.  0.
        -12    1    1    2    0    0  0.51853193049E+01 -0.17339191987E+02 -0.48107555554E+01  0.18726411404E+02  0.00000000000E+00 0.  1.
         11    1    3    3    0    0 -0.19510879797E+02  0.20919618305E+02  0.96242969849E+01  0.30181649279E+02  0.51100000000E-03 0. -1.
        -11    1    3    3    0    0 -0.63824578551E+01  0.83364598744E+01  0.97257729198E+01  0.14311638294E+02  0.51100000000E-03 0.  1.
        -12    1    3    3    0    0  0.20708018347E+02 -0.11916886192E+02 -0.14539314349E+02  0.27968301023E+02  0.00000000000E+00 0.  1.
</event>
<event>
 7    1  0.2809593E-013  0.7246161E+02  0.7816164E-02  0.1226708E+00
        -11   -1    0    0    0    0  0.00000000000E+00  0.00000000000E+00  0.45593999997E+02  0.45594000000E+02  0.51100000000E-03 0.  1.
         11   -1    0    0    0    0 -0.00000000000E+00 -0.00000000000E+00 -0.45593999997E+02  0.45594000000E+02  0.51100000000E-03 0. -1.
    9900012    2    1    2    0    0 -0.14477301010E+02 -0.10299945703E+02  0.59157828232E+01  0.72461611869E+02  0.70000054159E+02 0.  0.
        -12    1    1    2    0    0  0.14477301010E+02  0.10299945703E+02 -0.59157828232E+01  0.18726388131E+02  0.00000000000E+00 0.  1.
         11    1    3    3    0    0  0.32736334392E+01 -0.25258795502E+01 -0.80379623284E+01  0.90391140081E+01  0.51100000000E-03 0. -1.
        -11    1    3    3    0    0 -0.70177416401E-01 -0.18482586765E+02 -0.17717106907E+02  0.25602867336E+02  0.51100000000E-03 0.  1.
        -12    1    3    3    0    0 -0.17680757033E+02  0.10708520612E+02  0.31670852059E+02  0.37819630525E+02  0.00000000000E+00 0.  1.
</event>
<event>
 7    1  0.2809593E-013  0.7246159E+02  0.7816164E-02  0.1226708E+00
        -11   -1    0    0    0    0  0.00000000000E+00  0.00000000000E+00  0.45593999997E+02  0.45594000000E+02  0.51100000000E-03 0. -1.
         11   -1    0    0    0    0 -0.00000000000E+00 -0.00000000000E+00 -0.45593999997E+02  0.45594000000E+02  0.51100000000E-03 0.  1.
    9900012    2    1    2    0    0 -0.16750189417E+02  0.78128927501E+01  0.30113378068E+01  0.72461593671E+02  0.70000030452E+02 0.  0.
        -12    1    1    2    0    0  0.16750189417E+02 -0.78128927501E+01 -0.30113378068E+01  0.18726406329E+02  0.00000000000E+00 0.  1.
         11    1    3    3    0    0 -0.23705740506E+01  0.14278279918E+02 -0.91452676950E+01  0.17120888418E+02  0.51100000000E-03 0. -1.
        -11    1    3    3    0    0  0.73433240992E+00  0.13861605607E+02 -0.13445776561E+02  0.19325430439E+02  0.51100000000E-03 0.  1.
         12    1    3    3    0    0 -0.15113947776E+02 -0.20326992774E+02  0.25602382063E+02  0.36015274814E+02  0.00000000000E+00 0. -1.
</event>
<event>
 7    1  0.2809593E-013  0.7246156E+02  0.7816164E-02  0.1226708E+00
        -11   -1    0    0    0    0  0.00000000000E+00  0.00000000000E+00  0.45593999997E+02  0.45594000000E+02  0.51100000000E-03 0. -1.
         11   -1    0    0    0    0 -0.00000000000E+00 -0.00000000000E+00 -0.45593999997E+02  0.45594000000E+02  0.51100000000E-03 0.  1.
    9900012    2    1    2    0    0 -0.85718251271E+01  0.16211585320E+02  0.37931451017E+01  0.72461557883E+02  0.69999983832E+02 0.  0.
        -12    1    1    2    0    0  0.85718251271E+01 -0.16211585320E+02 -0.37931451017E+01  0.18726442117E+02  0.00000000000E+00 0.  1.
         11    1    3    3    0    0 -0.17705687909E+01 -0.15956915280E+02  0.19209997276E+00  0.16055994573E+02  0.51100000000E-03 0. -1.
        -11    1    3    3    0    0  0.18857201851E+02  0.18790431561E+02  0.62598420185E+01  0.27347029130E+02  0.51100000000E-03 0.  1.
         12    1    3    3    0    0 -0.25658458187E+02  0.13378069039E+02 -0.26587968896E+01  0.29058534179E+02  0.00000000000E+00 0. -1.
</event>
<event>
 7    1  0.2809593E-013  0.7246152E+02  0.7816164E-02  0.1226708E+00
        -11   -1    0    0    0    0  0.00000000000E+00  0.00000000000E+00  0.45593999997E+02  0.45594000000E+02  0.51100000000E-03 0.  1.
         11   -1    0    0    0    0 -0.00000000000E+00 -0.00000000000E+00 -0.45593999997E+02  0.45594000000E+02  0.51100000000E-03 0. -1.
    9900012    2    1    2    0    0 -0.13247497992E+01  0.74100949700E+01 -0.17146916609E+02  0.72461515581E+02  0.69999928726E+02 0.  0.
        -12    1    1    2    0    0  0.13247497992E+01 -0.74100949700E+01  0.17146916609E+02  0.18726484419E+02  0.00000000000E+00 0.  1.
         11    1    3    3    0    0 -0.98577201491E+01  0.10791970550E+02  0.12458215273E+02  0.19205426393E+02  0.51100000000E-03 0. -1.
        -11    1    3    3    0    0 -0.14660336775E+02 -0.10823694073E+02 -0.20042275009E+02  0.27088200670E+02  0.51100000000E-03 0.  1.
         12    1    3    3    0    0  0.23193307125E+02  0.74418184928E+01 -0.95628568733E+01  0.26167888517E+02  0.00000000000E+00 0. -1.
</event>
<event>
 7    1  0.2809593E-013  0.7246161E+02  0.7816164E-02  0.1226708E+00
        -11   -1    0    0    0    0  0.00000000000E+00  0.00000000000E+00  0.45593999997E+02  0.45594000000E+02  0.51100000000E-03 0.  1.
         11   -1    0    0    0    0 -0.00000000000E+00 -0.00000000000E+00 -0.45593999997E+02  0.45594000000E+02  0.51100000000E-03 0. -1.
    9900012    2    1    2    0    0  0.14485988860E+02  0.10997498298E+02  0.44596960074E+01  0.72461608715E+02  0.70000050050E+02 0.  0.
        -12    1    1    2    0    0 -0.14485988860E+02 -0.10997498298E+02 -0.44596960074E+01  0.18726391285E+02  0.00000000000E+00 0.  1.
         11    1    3    3    0    0  0.88909201973E+01 -0.91618036990E+01  0.52334125577E+01  0.13797670681E+02  0.51100000000E-03 0. -1.
        -11    1    3    3    0    0  0.26602738838E+02  0.15852623664E+01  0.10222974992E+02  0.28543440374E+02  0.51100000000E-03 0.  1.
         12    1    3    3    0    0 -0.21007670175E+02  0.18574039631E+02 -0.10996691542E+02  0.30120497659E+02  0.00000000000E+00 0. -1.
</event>
<event>
 7    1  0.2809593E-013  0.7246157E+02  0.7816164E-02  0.1226708E+00
        -11   -1    0    0    0    0  0.00000000000E+00  0.00000000000E+00  0.45593999997E+02  0.45594000000E+02  0.51100000000E-03 0.  1.
         11   -1    0    0    0    0 -0.00000000000E+00 -0.00000000000E+00 -0.45593999997E+02  0.45594000000E+02  0.51100000000E-03 0. -1.
    9900012    2    1    2    0    0 -0.65546924270E+01  0.82149966332E+00 -0.17522561605E+02  0.72461574294E+02  0.70000005210E+02 0.  0.
        -12    1    1    2    0    0  0.65546924270E+01 -0.82149966332E+00  0.17522561605E+02  0.18726425706E+02  0.00000000000E+00 0.  1.
         11    1    3    3    0    0 -0.33038065231E+01 -0.76897092967E+01  0.72365617993E+01  0.11064112868E+02  0.51100000000E-03 0. -1.
        -11    1    3    3    0    0 -0.19159801234E+02 -0.48913368508E+01  0.90141124913E+01  0.21731943857E+02  0.51100000000E-03 0.  1.
         12    1    3    3    0    0  0.15908915330E+02  0.13402545811E+02 -0.33773235896E+02  0.39665517570E+02  0.00000000000E+00 0. -1.
</event>
<event>
 7    1  0.2809593E-013  0.7246156E+02  0.7816164E-02  0.1226708E+00
        -11   -1    0    0    0    0  0.00000000000E+00  0.00000000000E+00  0.45593999997E+02  0.45594000000E+02  0.51100000000E-03 0.  1.
         11   -1    0    0    0    0 -0.00000000000E+00 -0.00000000000E+00 -0.45593999997E+02  0.45594000000E+02  0.51100000000E-03 0. -1.
    9900012    2    1    2    0    0  0.10849413156E+01  0.18693352520E+02  0.24686651365E+00  0.72461562294E+02  0.69999989578E+02 0.  0.
        -12    1    1    2    0    0 -0.10849413156E+01 -0.18693352520E+02 -0.24686651365E+00  0.18726437706E+02  0.00000000000E+00 0.  1.
         11    1    3    3    0    0 -0.51204660569E+01 -0.41715292203E+01  0.29234546617E+00  0.66110736502E+01  0.51100000000E-03 0. -1.
        -11    1    3    3    0    0 -0.77954403047E+01 -0.14636398079E+02  0.15699516016E+02  0.22835670379E+02  0.51100000000E-03 0.  1.
         12    1    3    3    0    0  0.14000847677E+02  0.37501279819E+02 -0.15744994969E+02  0.43014818264E+02  0.00000000000E+00 0. -1.
</event>
<event>
 7    1  0.2809593E-013  0.7246150E+02  0.7816164E-02  0.1226708E+00
        -11   -1    0    0    0    0  0.00000000000E+00  0.00000000000E+00  0.45593999997E+02  0.45594000000E+02  0.51100000000E-03 0. -1.
         11   -1    0    0    0    0 -0.00000000000E+00 -0.00000000000E+00 -0.45593999997E+02  0.45594000000E+02  0.51100000000E-03 0.  1.
    9900012    2    1    2    0    0  0.17703499355E+02  0.48043703684E+01  0.37663979907E+01  0.72461504923E+02  0.69999914841E+02 0.  0.
        -12    1    1    2    0    0 -0.17703499355E+02 -0.48043703684E+01 -0.37663979907E+01  0.18726495077E+02  0.00000000000E+00 0.  1.
         11    1    3    3    0    0  0.58469387086E+01  0.86258075345E+01 -0.11861714638E+02  0.15788968374E+02  0.51100000000E-03 0. -1.
        -11    1    3    3    0    0  0.41840880477E+01  0.23180519505E+02  0.16213108916E+02  0.28595593687E+02  0.51100000000E-03 0.  1.
         12    1    3    3    0    0  0.76724725987E+01 -0.27001956671E+02 -0.58499628705E+00  0.28076942862E+02  0.00000000000E+00 0. -1.
</event>
<event>
 7    1  0.2809593E-013  0.7246155E+02  0.7816164E-02  0.1226708E+00
        -11   -1    0    0    0    0  0.00000000000E+00  0.00000000000E+00  0.45593999997E+02  0.45594000000E+02  0.51100000000E-03 0. -1.
         11   -1    0    0    0    0 -0.00000000000E+00 -0.00000000000E+00 -0.45593999997E+02  0.45594000000E+02  0.51100000000E-03 0.  1.
    9900012    2    1    2    0    0  0.54757049468E+01 -0.15932873908E+02  0.81755910760E+01  0.72461545315E+02  0.69999967460E+02 0.  0.
        -12    1    1    2    0    0 -0.54757049468E+01  0.15932873908E+02 -0.81755910760E+01  0.18726454685E+02  0.00000000000E+00 0.  1.
         11    1    3    3    0    0  0.28133297990E+02 -0.49787275942E+01  0.23803489349E+02  0.37187044648E+02  0.51100000000E-03 0.  1.
        -11    1    3    3    0    0 -0.11309198378E+02  0.64924276110E+00  0.17881975230E+01  0.11468092028E+02  0.51100000000E-03 0. -1.
        -12    1    3    3    0    0 -0.11348394664E+02 -0.11603389075E+02 -0.17416095796E+02  0.23806408638E+02  0.00000000000E+00 0.  1.
</event>
<event>
 7    1  0.2809593E-013  0.7246172E+02  0.7816164E-02  0.1226708E+00
        -11   -1    0    0    0    0  0.00000000000E+00  0.00000000000E+00  0.45593999997E+02  0.45594000000E+02  0.51100000000E-03 0. -1.
         11   -1    0    0    0    0 -0.00000000000E+00 -0.00000000000E+00 -0.45593999997E+02  0.45594000000E+02  0.51100000000E-03 0.  1.
    9900012    2    1    2    0    0 -0.16172033343E+02  0.93112999002E+01 -0.15615827993E+01  0.72461721429E+02  0.70000196881E+02 0.  0.
        -12    1    1    2    0    0  0.16172033343E+02 -0.93112999002E+01  0.15615827993E+01  0.18726278571E+02  0.00000000000E+00 0.  1.
         11    1    3    3    0    0 -0.14895602878E+02  0.32019575513E+02  0.22261299961E+01  0.35384853485E+02  0.51100000000E-03 0. -1.
        -11    1    3    3    0    0  0.58061636403E+00  0.69498098035E+01  0.75775159910E+00  0.70150666008E+01  0.51100000000E-03 0.  1.
        -12    1    3    3    0    0 -0.18570468293E+01 -0.29658085416E+02 -0.45454643946E+01  0.30061801344E+02  0.00000000000E+00 0.  1.
</event>
<event>
 7    1  0.2809593E-013  0.7246157E+02  0.7816164E-02  0.1226708E+00
        -11   -1    0    0    0    0  0.00000000000E+00  0.00000000000E+00  0.45593999997E+02  0.45594000000E+02  0.51100000000E-03 0.  1.
         11   -1    0    0    0    0 -0.00000000000E+00 -0.00000000000E+00 -0.45593999997E+02  0.45594000000E+02  0.51100000000E-03 0. -1.
    9900012    2    1    2    0    0  0.13467758811E+02  0.12034242319E+02  0.49472797871E+01  0.72461572341E+02  0.70000002667E+02 0.  0.
        -12    1    1    2    0    0 -0.13467758811E+02 -0.12034242319E+02 -0.49472797871E+01  0.18726427659E+02  0.00000000000E+00 0.  1.
         11    1    3    3    0    0  0.20008234501E+01 -0.12167505651E+01  0.66165121505E-01  0.23426810497E+01  0.51100000000E-03 0. -1.
        -11    1    3    3    0    0  0.27807076762E+02  0.81237060200E+01  0.28702326406E+02  0.40780530390E+02  0.51100000000E-03 0.  1.
         12    1    3    3    0    0 -0.16340141401E+02  0.51272868638E+01 -0.23821211741E+02  0.29338360901E+02  0.00000000000E+00 0. -1.
</event>
<event>
 7    1  0.2809593E-013  0.7246160E+02  0.7816164E-02  0.1226708E+00
        -11   -1    0    0    0    0  0.00000000000E+00  0.00000000000E+00  0.45593999997E+02  0.45594000000E+02  0.51100000000E-03 0. -1.
         11   -1    0    0    0    0 -0.00000000000E+00 -0.00000000000E+00 -0.45593999997E+02  0.45594000000E+02  0.51100000000E-03 0.  1.
    9900012    2    1    2    0    0  0.10861737114E+02  0.10604190362E+02 -0.10965940415E+02  0.72461600572E+02  0.70000039442E+02 0.  0.
        -12    1    1    2    0    0 -0.10861737114E+02 -0.10604190362E+02  0.10965940415E+02  0.18726399428E+02  0.00000000000E+00 0.  1.
         11    1    3    3    0    0 -0.39905564746E+01  0.62262402870E+01  0.47322051575E+01  0.87797707830E+01  0.51100000000E-03 0. -1.
        -11    1    3    3    0    0 -0.22670805735E+02  0.72704309381E+01 -0.31768378499E+01  0.24019094439E+02  0.51100000000E-03 0.  1.
        -12    1    3    3    0    0  0.37523099323E+02 -0.28924808628E+01 -0.12521307723E+02  0.39662735350E+02  0.00000000000E+00 0.  1.
</event>
<event>
 7    1  0.2809593E-013  0.7246202E+02  0.7816164E-02  0.1226707E+00
        -11   -1    0    0    0    0  0.00000000000E+00  0.00000000000E+00  0.45593999997E+02  0.45594000000E+02  0.51100000000E-03 0.  1.
         11   -1    0    0    0    0 -0.00000000000E+00 -0.00000000000E+00 -0.45593999997E+02  0.45594000000E+02  0.51100000000E-03 0. -1.
    9900012    2    1    2    0    0  0.21288696591E+01  0.18591137335E+02 -0.70694095566E+00  0.72462022350E+02  0.70000588884E+02 0.  0.
        -12    1    1    2    0    0 -0.21288696591E+01 -0.18591137335E+02  0.70694095566E+00  0.18725977650E+02  0.00000000000E+00 0.  1.
         11    1    3    3    0    0 -0.97169531369E+01  0.41268098357E+01  0.10245583219E+02  0.14711278444E+02  0.51100000000E-03 0. -1.
        -11    1    3    3    0    0 -0.18439943673E+02  0.74802786643E+01 -0.16898570771E+02  0.26106470193E+02  0.51100000000E-03 0.  1.
         12    1    3    3    0    0  0.30285766469E+02  0.69840488350E+01  0.59460465964E+01  0.31644273713E+02  0.00000000000E+00 0. -1.
</event>
<event>
 7    1  0.2809593E-013  0.7246158E+02  0.7816164E-02  0.1226708E+00
        -11   -1    0    0    0    0  0.00000000000E+00  0.00000000000E+00  0.45593999997E+02  0.45594000000E+02  0.51100000000E-03 0. -1.
         11   -1    0    0    0    0 -0.00000000000E+00 -0.00000000000E+00 -0.45593999997E+02  0.45594000000E+02  0.51100000000E-03 0.  1.
    9900012    2    1    2    0    0 -0.16654035937E+02 -0.11755765408E+01  0.84817431143E+01  0.72461578573E+02  0.70000010785E+02 0.  0.
        -12    1    1    2    0    0  0.16654035937E+02  0.11755765408E+01 -0.84817431143E+01  0.18726421427E+02  0.00000000000E+00 0.  1.
         11    1    3    3    0    0 -0.23962427136E+02 -0.11337900605E+00  0.19411279519E+02  0.30838426385E+02  0.51100000000E-03 0. -1.
        -11    1    3    3    0    0 -0.34446299247E+01 -0.18336378268E+02 -0.28463190193E+00  0.18659294169E+02  0.51100000000E-03 0.  1.
         12    1    3    3    0    0  0.10753021124E+02  0.17274180733E+02 -0.10644904503E+02  0.22963858020E+02  0.00000000000E+00 0. -1.
</event>
<event>
 7    1  0.2809593E-013  0.7246165E+02  0.7816164E-02  0.1226708E+00
        -11   -1    0    0    0    0  0.00000000000E+00  0.00000000000E+00  0.45593999997E+02  0.45594000000E+02  0.51100000000E-03 0.  1.
         11   -1    0    0    0    0 -0.00000000000E+00 -0.00000000000E+00 -0.45593999997E+02  0.45594000000E+02  0.51100000000E-03 0. -1.
    9900012    2    1    2    0    0  0.10634996778E+02  0.22323831418E+00 -0.15411781956E+02  0.72461654525E+02  0.70000109725E+02 0.  0.
        -12    1    1    2    0    0 -0.10634996778E+02 -0.22323831418E+00  0.15411781956E+02  0.18726345475E+02  0.00000000000E+00 0.  1.
         11    1    3    3    0    0 -0.49769110681E+00 -0.29068793869E+02 -0.67556676319E+01  0.29847638413E+02  0.51100000000E-03 0. -1.
        -11    1    3    3    0    0  0.40027032459E+01 -0.49856189999E+01  0.53623851483E+00  0.64160409984E+01  0.51100000000E-03 0.  1.
        -12    1    3    3    0    0  0.71299846387E+01  0.34277651183E+02 -0.91923528388E+01  0.36197975113E+02  0.00000000000E+00 0.  1.
</event>
<event>
 7    1  0.2809593E-013  0.7246156E+02  0.7816164E-02  0.1226708E+00
        -11   -1    0    0    0    0  0.00000000000E+00  0.00000000000E+00  0.45593999997E+02  0.45594000000E+02  0.51100000000E-03 0. -1.
         11   -1    0    0    0    0 -0.00000000000E+00 -0.00000000000E+00 -0.45593999997E+02  0.45594000000E+02  0.51100000000E-03 0.  1.
    9900012    2    1    2    0    0  0.97762715527E+01  0.86625073518E+01  0.13418833284E+02  0.72461558646E+02  0.69999984826E+02 0.  0.
        -12    1    1    2    0    0 -0.97762715527E+01 -0.86625073518E+01 -0.13418833284E+02  0.18726441354E+02  0.00000000000E+00 0.  1.
         11    1    3    3    0    0 -0.51416233652E+01 -0.17916780429E+01 -0.10201190766E+02  0.11563334050E+02  0.51100000000E-03 0. -1.
        -11    1    3    3    0    0 -0.13629790520E+02  0.60131666956E+01 -0.89356075466E+01  0.17371656392E+02  0.51100000000E-03 0.  1.
         12    1    3    3    0    0  0.28547685437E+02  0.44410186991E+01  0.32555631597E+02  0.43526568204E+02  0.00000000000E+00 0. -1.
</event>
<event>
 7    1  0.2809593E-013  0.7246155E+02  0.7816164E-02  0.1226708E+00
        -11   -1    0    0    0    0  0.00000000000E+00  0.00000000000E+00  0.45593999997E+02  0.45594000000E+02  0.51100000000E-03 0. -1.
         11   -1    0    0    0    0 -0.00000000000E+00 -0.00000000000E+00 -0.45593999997E+02  0.45594000000E+02  0.51100000000E-03 0.  1.
    9900012    2    1    2    0    0 -0.12283948684E+02 -0.13497517671E+02  0.41953992524E+01  0.72461554704E+02  0.69999979691E+02 0.  0.
        -12    1    1    2    0    0  0.12283948684E+02  0.13497517671E+02 -0.41953992524E+01  0.18726445296E+02  0.00000000000E+00 0.  1.
         11    1    3    3    0    0  0.21902058888E+01 -0.29506185435E+01 -0.10570443945E+02  0.11190953359E+02  0.51100000000E-03 0. -1.
        -11    1    3    3    0    0  0.92351887096E+01 -0.16916023309E+02 -0.13725971712E+02  0.23660998601E+02  0.51100000000E-03 0.  1.
         12    1    3    3    0    0 -0.23709343282E+02  0.63691241814E+01  0.28491814910E+02  0.37609602744E+02  0.00000000000E+00 0. -1.
</event>
<event>
 7    1  0.2809593E-013  0.7246144E+02  0.7816164E-02  0.1226708E+00
        -11   -1    0    0    0    0  0.00000000000E+00  0.00000000000E+00  0.45593999997E+02  0.45594000000E+02  0.51100000000E-03 0.  1.
         11   -1    0    0    0    0 -0.00000000000E+00 -0.00000000000E+00 -0.45593999997E+02  0.45594000000E+02  0.51100000000E-03 0. -1.
    9900012    2    1    2    0    0  0.75761562020E+01 -0.10445652038E+02 -0.13571078142E+02  0.72461442622E+02  0.69999833682E+02 0.  0.
        -12    1    1    2    0    0 -0.75761562020E+01  0.10445652038E+02  0.13571078142E+02  0.18726557378E+02  0.00000000000E+00 0.  1.
         11    1    3    3    0    0  0.20785780874E+02 -0.62182389465E+01  0.22939910872E+00  0.21697184296E+02  0.51100000000E-03 0. -1.
        -11    1    3    3    0    0  0.13869043561E+01 -0.23813350372E+02 -0.10692467654E+02  0.26140543690E+02  0.51100000000E-03 0.  1.
         12    1    3    3    0    0 -0.14596529028E+02  0.19585937280E+02 -0.31080095972E+01  0.24623714636E+02  0.00000000000E+00 0. -1.
</event>
<event>
 7    1  0.2809593E-013  0.7246156E+02  0.7816164E-02  0.1226708E+00
        -11   -1    0    0    0    0  0.00000000000E+00  0.00000000000E+00  0.45593999997E+02  0.45594000000E+02  0.51100000000E-03 0. -1.
         11   -1    0    0    0    0 -0.00000000000E+00 -0.00000000000E+00 -0.45593999997E+02  0.45594000000E+02  0.51100000000E-03 0.  1.
    9900012    2    1    2    0    0 -0.83073149350E+00  0.18066204937E+02 -0.48581429068E+01  0.72461563389E+02  0.69999991004E+02 0.  0.
        -12    1    1    2    0    0  0.83073149350E+00 -0.18066204937E+02  0.48581429068E+01  0.18726436611E+02  0.00000000000E+00 0.  1.
         11    1    3    3    0    0  0.18143608293E+00  0.28752473990E+01 -0.46855995985E+01  0.55004373022E+01  0.51100000000E-03 0.  1.
        -11    1    3    3    0    0  0.19330003968E+02  0.34093474998E+02 -0.66447748381E-01  0.39192071984E+02  0.51100000000E-03 0. -1.
         12    1    3    3    0    0 -0.20342171545E+02 -0.18902517460E+02 -0.10609555999E+00  0.27769054102E+02  0.00000000000E+00 0. -1.
</event>
<event>
 7    1  0.2809593E-013  0.7246155E+02  0.7816164E-02  0.1226708E+00
        -11   -1    0    0    0    0  0.00000000000E+00  0.00000000000E+00  0.45593999997E+02  0.45594000000E+02  0.51100000000E-03 0. -1.
         11   -1    0    0    0    0 -0.00000000000E+00 -0.00000000000E+00 -0.45593999997E+02  0.45594000000E+02  0.51100000000E-03 0.  1.
    9900012    2    1    2    0    0 -0.80322210634E+01  0.69652894680E+01 -0.15415836493E+02  0.72461552196E+02  0.69999976423E+02 0.  0.
        -12    1    1    2    0    0  0.80322210634E+01 -0.69652894680E+01  0.15415836493E+02  0.18726447804E+02  0.00000000000E+00 0.  1.
         11    1    3    3    0    0 -0.25890648050E+02  0.11376325389E+01 -0.12894049709E+02  0.28946094424E+02  0.51100000000E-03 0. -1.
        -11    1    3    3    0    0 -0.81962508015E+01  0.10422557926E+02 -0.93104510753E+01  0.16201627709E+02  0.51100000000E-03 0.  1.
        -12    1    3    3    0    0  0.26054677788E+02 -0.45949009973E+01  0.67886642911E+01  0.27313830062E+02  0.00000000000E+00 0.  1.
</event>
<event>
 7    1  0.2809593E-013  0.7246161E+02  0.7816164E-02  0.1226708E+00
        -11   -1    0    0    0    0  0.00000000000E+00  0.00000000000E+00  0.45593999997E+02  0.45594000000E+02  0.51100000000E-03 0.  1.
         11   -1    0    0    0    0 -0.00000000000E+00 -0.00000000000E+00 -0.45593999997E+02  0.45594000000E+02  0.51100000000E-03 0. -1.
    9900012    2    1    2    0    0 -0.27107605598E+01 -0.70170848008E+01 -0.17149056728E+02  0.72461605564E+02  0.70000045945E+02 0.  0.
        -12    1    1    2    0    0  0.27107605598E+01  0.70170848008E+01  0.17149056728E+02  0.18726394436E+02  0.00000000000E+00 0.  1.
         11    1    3    3    0    0 -0.59916392926E+01 -0.28195870332E+02 -0.30921517329E+02  0.42273479623E+02  0.51100000000E-03 0. -1.
        -11    1    3    3    0    0 -0.25227511092E+01 -0.10010426118E+01 -0.10246802366E+01  0.29010910565E+01  0.51100000000E-03 0.  1.
         12    1    3    3    0    0  0.58036298421E+01  0.22179828143E+02  0.14797140838E+02  0.27287034885E+02  0.00000000000E+00 0. -1.
</event>
<event>
 7    1  0.2809593E-013  0.7246158E+02  0.7816164E-02  0.1226708E+00
        -11   -1    0    0    0    0  0.00000000000E+00  0.00000000000E+00  0.45593999997E+02  0.45594000000E+02  0.51100000000E-03 0. -1.
         11   -1    0    0    0    0 -0.00000000000E+00 -0.00000000000E+00 -0.45593999997E+02  0.45594000000E+02  0.51100000000E-03 0.  1.
    9900012    2    1    2    0    0 -0.11889554114E+02  0.71676045747E+01  0.12567521714E+02  0.72461584049E+02  0.70000017917E+02 0.  0.
        -12    1    1    2    0    0  0.11889554114E+02 -0.71676045747E+01 -0.12567521714E+02  0.18726415951E+02  0.00000000000E+00 0.  1.
         11    1    3    3    0    0 -0.43705835464E+01  0.20308371421E+02  0.22726361255E+02  0.30789924431E+02  0.51100000000E-03 0. -1.
        -11    1    3    3    0    0 -0.13267749548E+02  0.96232316121E+01 -0.84159246359E+00  0.16411826311E+02  0.51100000000E-03 0.  1.
        -12    1    3    3    0    0  0.57487789806E+01 -0.22763998458E+02 -0.93172470775E+01  0.25259833307E+02  0.00000000000E+00 0.  1.
</event>
<event>
 7    1  0.2809593E-013  0.7246155E+02  0.7816164E-02  0.1226708E+00
        -11   -1    0    0    0    0  0.00000000000E+00  0.00000000000E+00  0.45593999997E+02  0.45594000000E+02  0.51100000000E-03 0. -1.
         11   -1    0    0    0    0 -0.00000000000E+00 -0.00000000000E+00 -0.45593999997E+02  0.45594000000E+02  0.51100000000E-03 0.  1.
    9900012    2    1    2    0    0  0.58015604851E+01  0.12579436623E+02 -0.12600784092E+02  0.72461545730E+02  0.69999968000E+02 0.  0.
        -12    1    1    2    0    0 -0.58015604851E+01 -0.12579436623E+02  0.12600784092E+02  0.18726454270E+02  0.00000000000E+00 0.  1.
         11    1    3    3    0    0 -0.15615254690E+02 -0.71395581699E+01 -0.94302890659E+01  0.19589278242E+02  0.51100000000E-03 0. -1.
        -11    1    3    3    0    0  0.91999955004E+01 -0.51671164335E+01 -0.18422715844E+02  0.21230531524E+02  0.51100000000E-03 0.  1.
         12    1    3    3    0    0  0.12216819675E+02  0.24886111226E+02  0.15252220819E+02  0.31641735964E+02  0.00000000000E+00 0. -1.
</event>
<event>
 7    1  0.2809593E-013  0.7246156E+02  0.7816164E-02  0.1226708E+00
        -11   -1    0    0    0    0  0.00000000000E+00  0.00000000000E+00  0.45593999997E+02  0.45594000000E+02  0.51100000000E-03 0.  1.
         11   -1    0    0    0    0 -0.00000000000E+00 -0.00000000000E+00 -0.45593999997E+02  0.45594000000E+02  0.51100000000E-03 0. -1.
    9900012    2    1    2    0    0  0.13747764285E+02  0.10571450211E+02 -0.70656243954E+01  0.72461557986E+02  0.69999983966E+02 0.  0.
        -12    1    1    2    0    0 -0.13747764285E+02 -0.10571450211E+02  0.70656243954E+01  0.18726442014E+02  0.00000000000E+00 0.  1.
         11    1    3    3    0    0 -0.13876033707E+02  0.25617496175E+02 -0.10194810786E+02  0.30866399028E+02  0.51100000000E-03 0. -1.
        -11    1    3    3    0    0 -0.94496211438E+00  0.67373938425E+00  0.84730124767E+01  0.85521236454E+01  0.51100000000E-03 0.  1.
        -12    1    3    3    0    0  0.28568760107E+02 -0.15719785349E+02 -0.53438260858E+01  0.33043035313E+02  0.00000000000E+00 0.  1.
</event>
<event>
 7    1  0.2809593E-013  0.7246151E+02  0.7816164E-02  0.1226708E+00
        -11   -1    0    0    0    0  0.00000000000E+00  0.00000000000E+00  0.45593999997E+02  0.45594000000E+02  0.51100000000E-03 0.  1.
         11   -1    0    0    0    0 -0.00000000000E+00 -0.00000000000E+00 -0.45593999997E+02  0.45594000000E+02  0.51100000000E-03 0. -1.
    9900012    2    1    2    0    0 -0.11026331554E+02  0.44441759477E+01 -0.14468954941E+02  0.72461512223E+02  0.69999924351E+02 0.  0.
        -12    1    1    2    0    0  0.11026331554E+02 -0.44441759477E+01  0.14468954941E+02  0.18726487777E+02  0.00000000000E+00 0.  1.
         11    1    3    3    0    0  0.34507813553E+01  0.22324952196E+02 -0.15562548553E+02  0.27431811829E+02  0.51100000000E-03 0. -1.
        -11    1    3    3    0    0  0.10536199160E+02  0.90469510296E+00  0.76703896324E+01  0.13063875510E+02  0.51100000000E-03 0.  1.
         12    1    3    3    0    0 -0.25013312069E+02 -0.18785471351E+02 -0.65767960201E+01  0.31965824883E+02  0.00000000000E+00 0. -1.
</event>
<event>
 7    1  0.2809593E-013  0.7246158E+02  0.7816164E-02  0.1226708E+00
        -11   -1    0    0    0    0  0.00000000000E+00  0.00000000000E+00  0.45593999997E+02  0.45594000000E+02  0.51100000000E-03 0. -1.
         11   -1    0    0    0    0 -0.00000000000E+00 -0.00000000000E+00 -0.45593999997E+02  0.45594000000E+02  0.51100000000E-03 0.  1.
    9900012    2    1    2    0    0 -0.28257567353E+01 -0.17964030726E+02 -0.44707564700E+01  0.72461575769E+02  0.70000007132E+02 0.  0.
        -12    1    1    2    0    0  0.28257567353E+01  0.17964030726E+02  0.44707564700E+01  0.18726424231E+02  0.00000000000E+00 0.  1.
         11    1    3    3    0    0 -0.19045376712E+02 -0.95502710126E-01 -0.30521806165E+01  0.19288631409E+02  0.51100000000E-03 0. -1.
        -11    1    3    3    0    0 -0.14023145088E+02 -0.18033981993E+02  0.70346564635E+00  0.22855370679E+02  0.51100000000E-03 0.  1.
         12    1    3    3    0    0  0.30242765065E+02  0.16545397691E+00 -0.21220414998E+01  0.30317573681E+02  0.00000000000E+00 0. -1.
</event>
<event>
 7    1  0.2809593E-013  0.7246156E+02  0.7816164E-02  0.1226708E+00
        -11   -1    0    0    0    0  0.00000000000E+00  0.00000000000E+00  0.45593999997E+02  0.45594000000E+02  0.51100000000E-03 0.  1.
         11   -1    0    0    0    0 -0.00000000000E+00 -0.00000000000E+00 -0.45593999997E+02  0.45594000000E+02  0.51100000000E-03 0. -1.
    9900012    2    1    2    0    0 -0.11893197347E+02  0.14240312697E+02 -0.25386812528E+01  0.72461560099E+02  0.69999986719E+02 0.  0.
        -12    1    1    2    0    0  0.11893197347E+02 -0.14240312697E+02  0.25386812528E+01  0.18726439901E+02  0.00000000000E+00 0.  1.
         11    1    3    3    0    0 -0.27381908126E+01  0.18512317433E+02 -0.22005491764E+02  0.28886766065E+02  0.51100000000E-03 0. -1.
        -11    1    3    3    0    0 -0.17353184074E+01  0.51393069812E+01 -0.10214438269E+02  0.11565403393E+02  0.51100000000E-03 0.  1.
        -12    1    3    3    0    0 -0.74196881271E+01 -0.94113117167E+01  0.29681248780E+02  0.32009390642E+02  0.00000000000E+00 0.  1.
</event>
<event>
 7    1  0.2809593E-013  0.7246176E+02  0.7816164E-02  0.1226708E+00
        -11   -1    0    0    0    0  0.00000000000E+00  0.00000000000E+00  0.45593999997E+02  0.45594000000E+02  0.51100000000E-03 0. -1.
         11   -1    0    0    0    0 -0.00000000000E+00 -0.00000000000E+00 -0.45593999997E+02  0.45594000000E+02  0.51100000000E-03 0.  1.
    9900012    2    1    2    0    0 -0.12785926087E+02 -0.14314608112E+01  0.13606724689E+02  0.72461763253E+02  0.70000251364E+02 0.  0.
        -12    1    1    2    0    0  0.12785926087E+02  0.14314608112E+01 -0.13606724689E+02  0.18726236747E+02  0.00000000000E+00 0.  1.
         11    1    3    3    0    0 -0.32701808043E+02  0.93336496713E+01  0.10255092733E+02  0.35520306766E+02  0.51100000000E-03 0. -1.
        -11    1    3    3    0    0 -0.44816585520E+01  0.49425228013E+01  0.42505636711E+01  0.79108208677E+01  0.51100000000E-03 0.  1.
        -12    1    3    3    0    0  0.24397540508E+02 -0.15707633284E+02 -0.89893171482E+00  0.29030635619E+02  0.00000000000E+00 0.  1.
</event>
<event>
 7    1  0.2809593E-013  0.7246160E+02  0.7816164E-02  0.1226708E+00
        -11   -1    0    0    0    0  0.00000000000E+00  0.00000000000E+00  0.45593999997E+02  0.45594000000E+02  0.51100000000E-03 0.  1.
         11   -1    0    0    0    0 -0.00000000000E+00 -0.00000000000E+00 -0.45593999997E+02  0.45594000000E+02  0.51100000000E-03 0. -1.
    9900012    2    1    2    0    0  0.63467460350E+01 -0.16464743145E+02 -0.62696975427E+01  0.72461599937E+02  0.70000038615E+02 0.  0.
        -12    1    1    2    0    0 -0.63467460350E+01  0.16464743145E+02  0.62696975427E+01  0.18726400063E+02  0.00000000000E+00 0.  1.
         11    1    3    3    0    0  0.23513387837E+02  0.61183888688E+01 -0.82065121896E+01  0.25644900711E+02  0.51100000000E-03 0. -1.
        -11    1    3    3    0    0  0.43508053388E+01 -0.18874954599E+02 -0.10141292715E+02  0.21864108406E+02  0.51100000000E-03 0.  1.
        -12    1    3    3    0    0 -0.21517447140E+02 -0.37081774144E+01  0.12078107362E+02  0.24952590820E+02  0.00000000000E+00 0.  1.
</event>
<event>
 7    1  0.2809593E-013  0.7246157E+02  0.7816164E-02  0.1226708E+00
        -11   -1    0    0    0    0  0.00000000000E+00  0.00000000000E+00  0.45593999997E+02  0.45594000000E+02  0.51100000000E-03 0. -1.
         11   -1    0    0    0    0 -0.00000000000E+00 -0.00000000000E+00 -0.45593999997E+02  0.45594000000E+02  0.51100000000E-03 0.  1.
    9900012    2    1    2    0    0 -0.61078910656E+01  0.16498400925E+02  0.64168280522E+01  0.72461568182E+02  0.69999997249E+02 0.  0.
        -12    1    1    2    0    0  0.61078910656E+01 -0.16498400925E+02 -0.64168280522E+01  0.18726431818E+02  0.00000000000E+00 0.  1.
         11    1    3    3    0    0  0.23012984622E+02  0.18339963984E+02  0.16448482451E+02  0.33712079665E+02  0.51100000000E-03 0. -1.
        -11    1    3    3    0    0 -0.20722360889E+01 -0.40447805968E+01  0.57709125331E+01  0.73456003301E+01  0.51100000000E-03 0.  1.
        -12    1    3    3    0    0 -0.27048639599E+02  0.22032175381E+01 -0.15802566932E+02  0.31403888187E+02  0.00000000000E+00 0.  1.
</event>
<event>
 7    1  0.2809593E-013  0.7246162E+02  0.7816164E-02  0.1226708E+00
        -11   -1    0    0    0    0  0.00000000000E+00  0.00000000000E+00  0.45593999997E+02  0.45594000000E+02  0.51100000000E-03 0. -1.
         11   -1    0    0    0    0 -0.00000000000E+00 -0.00000000000E+00 -0.45593999997E+02  0.45594000000E+02  0.51100000000E-03 0.  1.
    9900012    2    1    2    0    0  0.19487862001E+01  0.97578090612E+01  0.15863946802E+02  0.72461617181E+02  0.70000061079E+02 0.  0.
        -12    1    1    2    0    0 -0.19487862001E+01 -0.97578090612E+01 -0.15863946802E+02  0.18726382819E+02  0.00000000000E+00 0.  1.
         11    1    3    3    0    0  0.22410521087E+02  0.75672308458E+01  0.23839898402E+02  0.33583257647E+02  0.51100000000E-03 0. -1.
        -11    1    3    3    0    0  0.75611597468E+01 -0.39123548384E+01  0.15593618266E+01  0.86550139610E+01  0.51100000000E-03 0.  1.
        -12    1    3    3    0    0 -0.28022894634E+02  0.61029330538E+01 -0.95353134263E+01  0.30223345574E+02  0.00000000000E+00 0.  1.
</event>
<event>
 7    1  0.2809593E-013  0.7246145E+02  0.7816164E-02  0.1226708E+00
        -11   -1    0    0    0    0  0.00000000000E+00  0.00000000000E+00  0.45593999997E+02  0.45594000000E+02  0.51100000000E-03 0. -1.
         11   -1    0    0    0    0 -0.00000000000E+00 -0.00000000000E+00 -0.45593999997E+02  0.45594000000E+02  0.51100000000E-03 0.  1.
    9900012    2    1    2    0    0 -0.14819192552E+02  0.70062643878E+00  0.11427347528E+02  0.72461451551E+02  0.69999845315E+02 0.  0.
        -12    1    1    2    0    0  0.14819192552E+02 -0.70062643878E+00 -0.11427347528E+02  0.18726548449E+02  0.00000000000E+00 0.  1.
         11    1    3    3    0    0  0.10351182385E+02 -0.17958787326E+01  0.29271058236E+02  0.31099308798E+02  0.51100000000E-03 0. -1.
        -11    1    3    3    0    0 -0.27983543918E+01 -0.83896990521E+01  0.25363785687E+01  0.92006007408E+01  0.51100000000E-03 0.  1.
        -12    1    3    3    0    0 -0.22372020545E+02  0.10886204223E+02 -0.20380089277E+02  0.32161542012E+02  0.00000000000E+00 0.  1.
</event>
<event>
 7    1  0.2809593E-013  0.7246138E+02  0.7816164E-02  0.1226709E+00
        -11   -1    0    0    0    0  0.00000000000E+00  0.00000000000E+00  0.45593999997E+02  0.45594000000E+02  0.51100000000E-03 0.  1.
         11   -1    0    0    0    0 -0.00000000000E+00 -0.00000000000E+00 -0.45593999997E+02  0.45594000000E+02  0.51100000000E-03 0. -1.
    9900012    2    1    2    0    0  0.55650913051E+01 -0.93313925554E+01 -0.15252578625E+02  0.72461380365E+02  0.69999752581E+02 0.  0.
        -12    1    1    2    0    0 -0.55650913051E+01  0.93313925554E+01  0.15252578625E+02  0.18726619635E+02  0.00000000000E+00 0.  1.
         11    1    3    3    0    0  0.12668325321E+02  0.62472073159E+01 -0.30184839968E+01  0.14443867612E+02  0.51100000000E-03 0. -1.
        -11    1    3    3    0    0  0.10300548461E+01 -0.32969208169E+01  0.21201400332E+02  0.21480923541E+02  0.51100000000E-03 0.  1.
        -12    1    3    3    0    0 -0.81332888617E+01 -0.12281679054E+02 -0.33435494960E+02  0.36536589213E+02  0.00000000000E+00 0.  1.
</event>
<event>
 7    1  0.2809593E-013  0.7246127E+02  0.7816164E-02  0.1226709E+00
        -11   -1    0    0    0    0  0.00000000000E+00  0.00000000000E+00  0.45593999997E+02  0.45594000000E+02  0.51100000000E-03 0. -1.
         11   -1    0    0    0    0 -0.00000000000E+00 -0.00000000000E+00 -0.45593999997E+02  0.45594000000E+02  0.51100000000E-03 0.  1.
    9900012    2    1    2    0    0 -0.93012396222E+01  0.22756561232E+01  0.16093443618E+02  0.72461265187E+02  0.69999602539E+02 0.  0.
        -12    1    1    2    0    0  0.93012396222E+01 -0.22756561232E+01 -0.16093443618E+02  0.18726734813E+02  0.00000000000E+00 0.  1.
         11    1    3    3    0    0  0.56875000505E+01  0.28856798954E+01  0.59001152393E+01  0.86882774692E+01  0.51100000000E-03 0. -1.
        -11    1    3    3    0    0 -0.37248560319E+01  0.61837554297E+01 -0.25095011466E+02  0.26112697762E+02  0.51100000000E-03 0.  1.
         12    1    3    3    0    0 -0.11263883641E+02 -0.67937792019E+01  0.35288339844E+02  0.37660289955E+02  0.00000000000E+00 0. -1.
</event>
<event>
 7    1  0.2809593E-013  0.7246141E+02  0.7816164E-02  0.1226708E+00
        -11   -1    0    0    0    0  0.00000000000E+00  0.00000000000E+00  0.45593999997E+02  0.45594000000E+02  0.51100000000E-03 0. -1.
         11   -1    0    0    0    0 -0.00000000000E+00 -0.00000000000E+00 -0.45593999997E+02  0.45594000000E+02  0.51100000000E-03 0.  1.
    9900012    2    1    2    0    0  0.10739885421E+01  0.16124016189E+02  0.94629798623E+01  0.72461405613E+02  0.69999785472E+02 0.  0.
        -12    1    1    2    0    0 -0.10739885421E+01 -0.16124016189E+02 -0.94629798623E+01  0.18726594387E+02  0.00000000000E+00 0.  1.
         11    1    3    3    0    0 -0.72148037709E+01  0.13286080946E+01  0.83389101417E+01  0.11106575329E+02  0.51100000000E-03 0. -1.
        -11    1    3    3    0    0 -0.37614644869E+01  0.19975609135E+02  0.26137452797E+02  0.33111025571E+02  0.51100000000E-03 0.  1.
        -12    1    3    3    0    0  0.12050256800E+02 -0.51802010407E+01 -0.25013383076E+02  0.28243804713E+02  0.00000000000E+00 0.  1.
</event>
<event>
 7    1  0.2809593E-013  0.7246158E+02  0.7816164E-02  0.1226708E+00
        -11   -1    0    0    0    0  0.00000000000E+00  0.00000000000E+00  0.45593999997E+02  0.45594000000E+02  0.51100000000E-03 0. -1.
         11   -1    0    0    0    0 -0.00000000000E+00 -0.00000000000E+00 -0.45593999997E+02  0.45594000000E+02  0.51100000000E-03 0.  1.
    9900012    2    1    2    0    0  0.17560256006E+02 -0.11965995899E+01  0.63941004139E+01  0.72461575843E+02  0.70000007229E+02 0.  0.
        -12    1    1    2    0    0 -0.17560256006E+02  0.11965995899E+01 -0.63941004139E+01  0.18726424157E+02  0.00000000000E+00 0.  1.
         11    1    3    3    0    0  0.16294617768E+02  0.24408815024E+02  0.33122687522E+01  0.29534318067E+02  0.51100000000E-03 0. -1.
        -11    1    3    3    0    0  0.11191429081E+02 -0.22710770909E+01  0.11502046688E+02  0.16208113842E+02  0.51100000000E-03 0.  1.
        -12    1    3    3    0    0 -0.99257908429E+01 -0.23334337523E+02 -0.84202150266E+01  0.26719143935E+02  0.00000000000E+00 0.  1.
</event>
<event>
 7    1  0.2809593E-013  0.7246164E+02  0.7816164E-02  0.1226708E+00
        -11   -1    0    0    0    0  0.00000000000E+00  0.00000000000E+00  0.45593999997E+02  0.45594000000E+02  0.51100000000E-03 0.  1.
         11   -1    0    0    0    0 -0.00000000000E+00 -0.00000000000E+00 -0.45593999997E+02  0.45594000000E+02  0.51100000000E-03 0. -1.
    9900012    2    1    2    0    0 -0.32486737313E+01  0.17260455734E+02 -0.64960929045E+01  0.72461643275E+02  0.70000095071E+02 0.  0.
        -12    1    1    2    0    0  0.32486737313E+01 -0.17260455734E+02  0.64960929045E+01  0.18726356725E+02  0.00000000000E+00 0.  1.
         11    1    3    3    0    0 -0.53845711380E+01  0.17623260748E+02 -0.14181447121E+02  0.23252663684E+02  0.51100000000E-03 0. -1.
        -11    1    3    3    0    0 -0.16894648991E+00  0.19691160733E+02  0.17876894159E+02  0.26596121878E+02  0.51100000000E-03 0.  1.
         12    1    3    3    0    0  0.23048438966E+01 -0.20053965746E+02 -0.10191539942E+02  0.22612857713E+02  0.00000000000E+00 0. -1.
</event>
<event>
 7    1  0.2809593E-013  0.7246154E+02  0.7816164E-02  0.1226708E+00
        -11   -1    0    0    0    0  0.00000000000E+00  0.00000000000E+00  0.45593999997E+02  0.45594000000E+02  0.51100000000E-03 0. -1.
         11   -1    0    0    0    0 -0.00000000000E+00 -0.00000000000E+00 -0.45593999997E+02  0.45594000000E+02  0.51100000000E-03 0.  1.
    9900012    2    1    2    0    0 -0.78055765213E+01 -0.16472404587E+01  0.16942255006E+02  0.72461536622E+02  0.69999956136E+02 0.  0.
        -12    1    1    2    0    0  0.78055765213E+01  0.16472404587E+01 -0.16942255006E+02  0.18726463378E+02  0.00000000000E+00 0.  1.
         11    1    3    3    0    0 -0.43536590543E+01 -0.88707967042E+01  0.20632955833E+02  0.22877155592E+02  0.51100000000E-03 0. -1.
        -11    1    3    3    0    0  0.18445425686E+01 -0.45253415851E+01  0.21092175723E+02  0.21650887528E+02  0.51100000000E-03 0.  1.
        -12    1    3    3    0    0 -0.52964600357E+01  0.11748897831E+02 -0.24782876550E+02  0.27933493502E+02  0.00000000000E+00 0.  1.
</event>
<event>
 7    1  0.2809593E-013  0.7246170E+02  0.7816164E-02  0.1226708E+00
        -11   -1    0    0    0    0  0.00000000000E+00  0.00000000000E+00  0.45593999997E+02  0.45594000000E+02  0.51100000000E-03 0. -1.
         11   -1    0    0    0    0 -0.00000000000E+00 -0.00000000000E+00 -0.45593999997E+02  0.45594000000E+02  0.51100000000E-03 0.  1.
    9900012    2    1    2    0    0  0.10195862449E+02 -0.70911335592E+01 -0.14015510481E+02  0.72461699770E+02  0.70000168666E+02 0.  0.
        -12    1    1    2    0    0 -0.10195862449E+02  0.70911335592E+01  0.14015510481E+02  0.18726300230E+02  0.00000000000E+00 0.  1.
         11    1    3    3    0    0 -0.56570347552E+01 -0.58319563256E+01 -0.12799025973E+02  0.15160106296E+02  0.51100000000E-03 0. -1.
        -11    1    3    3    0    0  0.12238762902E+02 -0.26109282933E+02  0.89762861123E+01  0.30200259689E+02  0.51100000000E-03 0.  1.
         12    1    3    3    0    0  0.36141343030E+01  0.24850105699E+02 -0.10192770621E+02  0.27101333785E+02  0.00000000000E+00 0. -1.
</event>
<event>
 7    1  0.2809593E-013  0.7246154E+02  0.7816164E-02  0.1226708E+00
        -11   -1    0    0    0    0  0.00000000000E+00  0.00000000000E+00  0.45593999997E+02  0.45594000000E+02  0.51100000000E-03 0.  1.
         11   -1    0    0    0    0 -0.00000000000E+00 -0.00000000000E+00 -0.45593999997E+02  0.45594000000E+02  0.51100000000E-03 0. -1.
    9900012    2    1    2    0    0  0.17450753493E+02 -0.39939730825E+00 -0.67817431768E+01  0.72461538610E+02  0.69999958725E+02 0.  0.
        -12    1    1    2    0    0 -0.17450753493E+02  0.39939730825E+00  0.67817431768E+01  0.18726461390E+02  0.00000000000E+00 0.  1.
         11    1    3    3    0    0  0.26184691891E+02  0.20368168524E+02 -0.92693799122E+01  0.34444473906E+02  0.51100000000E-03 0. -1.
        -11    1    3    3    0    0 -0.12210625778E+02  0.33154562019E+01 -0.31518897457E+01  0.13039403397E+02  0.51100000000E-03 0.  1.
        -12    1    3    3    0    0  0.34766873799E+01 -0.24083022034E+02  0.56395264811E+01  0.24977661307E+02  0.00000000000E+00 0.  1.
</event>
<event>
 7    1  0.2809593E-013  0.7246153E+02  0.7816164E-02  0.1226708E+00
        -11   -1    0    0    0    0  0.00000000000E+00  0.00000000000E+00  0.45593999997E+02  0.45594000000E+02  0.51100000000E-03 0.  1.
         11   -1    0    0    0    0 -0.00000000000E+00 -0.00000000000E+00 -0.45593999997E+02  0.45594000000E+02  0.51100000000E-03 0. -1.
    9900012    2    1    2    0    0 -0.53207457053E+01 -0.15813655423E+01 -0.17884895484E+02  0.72461533747E+02  0.69999952391E+02 0.  0.
        -12    1    1    2    0    0  0.53207457053E+01  0.15813655423E+01  0.17884895484E+02  0.18726466253E+02  0.00000000000E+00 0.  1.
         11    1    3    3    0    0  0.28449553167E+02  0.68461253043E+01 -0.14056436344E+02  0.32462746496E+02  0.51100000000E-03 0. -1.
        -11    1    3    3    0    0 -0.30981947390E+01  0.52827284846E+01  0.39803112660E+00  0.61371377630E+01  0.51100000000E-03 0.  1.
        -12    1    3    3    0    0 -0.30672104134E+02 -0.13710219331E+02 -0.42264902671E+01  0.33861649488E+02  0.00000000000E+00 0.  1.
</event>
<event>
 7    1  0.2809593E-013  0.7246152E+02  0.7816164E-02  0.1226708E+00
        -11   -1    0    0    0    0  0.00000000000E+00  0.00000000000E+00  0.45593999997E+02  0.45594000000E+02  0.51100000000E-03 0.  1.
         11   -1    0    0    0    0 -0.00000000000E+00 -0.00000000000E+00 -0.45593999997E+02  0.45594000000E+02  0.51100000000E-03 0. -1.
    9900012    2    1    2    0    0  0.16781739998E+02  0.56895390600E+01  0.60566963462E+01  0.72461515474E+02  0.69999928587E+02 0.  0.
        -12    1    1    2    0    0 -0.16781739998E+02 -0.56895390600E+01 -0.60566963462E+01  0.18726484526E+02  0.00000000000E+00 0.  1.
         11    1    3    3    0    0  0.27989635729E+02  0.93969564640E+01 -0.10866033211E+01  0.29544935371E+02  0.51100000000E-03 0. -1.
        -11    1    3    3    0    0  0.80854929578E+01 -0.55988890115E+01  0.18135936096E+02  0.20630921765E+02  0.51100000000E-03 0.  1.
        -12    1    3    3    0    0 -0.19293388689E+02  0.18914716075E+01 -0.10992636428E+02  0.22285658339E+02  0.00000000000E+00 0.  1.
</event>
<event>
 7    1  0.2809593E-013  0.7246158E+02  0.7816164E-02  0.1226708E+00
        -11   -1    0    0    0    0  0.00000000000E+00  0.00000000000E+00  0.45593999997E+02  0.45594000000E+02  0.51100000000E-03 0. -1.
         11   -1    0    0    0    0 -0.00000000000E+00 -0.00000000000E+00 -0.45593999997E+02  0.45594000000E+02  0.51100000000E-03 0.  1.
    9900012    2    1    2    0    0 -0.15466902618E+00  0.51434849235E+01  0.18005540351E+02  0.72461579013E+02  0.70000011357E+02 0.  0.
        -12    1    1    2    0    0  0.15466902618E+00 -0.51434849235E+01 -0.18005540351E+02  0.18726420987E+02  0.00000000000E+00 0.  1.
         11    1    3    3    0    0 -0.32444471140E+01 -0.23770418348E+02  0.11989856485E+02  0.26820064957E+02  0.51100000000E-03 0. -1.
        -11    1    3    3    0    0  0.49002424559E+01  0.61976792532E+01 -0.13497814715E+02  0.15640160057E+02  0.51100000000E-03 0.  1.
        -12    1    3    3    0    0 -0.18104643680E+01  0.22716224018E+02  0.19513498581E+02  0.30001353999E+02  0.00000000000E+00 0.  1.
</event>
<event>
 7    1  0.2809593E-013  0.7246159E+02  0.7816164E-02  0.1226708E+00
        -11   -1    0    0    0    0  0.00000000000E+00  0.00000000000E+00  0.45593999997E+02  0.45594000000E+02  0.51100000000E-03 0.  1.
         11   -1    0    0    0    0 -0.00000000000E+00 -0.00000000000E+00 -0.45593999997E+02  0.45594000000E+02  0.51100000000E-03 0. -1.
    9900012    2    1    2    0    0 -0.24961880728E+01 -0.96701246624E+01 -0.15840962741E+02  0.72461591736E+02  0.70000027932E+02 0.  0.
        -12    1    1    2    0    0  0.24961880728E+01  0.96701246624E+01  0.15840962741E+02  0.18726408264E+02  0.00000000000E+00 0.  1.
         11    1    3    3    0    0 -0.83099465863E+01 -0.13089495582E+02  0.18251164695E+02  0.23947758138E+02  0.51100000000E-03 0.  1.
        -11    1    3    3    0    0 -0.64135669068E+01  0.95663070896E+01  0.27654971902E+00  0.11520614211E+02  0.51100000000E-03 0. -1.
         12    1    3    3    0    0  0.12227325420E+02 -0.61469361699E+01 -0.34368677155E+02  0.36993219387E+02  0.00000000000E+00 0. -1.
</event>
<event>
 7    1  0.2809593E-013  0.7246158E+02  0.7816164E-02  0.1226708E+00
        -11   -1    0    0    0    0  0.00000000000E+00  0.00000000000E+00  0.45593999997E+02  0.45594000000E+02  0.51100000000E-03 0.  1.
         11   -1    0    0    0    0 -0.00000000000E+00 -0.00000000000E+00 -0.45593999997E+02  0.45594000000E+02  0.51100000000E-03 0. -1.
    9900012    2    1    2    0    0  0.46522366431E+01 -0.61821445169E+01 -0.17053345387E+02  0.72461580014E+02  0.70000012662E+02 0.  0.
        -12    1    1    2    0    0 -0.46522366431E+01  0.61821445169E+01  0.17053345387E+02  0.18726419986E+02  0.00000000000E+00 0.  1.
         11    1    3    3    0    0 -0.35069827167E+01 -0.23844712938E+02 -0.27815386117E+02  0.36804415060E+02  0.51100000000E-03 0. -1.
        -11    1    3    3    0    0 -0.51074721412E+01  0.11080837177E+02 -0.57401285889E+01  0.13484075819E+02  0.51100000000E-03 0.  1.
        -12    1    3    3    0    0  0.13266691501E+02  0.65817312442E+01  0.16502169319E+02  0.22173089135E+02  0.00000000000E+00 0.  1.
</event>
<event>
 7    1  0.2809593E-013  0.7246158E+02  0.7816164E-02  0.1226708E+00
        -11   -1    0    0    0    0  0.00000000000E+00  0.00000000000E+00  0.45593999997E+02  0.45594000000E+02  0.51100000000E-03 0. -1.
         11   -1    0    0    0    0 -0.00000000000E+00 -0.00000000000E+00 -0.45593999997E+02  0.45594000000E+02  0.51100000000E-03 0.  1.
    9900012    2    1    2    0    0 -0.12029577353E+02 -0.12537711022E+02 -0.69838258994E+01  0.72461581411E+02  0.70000014482E+02 0.  0.
        -12    1    1    2    0    0  0.12029577353E+02  0.12537711022E+02  0.69838258994E+01  0.18726418589E+02  0.00000000000E+00 0.  1.
         11    1    3    3    0    0 -0.12378293763E+02 -0.65835816699E+00 -0.17344891626E+02  0.21319025722E+02  0.51100000000E-03 0. -1.
        -11    1    3    3    0    0 -0.19932921396E+02 -0.14692054759E+02 -0.53499828481E+01  0.25333774791E+02  0.51100000000E-03 0.  1.
         12    1    3    3    0    0  0.20281637806E+02  0.28127019041E+01  0.15711048575E+02  0.25808780898E+02  0.00000000000E+00 0. -1.
</event>
<event>
 7    1  0.2809593E-013  0.7246154E+02  0.7816164E-02  0.1226708E+00
        -11   -1    0    0    0    0  0.00000000000E+00  0.00000000000E+00  0.45593999997E+02  0.45594000000E+02  0.51100000000E-03 0.  1.
         11   -1    0    0    0    0 -0.00000000000E+00 -0.00000000000E+00 -0.45593999997E+02  0.45594000000E+02  0.51100000000E-03 0. -1.
    9900012    2    1    2    0    0 -0.10905320242E+02 -0.15214471786E+02 -0.52351431951E+00  0.72461542018E+02  0.69999963164E+02 0.  0.
        -12    1    1    2    0    0  0.10905320242E+02  0.15214471786E+02  0.52351431951E+00  0.18726457982E+02  0.00000000000E+00 0.  1.
         11    1    3    3    0    0 -0.27920489296E+01 -0.28940288454E+02  0.17048336082E+01  0.29124599412E+02  0.51100000000E-03 0. -1.
        -11    1    3    3    0    0  0.86037400987E+01 -0.10669365728E+02 -0.67040660744E+00  0.13722578257E+02  0.51100000000E-03 0.  1.
        -12    1    3    3    0    0 -0.16717011412E+02  0.24395182396E+02 -0.15579413203E+01  0.29614364349E+02  0.00000000000E+00 0.  1.
</event>
<event>
 7    1  0.2809593E-013  0.7246158E+02  0.7816164E-02  0.1226708E+00
        -11   -1    0    0    0    0  0.00000000000E+00  0.00000000000E+00  0.45593999997E+02  0.45594000000E+02  0.51100000000E-03 0. -1.
         11   -1    0    0    0    0 -0.00000000000E+00 -0.00000000000E+00 -0.45593999997E+02  0.45594000000E+02  0.51100000000E-03 0.  1.
    9900012    2    1    2    0    0  0.97436679333E+01 -0.95733316636E+01 -0.12809810242E+02  0.72461575291E+02  0.70000006510E+02 0.  0.
        -12    1    1    2    0    0 -0.97436679333E+01  0.95733316636E+01  0.12809810242E+02  0.18726424709E+02  0.00000000000E+00 0.  1.
         11    1    3    3    0    0  0.74345577842E+01  0.69003403949E+01  0.15938971734E+02  0.18892807288E+02  0.51100000000E-03 0. -1.
        -11    1    3    3    0    0  0.21417176596E+01  0.14278997056E+02 -0.86876486320E+01  0.16850873879E+02  0.51100000000E-03 0.  1.
        -12    1    3    3    0    0  0.16739248947E+00 -0.30752669115E+02 -0.20061133344E+02  0.36717894125E+02  0.00000000000E+00 0.  1.
</event>
<event>
 7    1  0.2809593E-013  0.7246172E+02  0.7816164E-02  0.1226708E+00
        -11   -1    0    0    0    0  0.00000000000E+00  0.00000000000E+00  0.45593999997E+02  0.45594000000E+02  0.51100000000E-03 0.  1.
         11   -1    0    0    0    0 -0.00000000000E+00 -0.00000000000E+00 -0.45593999997E+02  0.45594000000E+02  0.51100000000E-03 0. -1.
    9900012    2    1    2    0    0  0.13892713524E+02 -0.12381380815E+02  0.20898276686E+01  0.72461722750E+02  0.70000198602E+02 0.  0.
        -12    1    1    2    0    0 -0.13892713524E+02  0.12381380815E+02 -0.20898276686E+01  0.18726277250E+02  0.00000000000E+00 0.  1.
         11    1    3    3    0    0  0.23036620084E+02 -0.21710278270E+02  0.12105394603E+01  0.31677870090E+02  0.51100000000E-03 0. -1.
        -11    1    3    3    0    0  0.91018843416E+01  0.16998876889E+02  0.62602719542E+01  0.20273063884E+02  0.51100000000E-03 0.  1.
        -12    1    3    3    0    0 -0.18245790901E+02 -0.76699794342E+01 -0.53809837458E+01  0.20510788776E+02  0.00000000000E+00 0.  1.
</event>
<event>
 7    1  0.2809593E-013  0.7246174E+02  0.7816164E-02  0.1226708E+00
        -11   -1    0    0    0    0  0.00000000000E+00  0.00000000000E+00  0.45593999997E+02  0.45594000000E+02  0.51100000000E-03 0.  1.
         11   -1    0    0    0    0 -0.00000000000E+00 -0.00000000000E+00 -0.45593999997E+02  0.45594000000E+02  0.51100000000E-03 0. -1.
    9900012    2    1    2    0    0  0.16460033971E+02 -0.88723805554E+01  0.10103474951E+01  0.72461744178E+02  0.70000226516E+02 0.  0.
        -12    1    1    2    0    0 -0.16460033971E+02  0.88723805554E+01 -0.10103474951E+01  0.18726255822E+02  0.00000000000E+00 0.  1.
         11    1    3    3    0    0  0.28807696855E+02 -0.12554184648E+02 -0.56164447343E+01  0.31922333905E+02  0.51100000000E-03 0. -1.
        -11    1    3    3    0    0 -0.29097669093E+00  0.19640081850E+02  0.59638679869E+01  0.20527669232E+02  0.51100000000E-03 0.  1.
        -12    1    3    3    0    0 -0.12056686193E+02 -0.15958277757E+02  0.66292424256E+00  0.20011741041E+02  0.00000000000E+00 0.  1.
</event>
<event>
 7    1  0.2809593E-013  0.7246154E+02  0.7816164E-02  0.1226708E+00
        -11   -1    0    0    0    0  0.00000000000E+00  0.00000000000E+00  0.45593999997E+02  0.45594000000E+02  0.51100000000E-03 0.  1.
         11   -1    0    0    0    0 -0.00000000000E+00 -0.00000000000E+00 -0.45593999997E+02  0.45594000000E+02  0.51100000000E-03 0. -1.
    9900012    2    1    2    0    0  0.10601715091E+02  0.15316776521E+02 -0.19184006676E+01  0.72461540992E+02  0.69999961828E+02 0.  0.
        -12    1    1    2    0    0 -0.10601715091E+02 -0.15316776521E+02  0.19184006676E+01  0.18726459008E+02  0.00000000000E+00 0.  1.
         11    1    3    3    0    0 -0.13265747333E+02  0.18655982983E+01 -0.20891716015E+02  0.24817822379E+02  0.51100000000E-03 0. -1.
        -11    1    3    3    0    0  0.16577781984E+02  0.17025345229E+02 -0.32495508769E+01  0.23984261858E+02  0.51100000000E-03 0.  1.
        -12    1    3    3    0    0  0.72896804395E+01 -0.35741670063E+01  0.22222866225E+02  0.23659456755E+02  0.00000000000E+00 0.  1.
</event>
<event>
 7    1  0.2809593E-013  0.7246153E+02  0.7816164E-02  0.1226708E+00
        -11   -1    0    0    0    0  0.00000000000E+00  0.00000000000E+00  0.45593999997E+02  0.45594000000E+02  0.51100000000E-03 0. -1.
         11   -1    0    0    0    0 -0.00000000000E+00 -0.00000000000E+00 -0.45593999997E+02  0.45594000000E+02  0.51100000000E-03 0.  1.
    9900012    2    1    2    0    0 -0.20922402744E+01  0.18244283305E+01  0.18519578915E+02  0.72461526459E+02  0.69999942897E+02 0.  0.
        -12    1    1    2    0    0  0.20922402744E+01 -0.18244283305E+01 -0.18519578915E+02  0.18726473541E+02  0.00000000000E+00 0.  1.
         11    1    3    3    0    0  0.70296088510E+01 -0.92348907778E+01 -0.65893444527E+01  0.13346088148E+02  0.51100000000E-03 0. -1.
        -11    1    3    3    0    0  0.67132636696E+01 -0.46907481850E+01 -0.12753501151E+02  0.15156609763E+02  0.51100000000E-03 0.  1.
         12    1    3    3    0    0 -0.15835112795E+02  0.15750067293E+02  0.37862424518E+02  0.43958828549E+02  0.00000000000E+00 0. -1.
</event>
<event>
 7    1  0.2809593E-013  0.7246157E+02  0.7816164E-02  0.1226708E+00
        -11   -1    0    0    0    0  0.00000000000E+00  0.00000000000E+00  0.45593999997E+02  0.45594000000E+02  0.51100000000E-03 0.  1.
         11   -1    0    0    0    0 -0.00000000000E+00 -0.00000000000E+00 -0.45593999997E+02  0.45594000000E+02  0.51100000000E-03 0. -1.
    9900012    2    1    2    0    0  0.17830502227E+02  0.51380426140E+01  0.25205138018E+01  0.72461567307E+02  0.69999996108E+02 0.  0.
        -12    1    1    2    0    0 -0.17830502227E+02 -0.51380426140E+01 -0.25205138018E+01  0.18726432693E+02  0.00000000000E+00 0.  1.
         11    1    3    3    0    0  0.78550082066E+01 -0.23445918950E+01 -0.21037031765E+02  0.22577753892E+02  0.51100000000E-03 0. -1.
        -11    1    3    3    0    0  0.12242075484E+02  0.16295570613E+02 -0.40805981065E+01  0.20786180865E+02  0.51100000000E-03 0.  1.
        -12    1    3    3    0    0 -0.22665814639E+01 -0.88129361044E+01  0.27638143673E+02  0.29097632550E+02  0.00000000000E+00 0.  1.
</event>
<event>
 7    1  0.2809593E-013  0.7246151E+02  0.7816164E-02  0.1226708E+00
        -11   -1    0    0    0    0  0.00000000000E+00  0.00000000000E+00  0.45593999997E+02  0.45594000000E+02  0.51100000000E-03 0. -1.
         11   -1    0    0    0    0 -0.00000000000E+00 -0.00000000000E+00 -0.45593999997E+02  0.45594000000E+02  0.51100000000E-03 0.  1.
    9900012    2    1    2    0    0  0.80408105361E+01 -0.16769460415E+02  0.21936526192E+01  0.72461506776E+02  0.69999917255E+02 0.  0.
        -12    1    1    2    0    0 -0.80408105361E+01  0.16769460415E+02 -0.21936526192E+01  0.18726493224E+02  0.00000000000E+00 0.  1.
         11    1    3    3    0    0 -0.25456026558E+02  0.13950343863E+01  0.73461189757E+01  0.26531507182E+02  0.51100000000E-03 0. -1.
        -11    1    3    3    0    0 -0.41858939918E+00  0.47118756083E+01 -0.57353302762E+00  0.47650738953E+01  0.51100000000E-03 0.  1.
         12    1    3    3    0    0  0.33915426493E+02 -0.22876370409E+02 -0.45789333289E+01  0.41164925698E+02  0.00000000000E+00 0. -1.
</event>
<event>
 7    1  0.2809593E-013  0.7246158E+02  0.7816164E-02  0.1226708E+00
        -11   -1    0    0    0    0  0.00000000000E+00  0.00000000000E+00  0.45593999997E+02  0.45594000000E+02  0.51100000000E-03 0. -1.
         11   -1    0    0    0    0 -0.00000000000E+00 -0.00000000000E+00 -0.45593999997E+02  0.45594000000E+02  0.51100000000E-03 0.  1.
    9900012    2    1    2    0    0  0.10065592504E+02  0.70262255770E+00  0.15775581308E+02  0.72461580253E+02  0.70000012974E+02 0.  0.
        -12    1    1    2    0    0 -0.10065592504E+02 -0.70262255770E+00 -0.15775581308E+02  0.18726419747E+02  0.00000000000E+00 0.  1.
         11    1    3    3    0    0 -0.22484639479E+02 -0.50573400627E+01  0.10759488269E+02  0.25434273905E+02  0.51100000000E-03 0. -1.
        -11    1    3    3    0    0 -0.56469634015E+01 -0.20034809362E+00  0.61494260839E+01  0.83512739411E+01  0.51100000000E-03 0.  1.
        -12    1    3    3    0    0  0.38197195384E+02  0.59603107140E+01 -0.11333330445E+01  0.38676032407E+02  0.00000000000E+00 0.  1.
</event>
<event>
 7    1  0.2809593E-013  0.7246155E+02  0.7816164E-02  0.1226708E+00
        -11   -1    0    0    0    0  0.00000000000E+00  0.00000000000E+00  0.45593999997E+02  0.45594000000E+02  0.51100000000E-03 0.  1.
         11   -1    0    0    0    0 -0.00000000000E+00 -0.00000000000E+00 -0.45593999997E+02  0.45594000000E+02  0.51100000000E-03 0. -1.
    9900012    2    1    2    0    0 -0.11021592405E+02  0.14740597443E+02 -0.34524188001E+01  0.72461550585E+02  0.69999974324E+02 0.  0.
        -12    1    1    2    0    0  0.11021592405E+02 -0.14740597443E+02  0.34524188001E+01  0.18726449415E+02  0.00000000000E+00 0.  1.
         11    1    3    3    0    0 -0.48628513349E+01  0.91998874726E+01 -0.94119684032E+01  0.14031051354E+02  0.51100000000E-03 0. -1.
        -11    1    3    3    0    0  0.15835381319E+02  0.87753305673E+01 -0.18150268529E+02  0.25635872835E+02  0.51100000000E-03 0.  1.
        -12    1    3    3    0    0 -0.21994122389E+02 -0.32346205965E+01  0.24109818132E+02  0.32794626396E+02  0.00000000000E+00 0.  1.
</event>
<event>
 7    1  0.2809593E-013  0.7246155E+02  0.7816164E-02  0.1226708E+00
        -11   -1    0    0    0    0  0.00000000000E+00  0.00000000000E+00  0.45593999997E+02  0.45594000000E+02  0.51100000000E-03 0.  1.
         11   -1    0    0    0    0 -0.00000000000E+00 -0.00000000000E+00 -0.45593999997E+02  0.45594000000E+02  0.51100000000E-03 0. -1.
    9900012    2    1    2    0    0 -0.16651952889E+02  0.25611888352E+01 -0.81751376376E+01  0.72461545486E+02  0.69999967682E+02 0.  0.
        -12    1    1    2    0    0  0.16651952889E+02 -0.25611888352E+01  0.81751376376E+01  0.18726454514E+02  0.00000000000E+00 0.  1.
         11    1    3    3    0    0  0.40407467133E+01 -0.29547203449E+02 -0.24211571093E+01  0.29920342038E+02  0.51100000000E-03 0. -1.
        -11    1    3    3    0    0 -0.18004096593E+02  0.11959887886E+02 -0.50774222279E+01  0.22202851824E+02  0.51100000000E-03 0.  1.
        -12    1    3    3    0    0 -0.26886030098E+01  0.20148504398E+02 -0.67655830038E+00  0.20338351624E+02  0.00000000000E+00 0.  1.
</event>
<event>
 7    1  0.2809593E-013  0.7246160E+02  0.7816164E-02  0.1226708E+00
        -11   -1    0    0    0    0  0.00000000000E+00  0.00000000000E+00  0.45593999997E+02  0.45594000000E+02  0.51100000000E-03 0.  1.
         11   -1    0    0    0    0 -0.00000000000E+00 -0.00000000000E+00 -0.45593999997E+02  0.45594000000E+02  0.51100000000E-03 0. -1.
    9900012    2    1    2    0    0 -0.29858134821E+00  0.11410427142E+02 -0.14845572565E+02  0.72461600902E+02  0.70000039873E+02 0.  0.
        -12    1    1    2    0    0  0.29858134821E+00 -0.11410427142E+02  0.14845572565E+02  0.18726399098E+02  0.00000000000E+00 0.  1.
         11    1    3    3    0    0  0.24457131105E+02 -0.51180479276E+01 -0.52590955145E+01  0.25534364342E+02  0.51100000000E-03 0. -1.
        -11    1    3    3    0    0 -0.17261669802E+02  0.10371366664E+02  0.11873287688E+02  0.23377456055E+02  0.51100000000E-03 0.  1.
         12    1    3    3    0    0 -0.74940426508E+01  0.61571084056E+01 -0.21459764739E+02  0.23549780505E+02  0.00000000000E+00 0. -1.
</event>
<event>
 7    1  0.2809593E-013  0.7246157E+02  0.7816164E-02  0.1226708E+00
        -11   -1    0    0    0    0  0.00000000000E+00  0.00000000000E+00  0.45593999997E+02  0.45594000000E+02  0.51100000000E-03 0. -1.
         11   -1    0    0    0    0 -0.00000000000E+00 -0.00000000000E+00 -0.45593999997E+02  0.45594000000E+02  0.51100000000E-03 0.  1.
    9900012    2    1    2    0    0  0.49759835136E+01 -0.35072782473E+01  0.17709255862E+02  0.72461570660E+02  0.70000000477E+02 0.  0.
        -12    1    1    2    0    0 -0.49759835136E+01  0.35072782473E+01 -0.17709255862E+02  0.18726429340E+02  0.00000000000E+00 0.  1.
         11    1    3    3    0    0 -0.44980264149E+01 -0.81027219122E-01  0.15928387328E+02  0.16551505375E+02  0.51100000000E-03 0. -1.
        -11    1    3    3    0    0 -0.20715651681E+02 -0.12328014402E+02  0.36440405402E+01  0.24380262414E+02  0.51100000000E-03 0.  1.
         12    1    3    3    0    0  0.30189661609E+02  0.89017633734E+01 -0.18631720060E+01  0.31529802872E+02  0.00000000000E+00 0. -1.
</event>
<event>
 7    1  0.2809593E-013  0.7246159E+02  0.7816164E-02  0.1226708E+00
        -11   -1    0    0    0    0  0.00000000000E+00  0.00000000000E+00  0.45593999997E+02  0.45594000000E+02  0.51100000000E-03 0. -1.
         11   -1    0    0    0    0 -0.00000000000E+00 -0.00000000000E+00 -0.45593999997E+02  0.45594000000E+02  0.51100000000E-03 0.  1.
    9900012    2    1    2    0    0 -0.27662820628E+01  0.13938452955E+02  0.12196137142E+02  0.72461586878E+02  0.70000021604E+02 0.  0.
        -12    1    1    2    0    0  0.27662820628E+01 -0.13938452955E+02 -0.12196137142E+02  0.18726413122E+02  0.00000000000E+00 0.  1.
         11    1    3    3    0    0  0.16088304901E+02  0.34374367880E+01  0.61354145013E+01  0.17558269779E+02  0.51100000000E-03 0. -1.
        -11    1    3    3    0    0  0.30861787571E+01 -0.18171299704E+02  0.29424607259E+01  0.18664905776E+02  0.51100000000E-03 0.  1.
         12    1    3    3    0    0 -0.21940765721E+02  0.28672315871E+02  0.31182619145E+01  0.36238411323E+02  0.00000000000E+00 0. -1.
</event>
<event>
 7    1  0.2809593E-013  0.7246148E+02  0.7816164E-02  0.1226708E+00
        -11   -1    0    0    0    0  0.00000000000E+00  0.00000000000E+00  0.45593999997E+02  0.45594000000E+02  0.51100000000E-03 0.  1.
         11   -1    0    0    0    0 -0.00000000000E+00 -0.00000000000E+00 -0.45593999997E+02  0.45594000000E+02  0.51100000000E-03 0. -1.
    9900012    2    1    2    0    0  0.12021462292E+02  0.43600021577E+01 -0.13680542071E+02  0.72461483886E+02  0.69999887436E+02 0.  0.
        -12    1    1    2    0    0 -0.12021462292E+02 -0.43600021577E+01  0.13680542071E+02  0.18726516114E+02  0.00000000000E+00 0.  1.
         11    1    3    3    0    0  0.14524383588E+02  0.68364560181E+01  0.17532513946E+02  0.23771493327E+02  0.51100000000E-03 0. -1.
        -11    1    3    3    0    0  0.15828189947E+02  0.59753217733E+01 -0.17134996670E+02  0.24079953872E+02  0.51100000000E-03 0.  1.
        -12    1    3    3    0    0 -0.18331111243E+02 -0.84517756336E+01 -0.14078059346E+02  0.24610036687E+02  0.00000000000E+00 0.  1.
</event>
<event>
 7    1  0.2809593E-013  0.7246186E+02  0.7816164E-02  0.1226707E+00
        -11   -1    0    0    0    0  0.00000000000E+00  0.00000000000E+00  0.45593999997E+02  0.45594000000E+02  0.51100000000E-03 0.  1.
         11   -1    0    0    0    0 -0.00000000000E+00 -0.00000000000E+00 -0.45593999997E+02  0.45594000000E+02  0.51100000000E-03 0. -1.
    9900012    2    1    2    0    0  0.91104756226E+01  0.16295595037E+02 -0.14563620268E+01  0.72461863879E+02  0.70000382448E+02 0.  0.
        -12    1    1    2    0    0 -0.91104756226E+01 -0.16295595037E+02  0.14563620268E+01  0.18726136121E+02  0.00000000000E+00 0.  1.
         11    1    3    3    0    0 -0.26429820637E+01  0.12839603608E+01  0.35909905266E+01  0.46399484502E+01  0.51100000000E-03 0. -1.
        -11    1    3    3    0    0 -0.23759712734E+02 -0.76293754807E+01  0.23338845986E+01  0.25063486130E+02  0.51100000000E-03 0.  1.
         12    1    3    3    0    0  0.35513170420E+02  0.22641010157E+02 -0.73812371520E+01  0.42758429299E+02  0.00000000000E+00 0. -1.
</event>
<event>
 7    1  0.2809593E-013  0.7246160E+02  0.7816164E-02  0.1226708E+00
        -11   -1    0    0    0    0  0.00000000000E+00  0.00000000000E+00  0.45593999997E+02  0.45594000000E+02  0.51100000000E-03 0.  1.
         11   -1    0    0    0    0 -0.00000000000E+00 -0.00000000000E+00 -0.45593999997E+02  0.45594000000E+02  0.51100000000E-03 0. -1.
    9900012    2    1    2    0    0  0.14451700588E+02  0.38802527372E+01  0.11259224245E+02  0.72461597735E+02  0.70000035747E+02 0.  0.
        -12    1    1    2    0    0 -0.14451700588E+02 -0.38802527372E+01 -0.11259224245E+02  0.18726402265E+02  0.00000000000E+00 0.  1.
         11    1    3    3    0    0  0.10170187750E+02  0.93215068769E+01  0.16174804971E+02  0.21259057492E+02  0.51100000000E-03 0. -1.
        -11    1    3    3    0    0  0.73808167472E+01  0.86309539523E+01  0.19665660153E+02  0.22709205435E+02  0.51100000000E-03 0.  1.
         12    1    3    3    0    0 -0.30993039092E+01 -0.14072208092E+02 -0.24581240879E+02  0.28493334808E+02  0.00000000000E+00 0. -1.
</event>
<event>
 7    1  0.2809593E-013  0.7246150E+02  0.7816164E-02  0.1226708E+00
        -11   -1    0    0    0    0  0.00000000000E+00  0.00000000000E+00  0.45593999997E+02  0.45594000000E+02  0.51100000000E-03 0. -1.
         11   -1    0    0    0    0 -0.00000000000E+00 -0.00000000000E+00 -0.45593999997E+02  0.45594000000E+02  0.51100000000E-03 0.  1.
    9900012    2    1    2    0    0 -0.13385914624E+02  0.42223676724E+01  0.12396401707E+02  0.72461498074E+02  0.69999905920E+02 0.  0.
        -12    1    1    2    0    0  0.13385914624E+02 -0.42223676724E+01 -0.12396401707E+02  0.18726501926E+02  0.00000000000E+00 0.  1.
         11    1    3    3    0    0 -0.41040894292E+01  0.59330088519E+01  0.19446880833E+02  0.20741873553E+02  0.51100000000E-03 0. -1.
        -11    1    3    3    0    0  0.14580526171E+02  0.11134496982E+02 -0.14757878503E+02  0.23544930339E+02  0.51100000000E-03 0.  1.
         12    1    3    3    0    0 -0.23862351366E+02 -0.12845138162E+02  0.77073993780E+01  0.28174694183E+02  0.00000000000E+00 0. -1.
</event>
<event>
 7    1  0.2809593E-013  0.7246157E+02  0.7816164E-02  0.1226708E+00
        -11   -1    0    0    0    0  0.00000000000E+00  0.00000000000E+00  0.45593999997E+02  0.45594000000E+02  0.51100000000E-03 0. -1.
         11   -1    0    0    0    0 -0.00000000000E+00 -0.00000000000E+00 -0.45593999997E+02  0.45594000000E+02  0.51100000000E-03 0.  1.
    9900012    2    1    2    0    0  0.16668990805E+02 -0.31752660849E+01  0.79209656038E+01  0.72461567738E+02  0.69999996669E+02 0.  0.
        -12    1    1    2    0    0 -0.16668990805E+02  0.31752660849E+01 -0.79209656038E+01  0.18726432262E+02  0.00000000000E+00 0.  1.
         11    1    3    3    0    0  0.19663984267E+02 -0.24949927892E+02  0.13825351011E+02  0.34645512118E+02  0.51100000000E-03 0. -1.
        -11    1    3    3    0    0 -0.11900839189E+01  0.74489852080E+01  0.12392679086E+02  0.14508003845E+02  0.51100000000E-03 0.  1.
        -12    1    3    3    0    0 -0.18049095430E+01  0.14325676599E+02 -0.18297064494E+02  0.23308051775E+02  0.00000000000E+00 0.  1.
</event>
<event>
 7    1  0.2809593E-013  0.7246153E+02  0.7816164E-02  0.1226708E+00
        -11   -1    0    0    0    0  0.00000000000E+00  0.00000000000E+00  0.45593999997E+02  0.45594000000E+02  0.51100000000E-03 0.  1.
         11   -1    0    0    0    0 -0.00000000000E+00 -0.00000000000E+00 -0.45593999997E+02  0.45594000000E+02  0.51100000000E-03 0. -1.
    9900012    2    1    2    0    0  0.14865899263E+02 -0.98576887089E+01 -0.57018945118E+01  0.72461532405E+02  0.69999950642E+02 0.  0.
        -12    1    1    2    0    0 -0.14865899263E+02  0.98576887089E+01  0.57018945118E+01  0.18726467595E+02  0.00000000000E+00 0.  1.
         11    1    3    3    0    0  0.92244553093E+01  0.24641053121E+02 -0.90095193097E+01  0.27810852434E+02  0.51100000000E-03 0. -1.
        -11    1    3    3    0    0  0.70877649544E+01  0.23660456066E+01 -0.86572266551E+00  0.75222376894E+01  0.51100000000E-03 0.  1.
        -12    1    3    3    0    0 -0.14463210007E+01 -0.36864787436E+02  0.41733474634E+01  0.37128442281E+02  0.00000000000E+00 0.  1.
</event>
<event>
 7    1  0.2809593E-013  0.7246155E+02  0.7816164E-02  0.1226708E+00
        -11   -1    0    0    0    0  0.00000000000E+00  0.00000000000E+00  0.45593999997E+02  0.45594000000E+02  0.51100000000E-03 0.  1.
         11   -1    0    0    0    0 -0.00000000000E+00 -0.00000000000E+00 -0.45593999997E+02  0.45594000000E+02  0.51100000000E-03 0. -1.
    9900012    2    1    2    0    0 -0.18274265018E+02 -0.39121124168E+01 -0.11943777849E+01  0.72461550155E+02  0.69999973764E+02 0.  0.
        -12    1    1    2    0    0  0.18274265018E+02  0.39121124168E+01  0.11943777849E+01  0.18726449845E+02  0.00000000000E+00 0.  1.
         11    1    3    3    0    0 -0.46449235142E+01  0.24280431909E+02  0.33694327991E+01  0.24949303914E+02  0.51100000000E-03 0. -1.
        -11    1    3    3    0    0 -0.21181547684E+01  0.78968562493E+01  0.33121026869E+01  0.88213912007E+01  0.51100000000E-03 0.  1.
        -12    1    3    3    0    0 -0.11511186736E+02 -0.36089400575E+02 -0.78759132709E+01  0.38690855040E+02  0.00000000000E+00 0.  1.
</event>
<event>
 7    1  0.2809593E-013  0.7246136E+02  0.7816164E-02  0.1226709E+00
        -11   -1    0    0    0    0  0.00000000000E+00  0.00000000000E+00  0.45593999997E+02  0.45594000000E+02  0.51100000000E-03 0.  1.
         11   -1    0    0    0    0 -0.00000000000E+00 -0.00000000000E+00 -0.45593999997E+02  0.45594000000E+02  0.51100000000E-03 0. -1.
    9900012    2    1    2    0    0 -0.15298464457E+02 -0.10799524669E+02 -0.12022786723E+00  0.72461355812E+02  0.69999720596E+02 0.  0.
        -12    1    1    2    0    0  0.15298464457E+02  0.10799524669E+02  0.12022786723E+00  0.18726644188E+02  0.00000000000E+00 0.  1.
         11    1    3    3    0    0  0.21510874270E+02 -0.14616065280E+01  0.65044622217E+01  0.22520258315E+02  0.51100000000E-03 0. -1.
        -11    1    3    3    0    0  0.14489842698E+01 -0.17018701556E+01  0.79777022851E+01  0.82849050357E+01  0.51100000000E-03 0.  1.
        -12    1    3    3    0    0 -0.38258322997E+02 -0.76360479851E+01 -0.14602392374E+02  0.41656192462E+02  0.00000000000E+00 0.  1.
</event>
<event>
 7    1  0.2809593E-013  0.7246156E+02  0.7816164E-02  0.1226708E+00
        -11   -1    0    0    0    0  0.00000000000E+00  0.00000000000E+00  0.45593999997E+02  0.45594000000E+02  0.51100000000E-03 0.  1.
         11   -1    0    0    0    0 -0.00000000000E+00 -0.00000000000E+00 -0.45593999997E+02  0.45594000000E+02  0.51100000000E-03 0. -1.
    9900012    2    1    2    0    0  0.93445456855E+01  0.15368439543E+02 -0.52124889431E+01  0.72461561229E+02  0.69999988191E+02 0.  0.
        -12    1    1    2    0    0 -0.93445456855E+01 -0.15368439543E+02  0.52124889431E+01  0.18726438771E+02  0.00000000000E+00 0.  1.
         11    1    3    3    0    0  0.22351706577E+02  0.10061939050E+02 -0.16337770279E+02  0.29457836687E+02  0.51100000000E-03 0. -1.
        -11    1    3    3    0    0  0.10950498370E+01 -0.50233979066E+01 -0.12556863555E+02  0.13568658124E+02  0.51100000000E-03 0.  1.
        -12    1    3    3    0    0 -0.14102210728E+02  0.10329898400E+02  0.23682144891E+02  0.29435066418E+02  0.00000000000E+00 0.  1.
</event>
<event>
 7    1  0.2809593E-013  0.7246151E+02  0.7816164E-02  0.1226708E+00
        -11   -1    0    0    0    0  0.00000000000E+00  0.00000000000E+00  0.45593999997E+02  0.45594000000E+02  0.51100000000E-03 0. -1.
         11   -1    0    0    0    0 -0.00000000000E+00 -0.00000000000E+00 -0.45593999997E+02  0.45594000000E+02  0.51100000000E-03 0.  1.
    9900012    2    1    2    0    0 -0.47388160275E+01 -0.17245557983E+02  0.55511977012E+01  0.72461509581E+02  0.69999920910E+02 0.  0.
        -12    1    1    2    0    0  0.47388160275E+01  0.17245557983E+02 -0.55511977012E+01  0.18726490419E+02  0.00000000000E+00 0.  1.
         11    1    3    3    0    0 -0.99419943188E+01 -0.19543618523E+02  0.31586394993E+00  0.21929342131E+02  0.51100000000E-03 0. -1.
        -11    1    3    3    0    0  0.13977055252E+02 -0.90170154153E+01 -0.17193685709E+02  0.23922530573E+02  0.51100000000E-03 0.  1.
         12    1    3    3    0    0 -0.87738769605E+01  0.11315075955E+02  0.22429019460E+02  0.26609636877E+02  0.00000000000E+00 0. -1.
</event>
<event>
 7    1  0.2809593E-013  0.7246151E+02  0.7816164E-02  0.1226708E+00
        -11   -1    0    0    0    0  0.00000000000E+00  0.00000000000E+00  0.45593999997E+02  0.45594000000E+02  0.51100000000E-03 0.  1.
         11   -1    0    0    0    0 -0.00000000000E+00 -0.00000000000E+00 -0.45593999997E+02  0.45594000000E+02  0.51100000000E-03 0. -1.
    9900012    2    1    2    0    0  0.14512609144E+02 -0.10258194122E+02 -0.59021101181E+01  0.72461514087E+02  0.69999926779E+02 0.  0.
        -12    1    1    2    0    0 -0.14512609144E+02  0.10258194122E+02  0.59021101181E+01  0.18726485913E+02  0.00000000000E+00 0.  1.
         11    1    3    3    0    0  0.46846359556E+01 -0.10526721085E+02  0.50047511059E+01  0.12562054160E+02  0.51100000000E-03 0. -1.
        -11    1    3    3    0    0  0.38672383006E+01 -0.22990555651E+02  0.12426643118E+02  0.26418604063E+02  0.51100000000E-03 0.  1.
         12    1    3    3    0    0  0.59607348877E+01  0.23259082614E+02 -0.23333504342E+02  0.33480855863E+02  0.00000000000E+00 0. -1.
</event>
<event>
 7    1  0.2809593E-013  0.7246156E+02  0.7816164E-02  0.1226708E+00
        -11   -1    0    0    0    0  0.00000000000E+00  0.00000000000E+00  0.45593999997E+02  0.45594000000E+02  0.51100000000E-03 0. -1.
         11   -1    0    0    0    0 -0.00000000000E+00 -0.00000000000E+00 -0.45593999997E+02  0.45594000000E+02  0.51100000000E-03 0.  1.
    9900012    2    1    2    0    0  0.79346804929E+01  0.64721477204E+00  0.16949968818E+02  0.72461561887E+02  0.69999989048E+02 0.  0.
        -12    1    1    2    0    0 -0.79346804929E+01 -0.64721477204E+00 -0.16949968818E+02  0.18726438113E+02  0.00000000000E+00 0.  1.
         11    1    3    3    0    0 -0.42929274999E+01 -0.37444823207E+01 -0.39359989055E+01  0.69240495387E+01  0.51100000000E-03 0. -1.
        -11    1    3    3    0    0 -0.18618719159E+02  0.20164095480E+02  0.10247978040E+02  0.29296219958E+02  0.51100000000E-03 0.  1.
         12    1    3    3    0    0  0.30846327152E+02 -0.15772398387E+02  0.10637989683E+02  0.36241292391E+02  0.00000000000E+00 0. -1.
</event>
<event>
 7    1  0.2809593E-013  0.7246159E+02  0.7816164E-02  0.1226708E+00
        -11   -1    0    0    0    0  0.00000000000E+00  0.00000000000E+00  0.45593999997E+02  0.45594000000E+02  0.51100000000E-03 0.  1.
         11   -1    0    0    0    0 -0.00000000000E+00 -0.00000000000E+00 -0.45593999997E+02  0.45594000000E+02  0.51100000000E-03 0. -1.
    9900012    2    1    2    0    0 -0.15164806013E+02 -0.79337423083E+01  0.76001922490E+01  0.72461587353E+02  0.70000022222E+02 0.  0.
        -12    1    1    2    0    0  0.15164806013E+02  0.79337423083E+01 -0.76001922490E+01  0.18726412647E+02  0.00000000000E+00 0.  1.
         11    1    3    3    0    0  0.96950126754E+01  0.45984384949E+00  0.10494358455E+01  0.97624813955E+01  0.51100000000E-03 0. -1.
        -11    1    3    3    0    0 -0.59981774076E+01  0.67006755158E+01  0.28606875104E+02  0.29987172058E+02  0.51100000000E-03 0.  1.
         12    1    3    3    0    0 -0.18861641281E+02 -0.15094261674E+02 -0.22056118701E+02  0.32711933899E+02  0.00000000000E+00 0. -1.
</event>
<event>
 7    1  0.2809593E-013  0.7246159E+02  0.7816164E-02  0.1226708E+00
        -11   -1    0    0    0    0  0.00000000000E+00  0.00000000000E+00  0.45593999997E+02  0.45594000000E+02  0.51100000000E-03 0.  1.
         11   -1    0    0    0    0 -0.00000000000E+00 -0.00000000000E+00 -0.45593999997E+02  0.45594000000E+02  0.51100000000E-03 0. -1.
    9900012    2    1    2    0    0 -0.10341334316E+02 -0.91980973454E+01 -0.12614681269E+02  0.72461591542E+02  0.70000027679E+02 0.  0.
        -12    1    1    2    0    0  0.10341334316E+02  0.91980973454E+01  0.12614681269E+02  0.18726408458E+02  0.00000000000E+00 0.  1.
         11    1    3    3    0    0 -0.21605673982E+02 -0.12994982397E+02 -0.15146100008E+02  0.29412226394E+02  0.51100000000E-03 0. -1.
        -11    1    3    3    0    0 -0.33973534700E+01 -0.63803589349E+01  0.18021469966E+02  0.19417115407E+02  0.51100000000E-03 0.  1.
         12    1    3    3    0    0  0.14661693136E+02  0.10177243987E+02 -0.15490051228E+02  0.23632249741E+02  0.00000000000E+00 0. -1.
</event>
<event>
 7    1  0.2809593E-013  0.7246161E+02  0.7816164E-02  0.1226708E+00
        -11   -1    0    0    0    0  0.00000000000E+00  0.00000000000E+00  0.45593999997E+02  0.45594000000E+02  0.51100000000E-03 0. -1.
         11   -1    0    0    0    0 -0.00000000000E+00 -0.00000000000E+00 -0.45593999997E+02  0.45594000000E+02  0.51100000000E-03 0.  1.
    9900012    2    1    2    0    0  0.11741384126E+02  0.10192097914E+02  0.10437370624E+02  0.72461610421E+02  0.70000052273E+02 0.  0.
        -12    1    1    2    0    0 -0.11741384126E+02 -0.10192097914E+02 -0.10437370624E+02  0.18726389579E+02  0.00000000000E+00 0.  1.
         11    1    3    3    0    0 -0.16276624973E+02  0.20853522680E+02  0.59123287023E+01  0.27106337997E+02  0.51100000000E-03 0. -1.
        -11    1    3    3    0    0 -0.20102013017E+01  0.69104242917E+01 -0.56014327032E+01  0.91198093047E+01  0.51100000000E-03 0.  1.
        -12    1    3    3    0    0  0.30028210401E+02 -0.17571849057E+02  0.10126474625E+02  0.36235463120E+02  0.00000000000E+00 0.  1.
</event>
<event>
 7    1  0.2809593E-013  0.7246153E+02  0.7816164E-02  0.1226708E+00
        -11   -1    0    0    0    0  0.00000000000E+00  0.00000000000E+00  0.45593999997E+02  0.45594000000E+02  0.51100000000E-03 0. -1.
         11   -1    0    0    0    0 -0.00000000000E+00 -0.00000000000E+00 -0.45593999997E+02  0.45594000000E+02  0.51100000000E-03 0.  1.
    9900012    2    1    2    0    0  0.12276778083E+02 -0.14065700654E+02  0.14551809466E+01  0.72461527653E+02  0.69999944451E+02 0.  0.
        -12    1    1    2    0    0 -0.12276778083E+02  0.14065700654E+02 -0.14551809466E+01  0.18726472347E+02  0.00000000000E+00 0.  1.
         11    1    3    3    0    0  0.28620075834E+02 -0.71402903809E+01 -0.85628548845E+01  0.30715060988E+02  0.51100000000E-03 0. -1.
        -11    1    3    3    0    0  0.75296223686E+01  0.28358822027E+01 -0.71497807629E+01  0.10763679952E+02  0.51100000000E-03 0.  1.
        -12    1    3    3    0    0 -0.23872920120E+02 -0.97612924762E+01  0.17167816594E+02  0.30982786713E+02  0.00000000000E+00 0.  1.
</event>
<event>
 7    1  0.2809593E-013  0.7246154E+02  0.7816164E-02  0.1226708E+00
        -11   -1    0    0    0    0  0.00000000000E+00  0.00000000000E+00  0.45593999997E+02  0.45594000000E+02  0.51100000000E-03 0.  1.
         11   -1    0    0    0    0 -0.00000000000E+00 -0.00000000000E+00 -0.45593999997E+02  0.45594000000E+02  0.51100000000E-03 0. -1.
    9900012    2    1    2    0    0  0.15322481541E+02 -0.63929696204E+01 -0.86620906221E+01  0.72461539707E+02  0.69999960155E+02 0.  0.
        -12    1    1    2    0    0 -0.15322481541E+02  0.63929696204E+01  0.86620906221E+01  0.18726460293E+02  0.00000000000E+00 0.  1.
         11    1    3    3    0    0  0.89731153852E+01 -0.22549454051E+02 -0.11257253261E+02  0.26752951781E+02  0.51100000000E-03 0. -1.
        -11    1    3    3    0    0 -0.11461954547E+02 -0.85512023003E+01 -0.33211618368E+01  0.14680925687E+02  0.51100000000E-03 0.  1.
         12    1    3    3    0    0  0.17811320703E+02  0.24707686731E+02  0.59163244761E+01  0.31027662240E+02  0.00000000000E+00 0. -1.
</event>
<event>
 7    1  0.2809593E-013  0.7246155E+02  0.7816164E-02  0.1226708E+00
        -11   -1    0    0    0    0  0.00000000000E+00  0.00000000000E+00  0.45593999997E+02  0.45594000000E+02  0.51100000000E-03 0.  1.
         11   -1    0    0    0    0 -0.00000000000E+00 -0.00000000000E+00 -0.45593999997E+02  0.45594000000E+02  0.51100000000E-03 0. -1.
    9900012    2    1    2    0    0 -0.31920356341E+01  0.58832069974E+00 -0.18443014363E+02  0.72461548347E+02  0.69999971409E+02 0.  0.
        -12    1    1    2    0    0  0.31920356341E+01 -0.58832069974E+00  0.18443014363E+02  0.18726451653E+02  0.00000000000E+00 0.  1.
         11    1    3    3    0    0 -0.40342899501E+00  0.49001602608E+01 -0.40547723996E+02  0.40844733407E+02  0.51100000000E-03 0. -1.
        -11    1    3    3    0    0  0.95641907088E+01 -0.31943163552E+01  0.11533157054E+02  0.15319631614E+02  0.51100000000E-03 0.  1.
        -12    1    3    3    0    0 -0.12352797348E+02 -0.11175232058E+01  0.10571552579E+02  0.16297183326E+02  0.00000000000E+00 0.  1.
</event>
<event>
 7    1  0.2809593E-013  0.7246153E+02  0.7816164E-02  0.1226708E+00
        -11   -1    0    0    0    0  0.00000000000E+00  0.00000000000E+00  0.45593999997E+02  0.45594000000E+02  0.51100000000E-03 0. -1.
         11   -1    0    0    0    0 -0.00000000000E+00 -0.00000000000E+00 -0.45593999997E+02  0.45594000000E+02  0.51100000000E-03 0.  1.
    9900012    2    1    2    0    0  0.85676702687E+01 -0.82464691031E+01  0.14466223918E+02  0.72461525133E+02  0.69999941168E+02 0.  0.
        -12    1    1    2    0    0 -0.85676702687E+01  0.82464691031E+01 -0.14466223918E+02  0.18726474867E+02  0.00000000000E+00 0.  1.
         11    1    3    3    0    0 -0.18114963397E+02  0.20362209516E+01  0.29530469098E+02  0.34703698651E+02  0.51100000000E-03 0. -1.
        -11    1    3    3    0    0 -0.26109468189E+01  0.37630849779E+00 -0.37722085008E+01  0.46030651322E+01  0.51100000000E-03 0.  1.
         12    1    3    3    0    0  0.29293580485E+02 -0.10658998553E+02 -0.11292036679E+02  0.33154761349E+02  0.00000000000E+00 0. -1.
</event>
<event>
 7    1  0.2809593E-013  0.7246159E+02  0.7816164E-02  0.1226708E+00
        -11   -1    0    0    0    0  0.00000000000E+00  0.00000000000E+00  0.45593999997E+02  0.45594000000E+02  0.51100000000E-03 0.  1.
         11   -1    0    0    0    0 -0.00000000000E+00 -0.00000000000E+00 -0.45593999997E+02  0.45594000000E+02  0.51100000000E-03 0. -1.
    9900012    2    1    2    0    0  0.42947086855E+01 -0.18035654359E+02 -0.26361236969E+01  0.72461588197E+02  0.70000023322E+02 0.  0.
        -12    1    1    2    0    0 -0.42947086855E+01  0.18035654359E+02  0.26361236969E+01  0.18726411803E+02  0.00000000000E+00 0.  1.
         11    1    3    3    0    0 -0.22213892043E+02 -0.10857519614E+02  0.14624047371E+02  0.28726390195E+02  0.51100000000E-03 0. -1.
        -11    1    3    3    0    0  0.14557228536E+02 -0.71411590185E+01  0.62374525799E+01  0.17372819855E+02  0.51100000000E-03 0.  1.
        -12    1    3    3    0    0  0.11951372193E+02 -0.36975727009E-01 -0.23497623647E+02  0.26362378147E+02  0.00000000000E+00 0.  1.
</event>
<event>
 7    1  0.2809593E-013  0.7246165E+02  0.7816164E-02  0.1226708E+00
        -11   -1    0    0    0    0  0.00000000000E+00  0.00000000000E+00  0.45593999997E+02  0.45594000000E+02  0.51100000000E-03 0. -1.
         11   -1    0    0    0    0 -0.00000000000E+00 -0.00000000000E+00 -0.45593999997E+02  0.45594000000E+02  0.51100000000E-03 0.  1.
    9900012    2    1    2    0    0  0.71710634323E+01 -0.76930864515E+01 -0.15494136723E+02  0.72461654849E+02  0.70000110148E+02 0.  0.
        -12    1    1    2    0    0 -0.71710634323E+01  0.76930864515E+01  0.15494136723E+02  0.18726345151E+02  0.00000000000E+00 0.  1.
         11    1    3    3    0    0  0.17455551127E+01  0.12704817273E+02 -0.37236348298E+01  0.13353830956E+02  0.51100000000E-03 0. -1.
        -11    1    3    3    0    0 -0.11563751578E+02  0.67690981781E+01 -0.21751524715E+02  0.25547404338E+02  0.51100000000E-03 0.  1.
        -12    1    3    3    0    0  0.16989259897E+02 -0.27167001902E+02  0.99810228214E+01  0.33560419556E+02  0.00000000000E+00 0.  1.
</event>
<event>
 7    1  0.2809593E-013  0.7246157E+02  0.7816164E-02  0.1226708E+00
        -11   -1    0    0    0    0  0.00000000000E+00  0.00000000000E+00  0.45593999997E+02  0.45594000000E+02  0.51100000000E-03 0. -1.
         11   -1    0    0    0    0 -0.00000000000E+00 -0.00000000000E+00 -0.45593999997E+02  0.45594000000E+02  0.51100000000E-03 0.  1.
    9900012    2    1    2    0    0 -0.13341716396E+02  0.13013176131E+02  0.18261828855E+01  0.72461572328E+02  0.70000002650E+02 0.  0.
        -12    1    1    2    0    0  0.13341716396E+02 -0.13013176131E+02 -0.18261828855E+01  0.18726427672E+02  0.00000000000E+00 0.  1.
         11    1    3    3    0    0  0.20089225275E+01  0.83178975381E+00 -0.10223128029E+02  0.10451793668E+02  0.51100000000E-03 0. -1.
        -11    1    3    3    0    0 -0.16138087184E+02  0.31464035152E+02 -0.56666992726E+01  0.35812495681E+02  0.51100000000E-03 0.  1.
         12    1    3    3    0    0  0.78744826034E+00 -0.19282648775E+02  0.17716010187E+02  0.26197282979E+02  0.00000000000E+00 0. -1.
</event>
<event>
 7    1  0.2809593E-013  0.7246155E+02  0.7816164E-02  0.1226708E+00
        -11   -1    0    0    0    0  0.00000000000E+00  0.00000000000E+00  0.45593999997E+02  0.45594000000E+02  0.51100000000E-03 0. -1.
         11   -1    0    0    0    0 -0.00000000000E+00 -0.00000000000E+00 -0.45593999997E+02  0.45594000000E+02  0.51100000000E-03 0.  1.
    9900012    2    1    2    0    0  0.63005554570E+01 -0.14268073538E+02 -0.10363632448E+02  0.72461553485E+02  0.69999978103E+02 0.  0.
        -12    1    1    2    0    0 -0.63005554570E+01  0.14268073538E+02  0.10363632448E+02  0.18726446515E+02  0.00000000000E+00 0.  1.
         11    1    3    3    0    0 -0.23388034608E+01  0.36269726972E+00  0.40424033060E-01  0.23671048353E+01  0.51100000000E-03 0. -1.
        -11    1    3    3    0    0  0.19094615537E+02  0.22980370790E+02 -0.82574386095E+01  0.30998178604E+02  0.51100000000E-03 0.  1.
         12    1    3    3    0    0 -0.10455256619E+02 -0.37611141597E+02 -0.21466178715E+01  0.39096270046E+02  0.00000000000E+00 0. -1.
</event>
<event>
 7    1  0.2809593E-013  0.7246167E+02  0.7816164E-02  0.1226708E+00
        -11   -1    0    0    0    0  0.00000000000E+00  0.00000000000E+00  0.45593999997E+02  0.45594000000E+02  0.51100000000E-03 0.  1.
         11   -1    0    0    0    0 -0.00000000000E+00 -0.00000000000E+00 -0.45593999997E+02  0.45594000000E+02  0.51100000000E-03 0. -1.
    9900012    2    1    2    0    0 -0.61829777409E+01 -0.12383627247E+02 -0.12613164321E+02  0.72461672230E+02  0.70000132791E+02 0.  0.
        -12    1    1    2    0    0  0.61829777409E+01  0.12383627247E+02  0.12613164321E+02  0.18726327770E+02  0.00000000000E+00 0.  1.
         11    1    3    3    0    0  0.17696233879E+02  0.19470227915E+01 -0.62133633254E+01  0.18856125671E+02  0.51100000000E-03 0. -1.
        -11    1    3    3    0    0 -0.10388424186E+02  0.96801047402E+01 -0.18668737669E+02  0.23455181757E+02  0.51100000000E-03 0.  1.
        -12    1    3    3    0    0 -0.13490787434E+02 -0.24010754779E+02  0.12268936673E+02  0.30150364803E+02  0.00000000000E+00 0.  1.
</event>
<event>
 7    1  0.2809593E-013  0.7246155E+02  0.7816164E-02  0.1226708E+00
        -11   -1    0    0    0    0  0.00000000000E+00  0.00000000000E+00  0.45593999997E+02  0.45594000000E+02  0.51100000000E-03 0. -1.
         11   -1    0    0    0    0 -0.00000000000E+00 -0.00000000000E+00 -0.45593999997E+02  0.45594000000E+02  0.51100000000E-03 0.  1.
    9900012    2    1    2    0    0  0.32830902865E+00  0.11808398466E+02 -0.14530441888E+02  0.72461553390E+02  0.69999977980E+02 0.  0.
        -12    1    1    2    0    0 -0.32830902865E+00 -0.11808398466E+02  0.14530441888E+02  0.18726446610E+02  0.00000000000E+00 0.  1.
         11    1    3    3    0    0 -0.19930195576E+02  0.32179077536E+01 -0.32280037201E+01  0.20444745885E+02  0.51100000000E-03 0. -1.
        -11    1    3    3    0    0 -0.10708959351E+02  0.14948861246E+02 -0.85629887865E+01  0.20284847551E+02  0.51100000000E-03 0.  1.
        -12    1    3    3    0    0  0.30967463956E+02 -0.63583705333E+01 -0.27394493816E+01  0.31731959955E+02  0.00000000000E+00 0.  1.
</event>
<event>
 7    1  0.2809593E-013  0.7246156E+02  0.7816164E-02  0.1226708E+00
        -11   -1    0    0    0    0  0.00000000000E+00  0.00000000000E+00  0.45593999997E+02  0.45594000000E+02  0.51100000000E-03 0.  1.
         11   -1    0    0    0    0 -0.00000000000E+00 -0.00000000000E+00 -0.45593999997E+02  0.45594000000E+02  0.51100000000E-03 0. -1.
    9900012    2    1    2    0    0  0.11998073197E+02 -0.84907476017E+01 -0.11603146437E+02  0.72461559802E+02  0.69999986332E+02 0.  0.
        -12    1    1    2    0    0 -0.11998073197E+02  0.84907476017E+01  0.11603146437E+02  0.18726440198E+02  0.00000000000E+00 0.  1.
         11    1    3    3    0    0 -0.89167464516E+01 -0.17660399698E+02 -0.13440901347E+02  0.23917690399E+02  0.51100000000E-03 0. -1.
        -11    1    3    3    0    0  0.58763472699E+00 -0.13086600837E+02  0.10929698858E+02  0.17060561346E+02  0.51100000000E-03 0.  1.
         12    1    3    3    0    0  0.20327184921E+02  0.22256252933E+02 -0.90919439477E+01  0.31483308057E+02  0.00000000000E+00 0. -1.
</event>
<event>
 7    1  0.2809593E-013  0.7246167E+02  0.7816164E-02  0.1226708E+00
        -11   -1    0    0    0    0  0.00000000000E+00  0.00000000000E+00  0.45593999997E+02  0.45594000000E+02  0.51100000000E-03 0.  1.
         11   -1    0    0    0    0 -0.00000000000E+00 -0.00000000000E+00 -0.45593999997E+02  0.45594000000E+02  0.51100000000E-03 0. -1.
    9900012    2    1    2    0    0 -0.14850560077E+01 -0.18662130349E+02  0.44137504094E+00  0.72461673280E+02  0.70000134158E+02 0.  0.
        -12    1    1    2    0    0  0.14850560077E+01  0.18662130349E+02 -0.44137504094E+00  0.18726326720E+02  0.00000000000E+00 0.  1.
         11    1    3    3    0    0 -0.20168456564E+02 -0.11658130824E+02 -0.16613967639E+02  0.28612979144E+02  0.51100000000E-03 0. -1.
        -11    1    3    3    0    0  0.15416130046E+01 -0.10058247183E+02 -0.82719120491E+01  0.13113711765E+02  0.51100000000E-03 0.  1.
        -12    1    3    3    0    0  0.17141787552E+02  0.30542476579E+01  0.25327254729E+02  0.30734982371E+02  0.00000000000E+00 0.  1.
</event>
<event>
 7    1  0.2809593E-013  0.7246159E+02  0.7816164E-02  0.1226708E+00
        -11   -1    0    0    0    0  0.00000000000E+00  0.00000000000E+00  0.45593999997E+02  0.45594000000E+02  0.51100000000E-03 0.  1.
         11   -1    0    0    0    0 -0.00000000000E+00 -0.00000000000E+00 -0.45593999997E+02  0.45594000000E+02  0.51100000000E-03 0. -1.
    9900012    2    1    2    0    0 -0.10281491696E+01  0.18660175453E+02 -0.11913355563E+01  0.72461587662E+02  0.70000022624E+02 0.  0.
        -12    1    1    2    0    0  0.10281491696E+01 -0.18660175453E+02  0.11913355563E+01  0.18726412338E+02  0.00000000000E+00 0.  1.
         11    1    3    3    0    0 -0.12401379103E+02  0.10071049127E+02  0.21599008968E+02  0.26865171186E+02  0.51100000000E-03 0. -1.
        -11    1    3    3    0    0 -0.18742311301E+01  0.65351627976E+01  0.88927895123E+01  0.11193873355E+02  0.51100000000E-03 0.  1.
         12    1    3    3    0    0  0.13247461064E+02  0.20539635283E+01 -0.31683134037E+02  0.34402543121E+02  0.00000000000E+00 0. -1.
</event>
<event>
 7    1  0.2809593E-013  0.7246156E+02  0.7816164E-02  0.1226708E+00
        -11   -1    0    0    0    0  0.00000000000E+00  0.00000000000E+00  0.45593999997E+02  0.45594000000E+02  0.51100000000E-03 0. -1.
         11   -1    0    0    0    0 -0.00000000000E+00 -0.00000000000E+00 -0.45593999997E+02  0.45594000000E+02  0.51100000000E-03 0.  1.
    9900012    2    1    2    0    0  0.14291928093E+01  0.18556054921E+02  0.20759787604E+01  0.72461562695E+02  0.69999990100E+02 0.  0.
        -12    1    1    2    0    0 -0.14291928093E+01 -0.18556054921E+02 -0.20759787604E+01  0.18726437305E+02  0.00000000000E+00 0.  1.
         11    1    3    3    0    0 -0.27510308675E+01  0.19145085788E+02 -0.45297838711E+01  0.19865080489E+02  0.51100000000E-03 0. -1.
        -11    1    3    3    0    0  0.72508198489E+01  0.24652762283E+02  0.85814783226E+01  0.27091970160E+02  0.51100000000E-03 0.  1.
        -12    1    3    3    0    0 -0.30705961721E+01 -0.25241793149E+02 -0.19757156912E+01  0.25504512046E+02  0.00000000000E+00 0.  1.
</event>
<event>
 7    1  0.2809593E-013  0.7246126E+02  0.7816164E-02  0.1226709E+00
        -11   -1    0    0    0    0  0.00000000000E+00  0.00000000000E+00  0.45593999997E+02  0.45594000000E+02  0.51100000000E-03 0.  1.
         11   -1    0    0    0    0 -0.00000000000E+00 -0.00000000000E+00 -0.45593999997E+02  0.45594000000E+02  0.51100000000E-03 0. -1.
    9900012    2    1    2    0    0  0.11597043088E+02  0.52865497298E+01  0.13720490401E+02  0.72461257804E+02  0.69999592922E+02 0.  0.
        -12    1    1    2    0    0 -0.11597043088E+02 -0.52865497298E+01 -0.13720490401E+02  0.18726742196E+02  0.00000000000E+00 0.  1.
         11    1    3    3    0    0  0.42475791402E+01 -0.41693962431E+01 -0.21793745582E+02  0.22591882178E+02  0.51100000000E-03 0. -1.
        -11    1    3    3    0    0 -0.80678296170E+01  0.65986750033E+01 -0.65951499238E+00  0.10443531338E+02  0.51100000000E-03 0.  1.
        -12    1    3    3    0    0  0.15417293565E+02  0.28572709696E+01  0.36173750975E+02  0.39425844288E+02  0.00000000000E+00 0.  1.
</event>
<event>
 7    1  0.2809593E-013  0.7246139E+02  0.7816164E-02  0.1226709E+00
        -11   -1    0    0    0    0  0.00000000000E+00  0.00000000000E+00  0.45593999997E+02  0.45594000000E+02  0.51100000000E-03 0. -1.
         11   -1    0    0    0    0 -0.00000000000E+00 -0.00000000000E+00 -0.45593999997E+02  0.45594000000E+02  0.51100000000E-03 0.  1.
    9900012    2    1    2    0    0  0.84625775554E+01 -0.22258309684E+01  0.16556465234E+02  0.72461385692E+02  0.69999759521E+02 0.  0.
        -12    1    1    2    0    0 -0.84625775554E+01  0.22258309684E+01 -0.16556465234E+02  0.18726614308E+02  0.00000000000E+00 0.  1.
         11    1    3    3    0    0 -0.10400389564E+02 -0.76227197306E+01  0.79178817213E+01  0.15131649295E+02  0.51100000000E-03 0. -1.
        -11    1    3    3    0    0 -0.90144265937E+01 -0.17313544789E+02  0.87045036235E+01  0.21372578309E+02  0.51100000000E-03 0.  1.
        -12    1    3    3    0    0  0.27877393713E+02  0.22710433551E+02 -0.65920110605E-01  0.35957158088E+02  0.00000000000E+00 0.  1.
</event>
<event>
 7    1  0.2809593E-013  0.7246162E+02  0.7816164E-02  0.1226708E+00
        -11   -1    0    0    0    0  0.00000000000E+00  0.00000000000E+00  0.45593999997E+02  0.45594000000E+02  0.51100000000E-03 0.  1.
         11   -1    0    0    0    0 -0.00000000000E+00 -0.00000000000E+00 -0.45593999997E+02  0.45594000000E+02  0.51100000000E-03 0. -1.
    9900012    2    1    2    0    0 -0.79808901728E+01 -0.42289709922E+01 -0.16404218067E+02  0.72461623575E+02  0.70000069408E+02 0.  0.
        -12    1    1    2    0    0  0.79808901728E+01  0.42289709922E+01  0.16404218067E+02  0.18726376425E+02  0.00000000000E+00 0.  1.
         11    1    3    3    0    0  0.21663843599E+02  0.68224548046E+01 -0.94180063656E+01  0.24587941216E+02  0.51100000000E-03 0.  1.
        -11    1    3    3    0    0  0.11230485789E+01 -0.11637188404E+02  0.74700103184E+01  0.13873948482E+02  0.51100000000E-03 0. -1.
         12    1    3    3    0    0 -0.30767782351E+02  0.58576260727E+00 -0.14456222020E+02  0.33999733877E+02  0.00000000000E+00 0. -1.
</event>
<event>
 7    1  0.2809593E-013  0.7246162E+02  0.7816164E-02  0.1226708E+00
        -11   -1    0    0    0    0  0.00000000000E+00  0.00000000000E+00  0.45593999997E+02  0.45594000000E+02  0.51100000000E-03 0.  1.
         11   -1    0    0    0    0 -0.00000000000E+00 -0.00000000000E+00 -0.45593999997E+02  0.45594000000E+02  0.51100000000E-03 0. -1.
    9900012    2    1    2    0    0  0.13611791295E+02  0.10229323489E+02 -0.77946956308E+01  0.72461622847E+02  0.70000068460E+02 0.  0.
        -12    1    1    2    0    0 -0.13611791295E+02 -0.10229323489E+02  0.77946956308E+01  0.18726377153E+02  0.00000000000E+00 0.  1.
         11    1    3    3    0    0  0.77550182085E+01 -0.31096887836E+01 -0.18095760341E+02  0.19931558251E+02  0.51100000000E-03 0. -1.
        -11    1    3    3    0    0 -0.15243356864E+02  0.23562644292E+02  0.56833431143E+01  0.28633171737E+02  0.51100000000E-03 0.  1.
         12    1    3    3    0    0  0.21100129950E+02 -0.10223632019E+02  0.46177215956E+01  0.23896892859E+02  0.00000000000E+00 0. -1.
</event>
<event>
 7    1  0.2809593E-013  0.7246152E+02  0.7816164E-02  0.1226708E+00
        -11   -1    0    0    0    0  0.00000000000E+00  0.00000000000E+00  0.45593999997E+02  0.45594000000E+02  0.51100000000E-03 0. -1.
         11   -1    0    0    0    0 -0.00000000000E+00 -0.00000000000E+00 -0.45593999997E+02  0.45594000000E+02  0.51100000000E-03 0.  1.
    9900012    2    1    2    0    0  0.71904651667E+01 -0.17281570292E+02  0.57074869047E+00  0.72461515676E+02  0.69999928850E+02 0.  0.
        -12    1    1    2    0    0 -0.71904651667E+01  0.17281570292E+02 -0.57074869047E+00  0.18726484324E+02  0.00000000000E+00 0.  1.
         11    1    3    3    0    0  0.69685461328E+01 -0.15987619927E+02 -0.19685570747E+02  0.26299930076E+02  0.51100000000E-03 0.  1.
        -11    1    3    3    0    0 -0.19926834472E+02 -0.15950584519E+01  0.15905613806E+02  0.25546261847E+02  0.51100000000E-03 0. -1.
         12    1    3    3    0    0  0.20148753506E+02  0.30110808721E+00  0.43507056309E+01  0.20615323752E+02  0.00000000000E+00 0. -1.
</event>
<event>
 7    1  0.2809593E-013  0.7246157E+02  0.7816164E-02  0.1226708E+00
        -11   -1    0    0    0    0  0.00000000000E+00  0.00000000000E+00  0.45593999997E+02  0.45594000000E+02  0.51100000000E-03 0.  1.
         11   -1    0    0    0    0 -0.00000000000E+00 -0.00000000000E+00 -0.45593999997E+02  0.45594000000E+02  0.51100000000E-03 0. -1.
    9900012    2    1    2    0    0  0.11831043083E+02  0.54146617381E+01 -0.13468003252E+02  0.72461568045E+02  0.69999997070E+02 0.  0.
        -12    1    1    2    0    0 -0.11831043083E+02 -0.54146617381E+01  0.13468003252E+02  0.18726431955E+02  0.00000000000E+00 0.  1.
         11    1    3    3    0    0  0.61457620330E+01 -0.12384904271E+02 -0.16830303639E+02  0.21781078155E+02  0.51100000000E-03 0. -1.
        -11    1    3    3    0    0 -0.51898351780E+01 -0.13012430540E+02  0.10160533206E+02  0.17305899948E+02  0.51100000000E-03 0.  1.
         12    1    3    3    0    0  0.10875116228E+02  0.30811996549E+02 -0.67982328191E+01  0.33374589941E+02  0.00000000000E+00 0. -1.
</event>
<event>
 7    1  0.2998626E-013  0.7246160E+02  0.7816164E-02  0.1226708E+00
        -11   -1    0    0    0    0  0.00000000000E+00  0.00000000000E+00  0.45593999997E+02  0.45594000000E+02  0.51100000000E-03 0. -1.
         11   -1    0    0    0    0 -0.00000000000E+00 -0.00000000000E+00 -0.45593999997E+02  0.45594000000E+02  0.51100000000E-03 0.  1.
    9900012    2    1    2    0    0  0.11425223290E+02 -0.74782271534E+01  0.12814773796E+02  0.72461600559E+02  0.70000039425E+02 0.  0.
        -12    1    1    2    0    0 -0.11425223290E+02  0.74782271534E+01 -0.12814773796E+02  0.18726399441E+02  0.00000000000E+00 0.  1.
         11    1    3    3    0    0  0.19449875675E+02  0.39198338930E+01  0.30586115073E+02  0.36457827651E+02  0.51100000000E-03 0. -1.
        -11    1    3    3    0    0  0.58112670377E+01 -0.73639364654E+01  0.37500001465E+01  0.10102518805E+02  0.51100000000E-03 0.  1.
        -12    1    3    3    0    0 -0.13835919423E+02 -0.40341245810E+01 -0.21521341423E+02  0.25901254102E+02  0.00000000000E+00 0.  1.
</event>
<event>
 7    1  0.2809593E-013  0.7246153E+02  0.7816164E-02  0.1226708E+00
        -11   -1    0    0    0    0  0.00000000000E+00  0.00000000000E+00  0.45593999997E+02  0.45594000000E+02  0.51100000000E-03 0. -1.
         11   -1    0    0    0    0 -0.00000000000E+00 -0.00000000000E+00 -0.45593999997E+02  0.45594000000E+02  0.51100000000E-03 0.  1.
    9900012    2    1    2    0    0  0.57324696566E+01 -0.14609510909E+02  0.10216725402E+02  0.72461534896E+02  0.69999953887E+02 0.  0.
        -12    1    1    2    0    0 -0.57324696566E+01  0.14609510909E+02 -0.10216725402E+02  0.18726465104E+02  0.00000000000E+00 0.  1.
         11    1    3    3    0    0 -0.37061830764E+01 -0.36081817342E+01  0.18985284008E+01  0.55099164034E+01  0.51100000000E-03 0. -1.
        -11    1    3    3    0    0 -0.28392653569E+00  0.13011705361E+01 -0.27666673165E+02  0.27698708694E+02  0.51100000000E-03 0.  1.
         12    1    3    3    0    0  0.97225792687E+01 -0.12302499711E+02  0.35984870166E+02  0.39252909798E+02  0.00000000000E+00 0. -1.
</event>
<event>
 7    1  0.2809593E-013  0.7246156E+02  0.7816164E-02  0.1226708E+00
        -11   -1    0    0    0    0  0.00000000000E+00  0.00000000000E+00  0.45593999997E+02  0.45594000000E+02  0.51100000000E-03 0.  1.
         11   -1    0    0    0    0 -0.00000000000E+00 -0.00000000000E+00 -0.45593999997E+02  0.45594000000E+02  0.51100000000E-03 0. -1.
    9900012    2    1    2    0    0 -0.13081060872E+02  0.23842159016E+01 -0.13186387272E+02  0.72461562852E+02  0.69999990304E+02 0.  0.
        -12    1    1    2    0    0  0.13081060872E+02 -0.23842159016E+01  0.13186387272E+02  0.18726437148E+02  0.00000000000E+00 0.  1.
         11    1    3    3    0    0  0.10464283237E+02 -0.65033298497E+01  0.81459103709E+01  0.14769914652E+02  0.51100000000E-03 0. -1.
        -11    1    3    3    0    0 -0.15391619687E+02  0.15517568492E+02  0.10443446550E+02  0.24223180315E+02  0.51100000000E-03 0.  1.
        -12    1    3    3    0    0 -0.81537244222E+01 -0.66300227406E+01 -0.31775744193E+02  0.33468467884E+02  0.00000000000E+00 0.  1.
</event>
<event>
 7    1  0.2809593E-013  0.7246146E+02  0.7816164E-02  0.1226708E+00
        -11   -1    0    0    0    0  0.00000000000E+00  0.00000000000E+00  0.45593999997E+02  0.45594000000E+02  0.51100000000E-03 0.  1.
         11   -1    0    0    0    0 -0.00000000000E+00 -0.00000000000E+00 -0.45593999997E+02  0.45594000000E+02  0.51100000000E-03 0. -1.
    9900012    2    1    2    0    0 -0.40803973392E+01 -0.11365058744E+02 -0.14313252421E+02  0.72461457405E+02  0.69999852940E+02 0.  0.
        -12    1    1    2    0    0  0.40803973392E+01  0.11365058744E+02  0.14313252421E+02  0.18726542595E+02  0.00000000000E+00 0.  1.
         11    1    3    3    0    0 -0.14441145847E+02 -0.69735305209E+00 -0.13723906195E+02  0.19934357180E+02  0.51100000000E-03 0. -1.
        -11    1    3    3    0    0 -0.10121605944E+02 -0.24773249496E+02  0.45143946224E+01  0.27139280693E+02  0.51100000000E-03 0.  1.
         12    1    3    3    0    0  0.20482354452E+02  0.14105543804E+02 -0.51037408487E+01  0.25387819532E+02  0.00000000000E+00 0. -1.
</event>
<event>
 7    1  0.2809593E-013  0.7246154E+02  0.7816164E-02  0.1226708E+00
        -11   -1    0    0    0    0  0.00000000000E+00  0.00000000000E+00  0.45593999997E+02  0.45594000000E+02  0.51100000000E-03 0.  1.
         11   -1    0    0    0    0 -0.00000000000E+00 -0.00000000000E+00 -0.45593999997E+02  0.45594000000E+02  0.51100000000E-03 0. -1.
    9900012    2    1    2    0    0 -0.57725954256E+01 -0.33146321226E+01 -0.17503443587E+02  0.72461543275E+02  0.69999964803E+02 0.  0.
        -12    1    1    2    0    0  0.57725954256E+01  0.33146321226E+01  0.17503443587E+02  0.18726456725E+02  0.00000000000E+00 0.  1.
         11    1    3    3    0    0 -0.26789764450E+02 -0.12715772194E+02 -0.94441727028E+01  0.31121933425E+02  0.51100000000E-03 0. -1.
        -11    1    3    3    0    0 -0.80052896864E+01 -0.35209576865E+01 -0.24169395267E+01  0.90732245057E+01  0.51100000000E-03 0.  1.
        -12    1    3    3    0    0  0.29022458711E+02  0.12922097758E+02 -0.56423313574E+01  0.32266385345E+02  0.00000000000E+00 0.  1.
</event>
<event>
 7    1  0.2809593E-013  0.7246160E+02  0.7816164E-02  0.1226708E+00
        -11   -1    0    0    0    0  0.00000000000E+00  0.00000000000E+00  0.45593999997E+02  0.45594000000E+02  0.51100000000E-03 0.  1.
         11   -1    0    0    0    0 -0.00000000000E+00 -0.00000000000E+00 -0.45593999997E+02  0.45594000000E+02  0.51100000000E-03 0. -1.
    9900012    2    1    2    0    0 -0.10979347108E+02  0.96607760906E+01 -0.11696210310E+02  0.72461601702E+02  0.70000040914E+02 0.  0.
        -12    1    1    2    0    0  0.10979347108E+02 -0.96607760906E+01  0.11696210310E+02  0.18726398298E+02  0.00000000000E+00 0.  1.
         11    1    3    3    0    0 -0.18253686267E+02 -0.23923055844E+01 -0.26489592059E+01  0.18599386373E+02  0.51100000000E-03 0. -1.
        -11    1    3    3    0    0 -0.10114177104E+02  0.22918734335E+02 -0.18639776613E+02  0.31225089823E+02  0.51100000000E-03 0.  1.
        -12    1    3    3    0    0  0.17388516262E+02 -0.10865652660E+02  0.95925255088E+01  0.22637125506E+02  0.00000000000E+00 0.  1.
</event>
<event>
 7    1  0.2809593E-013  0.7246158E+02  0.7816164E-02  0.1226708E+00
        -11   -1    0    0    0    0  0.00000000000E+00  0.00000000000E+00  0.45593999997E+02  0.45594000000E+02  0.51100000000E-03 0. -1.
         11   -1    0    0    0    0 -0.00000000000E+00 -0.00000000000E+00 -0.45593999997E+02  0.45594000000E+02  0.51100000000E-03 0.  1.
    9900012    2    1    2    0    0 -0.59182664897E+01  0.17305145766E+02  0.40230528106E+01  0.72461577434E+02  0.70000009300E+02 0.  0.
        -12    1    1    2    0    0  0.59182664897E+01 -0.17305145766E+02 -0.40230528106E+01  0.18726422566E+02  0.00000000000E+00 0.  1.
         11    1    3    3    0    0 -0.96772756495E+01 -0.56641531717E+01 -0.99564416785E+01  0.14995433515E+02  0.51100000000E-03 0. -1.
        -11    1    3    3    0    0 -0.78797295024E+01 -0.14102325348E+02  0.84126517685E+01  0.18213687910E+02  0.51100000000E-03 0.  1.
        -12    1    3    3    0    0  0.11638738662E+02  0.37071624285E+02  0.55668427206E+01  0.39252456008E+02  0.00000000000E+00 0.  1.
</event>
<event>
 7    1  0.2809593E-013  0.7246155E+02  0.7816164E-02  0.1226708E+00
        -11   -1    0    0    0    0  0.00000000000E+00  0.00000000000E+00  0.45593999997E+02  0.45594000000E+02  0.51100000000E-03 0.  1.
         11   -1    0    0    0    0 -0.00000000000E+00 -0.00000000000E+00 -0.45593999997E+02  0.45594000000E+02  0.51100000000E-03 0. -1.
    9900012    2    1    2    0    0  0.15640835307E+02  0.77060168353E+01  0.68309315922E+01  0.72461546759E+02  0.69999969341E+02 0.  0.
        -12    1    1    2    0    0 -0.15640835307E+02 -0.77060168353E+01 -0.68309315922E+01  0.18726453241E+02  0.00000000000E+00 0.  1.
         11    1    3    3    0    0 -0.45966245345E+01 -0.14063175001E+00  0.49209868005E+01  0.67353430315E+01  0.51100000000E-03 0. -1.
        -11    1    3    3    0    0 -0.19780695489E+02  0.91844719880E+01  0.11353342150E+02  0.24587167750E+02  0.51100000000E-03 0.  1.
         12    1    3    3    0    0  0.40018155330E+02 -0.13378234027E+01 -0.94433973584E+01  0.41139035978E+02  0.00000000000E+00 0. -1.
</event>
<event>
 7    1  0.2809593E-013  0.7246158E+02  0.7816164E-02  0.1226708E+00
        -11   -1    0    0    0    0  0.00000000000E+00  0.00000000000E+00  0.45593999997E+02  0.45594000000E+02  0.51100000000E-03 0. -1.
         11   -1    0    0    0    0 -0.00000000000E+00 -0.00000000000E+00 -0.45593999997E+02  0.45594000000E+02  0.51100000000E-03 0.  1.
    9900012    2    1    2    0    0  0.14638740508E+02  0.70516312907E+00  0.11657136546E+02  0.72461579863E+02  0.70000012465E+02 0.  0.
        -12    1    1    2    0    0 -0.14638740508E+02 -0.70516312907E+00 -0.11657136546E+02  0.18726420137E+02  0.00000000000E+00 0.  1.
         11    1    3    3    0    0 -0.12508953415E+01  0.16724170886E+02 -0.25481886461E+01  0.16963369259E+02  0.51100000000E-03 0. -1.
        -11    1    3    3    0    0  0.18889870253E+02  0.92908786741E+01 -0.71653826330E+01  0.22237138603E+02  0.51100000000E-03 0.  1.
         12    1    3    3    0    0 -0.30002344035E+01 -0.25309886431E+02  0.21370707825E+02  0.33261072000E+02  0.00000000000E+00 0. -1.
</event>
<event>
 7    1  0.2809593E-013  0.7246157E+02  0.7816164E-02  0.1226708E+00
        -11   -1    0    0    0    0  0.00000000000E+00  0.00000000000E+00  0.45593999997E+02  0.45594000000E+02  0.51100000000E-03 0. -1.
         11   -1    0    0    0    0 -0.00000000000E+00 -0.00000000000E+00 -0.45593999997E+02  0.45594000000E+02  0.51100000000E-03 0.  1.
    9900012    2    1    2    0    0 -0.11644613620E+02  0.11325612083E+02 -0.93173219578E+01  0.72461574717E+02  0.70000005761E+02 0.  0.
        -12    1    1    2    0    0  0.11644613620E+02 -0.11325612083E+02  0.93173219578E+01  0.18726425283E+02  0.00000000000E+00 0.  1.
         11    1    3    3    0    0 -0.23710749461E+02 -0.13826194117E+02  0.17235346743E+02  0.32410190702E+02  0.51100000000E-03 0. -1.
        -11    1    3    3    0    0  0.56312416210E+00 -0.11107551492E+01 -0.61603806796E+00  0.13893843909E+01  0.51100000000E-03 0.  1.
        -12    1    3    3    0    0  0.11503011678E+02  0.26262561349E+02 -0.25936630633E+02  0.38661999624E+02  0.00000000000E+00 0.  1.
</event>
<event>
 7    1  0.2809593E-013  0.7246162E+02  0.7816164E-02  0.1226708E+00
        -11   -1    0    0    0    0  0.00000000000E+00  0.00000000000E+00  0.45593999997E+02  0.45594000000E+02  0.51100000000E-03 0.  1.
         11   -1    0    0    0    0 -0.00000000000E+00 -0.00000000000E+00 -0.45593999997E+02  0.45594000000E+02  0.51100000000E-03 0. -1.
    9900012    2    1    2    0    0  0.27324380907E+01  0.13780478512E+02 -0.12381816892E+02  0.72461623001E+02  0.70000068660E+02 0.  0.
        -12    1    1    2    0    0 -0.27324380907E+01 -0.13780478512E+02  0.12381816892E+02  0.18726376999E+02  0.00000000000E+00 0.  1.
         11    1    3    3    0    0  0.63685388755E+01 -0.19466316954E+02 -0.93063724517E+01  0.22496763137E+02  0.51100000000E-03 0. -1.
        -11    1    3    3    0    0  0.12367649332E+02  0.15566998643E+02  0.10541550373E+02  0.22503654843E+02  0.51100000000E-03 0.  1.
         12    1    3    3    0    0 -0.16003750117E+02  0.17679796823E+02 -0.13616994814E+02  0.27461205022E+02  0.00000000000E+00 0. -1.
</event>
<event>
 7    1  0.2809593E-013  0.7246154E+02  0.7816164E-02  0.1226708E+00
        -11   -1    0    0    0    0  0.00000000000E+00  0.00000000000E+00  0.45593999997E+02  0.45594000000E+02  0.51100000000E-03 0. -1.
         11   -1    0    0    0    0 -0.00000000000E+00 -0.00000000000E+00 -0.45593999997E+02  0.45594000000E+02  0.51100000000E-03 0.  1.
    9900012    2    1    2    0    0 -0.54491496374E-01 -0.12939248237E+02  0.13537100095E+02  0.72461542961E+02  0.69999964393E+02 0.  0.
        -12    1    1    2    0    0  0.54491496374E-01  0.12939248237E+02 -0.13537100095E+02  0.18726457039E+02  0.00000000000E+00 0.  1.
         11    1    3    3    0    0  0.44911169184E+01  0.12979983252E+01  0.29872749137E+02  0.30236336949E+02  0.51100000000E-03 0. -1.
        -11    1    3    3    0    0 -0.83887336519E+00 -0.65389583057E+00  0.11225525185E+02  0.11275801711E+02  0.51100000000E-03 0.  1.
        -12    1    3    3    0    0 -0.37067350496E+01 -0.13583350731E+02 -0.27561174227E+02  0.30949404301E+02  0.00000000000E+00 0.  1.
</event>
<event>
 7    1  0.2809593E-013  0.7246147E+02  0.7816164E-02  0.1226708E+00
        -11   -1    0    0    0    0  0.00000000000E+00  0.00000000000E+00  0.45593999997E+02  0.45594000000E+02  0.51100000000E-03 0. -1.
         11   -1    0    0    0    0 -0.00000000000E+00 -0.00000000000E+00 -0.45593999997E+02  0.45594000000E+02  0.51100000000E-03 0.  1.
    9900012    2    1    2    0    0  0.62415980257E+00  0.10069466194E+02  0.15776535255E+02  0.72461473639E+02  0.69999874089E+02 0.  0.
        -12    1    1    2    0    0 -0.62415980257E+00 -0.10069466194E+02 -0.15776535255E+02  0.18726526361E+02  0.00000000000E+00 0.  1.
         11    1    3    3    0    0  0.24168819918E+02 -0.12081667358E+02  0.71659246175E+01  0.27954409639E+02  0.51100000000E-03 0. -1.
        -11    1    3    3    0    0 -0.81643526417E+00 -0.61571450647E+01  0.50959042947E+01  0.80340053977E+01  0.51100000000E-03 0.  1.
        -12    1    3    3    0    0 -0.22728224851E+02  0.28308278617E+02  0.35147063426E+01  0.36473058603E+02  0.00000000000E+00 0.  1.
</event>
<event>
 7    1  0.2809593E-013  0.7246170E+02  0.7816164E-02  0.1226708E+00
        -11   -1    0    0    0    0  0.00000000000E+00  0.00000000000E+00  0.45593999997E+02  0.45594000000E+02  0.51100000000E-03 0. -1.
         11   -1    0    0    0    0 -0.00000000000E+00 -0.00000000000E+00 -0.45593999997E+02  0.45594000000E+02  0.51100000000E-03 0.  1.
    9900012    2    1    2    0    0  0.26437197787E+01 -0.14159734507E+02  0.11966073529E+02  0.72461701613E+02  0.70000171066E+02 0.  0.
        -12    1    1    2    0    0 -0.26437197787E+01  0.14159734507E+02 -0.11966073529E+02  0.18726298387E+02  0.00000000000E+00 0.  1.
         11    1    3    3    0    0 -0.38697048059E+00 -0.10586730617E+02  0.48037244278E+01  0.11632041092E+02  0.51100000000E-03 0. -1.
        -11    1    3    3    0    0 -0.22447190711E+02 -0.54037200204E+01 -0.14562193619E+02  0.27297143516E+02  0.51100000000E-03 0.  1.
         12    1    3    3    0    0  0.25477880970E+02  0.18307161305E+01  0.21724542720E+02  0.33532517005E+02  0.00000000000E+00 0. -1.
</event>
<event>
 7    1  0.2809593E-013  0.7246155E+02  0.7816164E-02  0.1226708E+00
        -11   -1    0    0    0    0  0.00000000000E+00  0.00000000000E+00  0.45593999997E+02  0.45594000000E+02  0.51100000000E-03 0. -1.
         11   -1    0    0    0    0 -0.00000000000E+00 -0.00000000000E+00 -0.45593999997E+02  0.45594000000E+02  0.51100000000E-03 0.  1.
    9900012    2    1    2    0    0  0.25218414552E+01 -0.18382629155E+02 -0.25296622810E+01  0.72461549983E+02  0.69999973540E+02 0.  0.
        -12    1    1    2    0    0 -0.25218414552E+01  0.18382629155E+02  0.25296622810E+01  0.18726450017E+02  0.00000000000E+00 0.  1.
         11    1    3    3    0    0 -0.61749624560E+00 -0.27744631854E+01 -0.13276426964E+02  0.13577277370E+02  0.51100000000E-03 0. -1.
        -11    1    3    3    0    0  0.76788487768E+01  0.18935024164E+02 -0.43881247761E+01  0.20898696082E+02  0.51100000000E-03 0.  1.
         12    1    3    3    0    0 -0.45395110759E+01 -0.34543190134E+02  0.15134889460E+02  0.37985576531E+02  0.00000000000E+00 0. -1.
</event>
<event>
 7    1  0.2809593E-013  0.7246159E+02  0.7816164E-02  0.1226708E+00
        -11   -1    0    0    0    0  0.00000000000E+00  0.00000000000E+00  0.45593999997E+02  0.45594000000E+02  0.51100000000E-03 0. -1.
         11   -1    0    0    0    0 -0.00000000000E+00 -0.00000000000E+00 -0.45593999997E+02  0.45594000000E+02  0.51100000000E-03 0.  1.
    9900012    2    1    2    0    0  0.24040780150E+01 -0.72491016040E+01  0.17098231162E+02  0.72461586194E+02  0.70000020712E+02 0.  0.
        -12    1    1    2    0    0 -0.24040780150E+01  0.72491016040E+01 -0.17098231162E+02  0.18726413806E+02  0.00000000000E+00 0.  1.
         11    1    3    3    0    0 -0.99588496569E+01 -0.14440517960E+02  0.16389928392E+02  0.24007019773E+02  0.51100000000E-03 0. -1.
        -11    1    3    3    0    0 -0.12683814861E+02  0.12561072920E+02  0.10866177898E+02  0.20898170607E+02  0.51100000000E-03 0.  1.
         12    1    3    3    0    0  0.25046742533E+02 -0.53696565645E+01 -0.10157875129E+02  0.27556395814E+02  0.00000000000E+00 0. -1.
</event>
<event>
 7    1  0.2809593E-013  0.7246158E+02  0.7816164E-02  0.1226708E+00
        -11   -1    0    0    0    0  0.00000000000E+00  0.00000000000E+00  0.45593999997E+02  0.45594000000E+02  0.51100000000E-03 0.  1.
         11   -1    0    0    0    0 -0.00000000000E+00 -0.00000000000E+00 -0.45593999997E+02  0.45594000000E+02  0.51100000000E-03 0. -1.
    9900012    2    1    2    0    0 -0.56783909447E+01 -0.14646713043E+02 -0.10193545916E+02  0.72461582696E+02  0.70000016156E+02 0.  0.
        -12    1    1    2    0    0  0.56783909447E+01  0.14646713043E+02  0.10193545916E+02  0.18726417304E+02  0.00000000000E+00 0.  1.
         11    1    3    3    0    0 -0.16843451054E+02 -0.99139841670E+01  0.15081944557E+02  0.24687121691E+02  0.51100000000E-03 0. -1.
        -11    1    3    3    0    0  0.10209235583E+02  0.72378102839E+01  0.62867486769E+01  0.14004913355E+02  0.51100000000E-03 0.  1.
        -12    1    3    3    0    0  0.95582452654E+00 -0.11970539160E+02 -0.31562239151E+02  0.33769547650E+02  0.00000000000E+00 0.  1.
</event>
<event>
 7    1  0.2809593E-013  0.7246162E+02  0.7816164E-02  0.1226708E+00
        -11   -1    0    0    0    0  0.00000000000E+00  0.00000000000E+00  0.45593999997E+02  0.45594000000E+02  0.51100000000E-03 0. -1.
         11   -1    0    0    0    0 -0.00000000000E+00 -0.00000000000E+00 -0.45593999997E+02  0.45594000000E+02  0.51100000000E-03 0.  1.
    9900012    2    1    2    0    0 -0.20729897604E+01 -0.13806172184E+02  0.12480766184E+02  0.72461622842E+02  0.70000068453E+02 0.  0.
        -12    1    1    2    0    0  0.20729897604E+01  0.13806172184E+02 -0.12480766184E+02  0.18726377158E+02  0.00000000000E+00 0.  1.
         11    1    3    3    0    0  0.16996630433E+02 -0.31016507169E+02 -0.40247437583E+00  0.35370484149E+02  0.51100000000E-03 0. -1.
        -11    1    3    3    0    0 -0.46935088912E+01  0.54629270112E+01  0.16655811050E+02  0.18146312001E+02  0.51100000000E-03 0.  1.
        -12    1    3    3    0    0 -0.14376111303E+02  0.11747407974E+02 -0.37725704901E+01  0.18944826692E+02  0.00000000000E+00 0.  1.
</event>
<event>
 7    1  0.2809593E-013  0.7246159E+02  0.7816164E-02  0.1226708E+00
        -11   -1    0    0    0    0  0.00000000000E+00  0.00000000000E+00  0.45593999997E+02  0.45594000000E+02  0.51100000000E-03 0. -1.
         11   -1    0    0    0    0 -0.00000000000E+00 -0.00000000000E+00 -0.45593999997E+02  0.45594000000E+02  0.51100000000E-03 0.  1.
    9900012    2    1    2    0    0  0.48928156285E+01 -0.78787820895E+00  0.18058738628E+02  0.72461589834E+02  0.70000025454E+02 0.  0.
        -12    1    1    2    0    0 -0.48928156285E+01  0.78787820895E+00 -0.18058738628E+02  0.18726410166E+02  0.00000000000E+00 0.  1.
         11    1    3    3    0    0  0.22887143654E+02  0.36476988004E+00  0.33971308793E+02  0.40963449843E+02  0.51100000000E-03 0. -1.
        -11    1    3    3    0    0 -0.33066555421E+01 -0.46325387458E+00 -0.16449052336E+02  0.16784513637E+02  0.51100000000E-03 0.  1.
        -12    1    3    3    0    0 -0.14687672483E+02 -0.68939421441E+00  0.53648217113E+00  0.14713626354E+02  0.00000000000E+00 0.  1.
</event>
<event>
 7    1  0.2809593E-013  0.7246157E+02  0.7816164E-02  0.1226708E+00
        -11   -1    0    0    0    0  0.00000000000E+00  0.00000000000E+00  0.45593999997E+02  0.45594000000E+02  0.51100000000E-03 0.  1.
         11   -1    0    0    0    0 -0.00000000000E+00 -0.00000000000E+00 -0.45593999997E+02  0.45594000000E+02  0.51100000000E-03 0. -1.
    9900012    2    1    2    0    0  0.23265465138E+00  0.18392367809E+02 -0.35136799264E+01  0.72461567654E+02  0.69999996560E+02 0.  0.
        -12    1    1    2    0    0 -0.23265465138E+00 -0.18392367809E+02  0.35136799264E+01  0.18726432346E+02  0.00000000000E+00 0.  1.
         11    1    3    3    0    0 -0.25176607387E+00 -0.10083787351E+01  0.20573963128E+02  0.20600198370E+02  0.51100000000E-03 0.  1.
        -11    1    3    3    0    0  0.34956479259E+01 -0.11414657753E+02  0.10438177940E+01  0.11983468692E+02  0.51100000000E-03 0. -1.
         12    1    3    3    0    0 -0.30112272007E+01  0.30815404297E+02 -0.25131460848E+02  0.39877900592E+02  0.00000000000E+00 0. -1.
</event>
<event>
 7    1  0.2809593E-013  0.7246157E+02  0.7816164E-02  0.1226708E+00
        -11   -1    0    0    0    0  0.00000000000E+00  0.00000000000E+00  0.45593999997E+02  0.45594000000E+02  0.51100000000E-03 0.  1.
         11   -1    0    0    0    0 -0.00000000000E+00 -0.00000000000E+00 -0.45593999997E+02  0.45594000000E+02  0.51100000000E-03 0. -1.
    9900012    2    1    2    0    0 -0.30864666743E+01  0.13379720751E+02 -0.12733262701E+02  0.72461569937E+02  0.69999999535E+02 0.  0.
        -12    1    1    2    0    0  0.30864666743E+01 -0.13379720751E+02  0.12733262701E+02  0.18726430063E+02  0.00000000000E+00 0.  1.
         11    1    3    3    0    0  0.27658177170E+01  0.18461788495E+01 -0.18848577131E+01  0.38224092988E+01  0.51100000000E-03 0. -1.
        -11    1    3    3    0    0 -0.16126783810E+02 -0.24081153766E+02 -0.12436704895E+02  0.31538020732E+02  0.51100000000E-03 0.  1.
         12    1    3    3    0    0  0.10274499419E+02  0.35614695667E+02  0.15882999079E+01  0.37101139907E+02  0.00000000000E+00 0. -1.
</event>
<event>
 8    1  0.2809593E-013  0.7246149E+02  0.7816164E-02  0.1226708E+00
        -11   -1    0    0    0    0  0.00000000000E+00  0.00000000000E+00  0.45593999997E+02  0.45594000000E+02  0.51100000000E-03 0. -1.
         11   -1    0    0    0    0 -0.00000000000E+00 -0.00000000000E+00 -0.45593999997E+02  0.45594000000E+02  0.51100000000E-03 0.  1.
    9900012    2    1    2    0    0  0.53544795691E+01 -0.51867187787E+01  0.17178751731E+02  0.72461494341E+02  0.69999901057E+02 0.  0.
         23    2    3    3    0    0 -0.81449228772E+01 -0.85382422400E+01  0.18182078574E+02  0.58516128062E+02  0.54353545541E+02 0.  0.
        -12    1    1    2    0    0 -0.53544795691E+01  0.51867187787E+01 -0.17178751731E+02  0.18726505659E+02  0.00000000000E+00 0.  1.
         11    1    4    4    0    0  0.23290134806E+02 -0.12312806972E+01  0.67822493791E+01  0.24288790385E+02  0.51100000000E-03 0. -1.
        -11    1    4    4    0    0 -0.31435057683E+02 -0.73069615428E+01  0.11399829195E+02  0.34227337677E+02  0.51100000000E-03 0.  1.
         12    1    3    3    0    0  0.13499402446E+02  0.33515234614E+01 -0.10033268426E+01  0.13945366280E+02  0.00000000000E+00 0. -1.
</event>
<event>
 7    1  0.2809593E-013  0.7246155E+02  0.7816164E-02  0.1226708E+00
        -11   -1    0    0    0    0  0.00000000000E+00  0.00000000000E+00  0.45593999997E+02  0.45594000000E+02  0.51100000000E-03 0. -1.
         11   -1    0    0    0    0 -0.00000000000E+00 -0.00000000000E+00 -0.45593999997E+02  0.45594000000E+02  0.51100000000E-03 0.  1.
    9900012    2    1    2    0    0 -0.34192544423E+01 -0.16726122618E+02  0.76957971597E+01  0.72461554189E+02  0.69999979020E+02 0.  0.
        -12    1    1    2    0    0  0.34192544423E+01  0.16726122618E+02 -0.76957971597E+01  0.18726445811E+02  0.00000000000E+00 0.  1.
         11    1    3    3    0    0  0.19071406241E+02 -0.72032698289E+01 -0.14528292707E+02  0.25033515964E+02  0.51100000000E-03 0. -1.
        -11    1    3    3    0    0 -0.17087985191E+01 -0.18094793198E+02  0.43007347070E+01  0.18677201410E+02  0.51100000000E-03 0.  1.
        -12    1    3    3    0    0 -0.20781862165E+02  0.85719404084E+01  0.17923355160E+02  0.28750836815E+02  0.00000000000E+00 0.  1.
</event>
<event>
 7    1  0.2809593E-013  0.7246158E+02  0.7816164E-02  0.1226708E+00
        -11   -1    0    0    0    0  0.00000000000E+00  0.00000000000E+00  0.45593999997E+02  0.45594000000E+02  0.51100000000E-03 0. -1.
         11   -1    0    0    0    0 -0.00000000000E+00 -0.00000000000E+00 -0.45593999997E+02  0.45594000000E+02  0.51100000000E-03 0.  1.
    9900012    2    1    2    0    0 -0.75322924666E+01 -0.16289975192E+02  0.53460191900E+01  0.72461584360E+02  0.70000018323E+02 0.  0.
        -12    1    1    2    0    0  0.75322924666E+01  0.16289975192E+02 -0.53460191900E+01  0.18726415640E+02  0.00000000000E+00 0.  1.
         11    1    3    3    0    0 -0.49544022329E+01 -0.63682978962E+01  0.94976639262E+01  0.12462220504E+02  0.51100000000E-03 0. -1.
        -11    1    3    3    0    0 -0.26139986094E+02  0.87496070837E+01  0.61075615511E+01  0.28233965458E+02  0.51100000000E-03 0.  1.
         12    1    3    3    0    0  0.23562095861E+02 -0.18671284379E+02 -0.10259206287E+02  0.31765398398E+02  0.00000000000E+00 0. -1.
</event>
<event>
 7    1  0.2809593E-013  0.7246163E+02  0.7816164E-02  0.1226708E+00
        -11   -1    0    0    0    0  0.00000000000E+00  0.00000000000E+00  0.45593999997E+02  0.45594000000E+02  0.51100000000E-03 0.  1.
         11   -1    0    0    0    0 -0.00000000000E+00 -0.00000000000E+00 -0.45593999997E+02  0.45594000000E+02  0.51100000000E-03 0. -1.
    9900012    2    1    2    0    0 -0.10753664590E+02 -0.10312713012E+02 -0.11343879758E+02  0.72461629296E+02  0.70000076860E+02 0.  0.
        -12    1    1    2    0    0  0.10753664590E+02  0.10312713012E+02  0.11343879758E+02  0.18726370704E+02  0.00000000000E+00 0.  1.
         11    1    3    3    0    0 -0.57704054288E+01 -0.34189185404E+01  0.34008258746E+01  0.75201196592E+01  0.51100000000E-03 0. -1.
        -11    1    3    3    0    0 -0.11646372649E+02 -0.32544184922E+02  0.99955318882E-01  0.34565473517E+02  0.51100000000E-03 0.  1.
         12    1    3    3    0    0  0.66631134872E+01  0.25650390450E+02 -0.14844660951E+02  0.30376036120E+02  0.00000000000E+00 0. -1.
</event>
<event>
 7    1  0.2809593E-013  0.7246158E+02  0.7816164E-02  0.1226708E+00
        -11   -1    0    0    0    0  0.00000000000E+00  0.00000000000E+00  0.45593999997E+02  0.45594000000E+02  0.51100000000E-03 0. -1.
         11   -1    0    0    0    0 -0.00000000000E+00 -0.00000000000E+00 -0.45593999997E+02  0.45594000000E+02  0.51100000000E-03 0.  1.
    9900012    2    1    2    0    0 -0.11321239213E+02 -0.14618541565E+02  0.29676181274E+01  0.72461575564E+02  0.70000006864E+02 0.  0.
        -12    1    1    2    0    0  0.11321239213E+02  0.14618541565E+02 -0.29676181274E+01  0.18726424436E+02  0.00000000000E+00 0.  1.
         11    1    3    3    0    0  0.86633450555E+01  0.12105323397E+02  0.22421164158E+02  0.26912840886E+02  0.51100000000E-03 0. -1.
        -11    1    3    3    0    0  0.13044537159E+01  0.35904847577E+01 -0.26103543391E+00  0.38290103227E+01  0.51100000000E-03 0.  1.
        -12    1    3    3    0    0 -0.21289037985E+02 -0.30314349720E+02 -0.19192510597E+02  0.41719724355E+02  0.00000000000E+00 0.  1.
</event>
<event>
 7    1  0.2809593E-013  0.7246157E+02  0.7816164E-02  0.1226708E+00
        -11   -1    0    0    0    0  0.00000000000E+00  0.00000000000E+00  0.45593999997E+02  0.45594000000E+02  0.51100000000E-03 0.  1.
         11   -1    0    0    0    0 -0.00000000000E+00 -0.00000000000E+00 -0.45593999997E+02  0.45594000000E+02  0.51100000000E-03 0. -1.
    9900012    2    1    2    0    0  0.91308757376E+00  0.74048901573E+01 -0.17175948849E+02  0.72461565582E+02  0.69999993861E+02 0.  0.
        -12    1    1    2    0    0 -0.91308757376E+00 -0.74048901573E+01  0.17175948849E+02  0.18726434418E+02  0.00000000000E+00 0.  1.
         11    1    3    3    0    0 -0.30796556994E+02 -0.68096120806E+01 -0.95990950570E+01  0.32968793814E+02  0.51100000000E-03 0. -1.
        -11    1    3    3    0    0 -0.56486046845E+00 -0.22869756491E+01 -0.13450221575E+01  0.27126389059E+01  0.51100000000E-03 0.  1.
        -12    1    3    3    0    0  0.32274505037E+02  0.16501477887E+02 -0.62318316342E+01  0.36780132862E+02  0.00000000000E+00 0.  1.
</event>
<event>
 7    1  0.2809593E-013  0.7246158E+02  0.7816164E-02  0.1226708E+00
        -11   -1    0    0    0    0  0.00000000000E+00  0.00000000000E+00  0.45593999997E+02  0.45594000000E+02  0.51100000000E-03 0.  1.
         11   -1    0    0    0    0 -0.00000000000E+00 -0.00000000000E+00 -0.45593999997E+02  0.45594000000E+02  0.51100000000E-03 0. -1.
    9900012    2    1    2    0    0 -0.12554413246E+02  0.10710659961E+02  0.88513894252E+01  0.72461584873E+02  0.70000018992E+02 0.  0.
        -12    1    1    2    0    0  0.12554413246E+02 -0.10710659961E+02 -0.88513894252E+01  0.18726415127E+02  0.00000000000E+00 0.  1.
         11    1    3    3    0    0 -0.12032080029E+02  0.12270398439E+02  0.26224146855E+01  0.17384207970E+02  0.51100000000E-03 0.  1.
        -11    1    3    3    0    0 -0.32180283221E+01 -0.24591034375E+02  0.16424713521E+02  0.29746359314E+02  0.51100000000E-03 0. -1.
         12    1    3    3    0    0  0.26956951056E+01  0.23031295897E+02 -0.10195738782E+02  0.25331017589E+02  0.00000000000E+00 0. -1.
</event>
<event>
 7    1  0.2809593E-013  0.7246157E+02  0.7816164E-02  0.1226708E+00
        -11   -1    0    0    0    0  0.00000000000E+00  0.00000000000E+00  0.45593999997E+02  0.45594000000E+02  0.51100000000E-03 0.  1.
         11   -1    0    0    0    0 -0.00000000000E+00 -0.00000000000E+00 -0.45593999997E+02  0.45594000000E+02  0.51100000000E-03 0. -1.
    9900012    2    1    2    0    0 -0.62795358962E+01  0.64201172262E+01 -0.16432545448E+02  0.72461574122E+02  0.70000004986E+02 0.  0.
        -12    1    1    2    0    0  0.62795358962E+01 -0.64201172262E+01  0.16432545448E+02  0.18726425878E+02  0.00000000000E+00 0.  1.
         11    1    3    3    0    0  0.66387931522E+01  0.18435324753E+02 -0.22061053931E+01  0.19718054532E+02  0.51100000000E-03 0. -1.
        -11    1    3    3    0    0 -0.25293378625E+02  0.55244397821E+01  0.18041720052E+01  0.25952446399E+02  0.51100000000E-03 0.  1.
         12    1    3    3    0    0  0.12375049577E+02 -0.17539647309E+02 -0.16030612060E+02  0.26791073192E+02  0.00000000000E+00 0. -1.
</event>
<event>
 7    1  0.2809593E-013  0.7246164E+02  0.7816164E-02  0.1226708E+00
        -11   -1    0    0    0    0  0.00000000000E+00  0.00000000000E+00  0.45593999997E+02  0.45594000000E+02  0.51100000000E-03 0. -1.
         11   -1    0    0    0    0 -0.00000000000E+00 -0.00000000000E+00 -0.45593999997E+02  0.45594000000E+02  0.51100000000E-03 0.  1.
    9900012    2    1    2    0    0 -0.11015828336E+02 -0.14350067864E+02  0.48377422380E+01  0.72461636990E+02  0.70000086883E+02 0.  0.
        -12    1    1    2    0    0  0.11015828336E+02  0.14350067864E+02 -0.48377422380E+01  0.18726363010E+02  0.00000000000E+00 0.  1.
         11    1    3    3    0    0 -0.63432320545E-01 -0.48923630220E+00  0.48316161291E+01  0.48567366100E+01  0.51100000000E-03 0. -1.
        -11    1    3    3    0    0 -0.31613331278E+02 -0.27355309742E+02 -0.59283505095E+01  0.42223939011E+02  0.51100000000E-03 0.  1.
         12    1    3    3    0    0  0.20660935262E+02  0.13494478180E+02  0.59344766184E+01  0.25380961369E+02  0.00000000000E+00 0. -1.
</event>
<event>
 7    1  0.2809593E-013  0.7246163E+02  0.7816164E-02  0.1226708E+00
        -11   -1    0    0    0    0  0.00000000000E+00  0.00000000000E+00  0.45593999997E+02  0.45594000000E+02  0.51100000000E-03 0.  1.
         11   -1    0    0    0    0 -0.00000000000E+00 -0.00000000000E+00 -0.45593999997E+02  0.45594000000E+02  0.51100000000E-03 0. -1.
    9900012    2    1    2    0    0  0.13672115803E+02  0.93458378012E+01 -0.87410212136E+01  0.72461631249E+02  0.70000079405E+02 0.  0.
        -12    1    1    2    0    0 -0.13672115803E+02 -0.93458378012E+01  0.87410212136E+01  0.18726368751E+02  0.00000000000E+00 0.  1.
         11    1    3    3    0    0 -0.47291042135E-01 -0.53716197014E+01 -0.97876655704E+01  0.11164897323E+02  0.51100000000E-03 0. -1.
        -11    1    3    3    0    0 -0.78873195668E+01 -0.19274053744E+02  0.26136349496E+01  0.20988807626E+02  0.51100000000E-03 0.  1.
         12    1    3    3    0    0  0.21606726412E+02  0.33991511246E+02 -0.15669905928E+01  0.40307926300E+02  0.00000000000E+00 0. -1.
</event>
<event>
 7    1  0.2809593E-013  0.7246160E+02  0.7816164E-02  0.1226708E+00
        -11   -1    0    0    0    0  0.00000000000E+00  0.00000000000E+00  0.45593999997E+02  0.45594000000E+02  0.51100000000E-03 0.  1.
         11   -1    0    0    0    0 -0.00000000000E+00 -0.00000000000E+00 -0.45593999997E+02  0.45594000000E+02  0.51100000000E-03 0. -1.
    9900012    2    1    2    0    0  0.53978513349E+01  0.15791815003E+02 -0.84946876341E+01  0.72461603173E+02  0.70000042831E+02 0.  0.
        -12    1    1    2    0    0 -0.53978513349E+01 -0.15791815003E+02  0.84946876341E+01  0.18726396827E+02  0.00000000000E+00 0.  1.
         11    1    3    3    0    0  0.13949112160E+02  0.12600149856E+02 -0.31859548090E+02  0.36991516747E+02  0.51100000000E-03 0. -1.
        -11    1    3    3    0    0  0.17759629230E+01  0.59068619029E+01 -0.31209810487E+01  0.69127118276E+01  0.51100000000E-03 0.  1.
        -12    1    3    3    0    0 -0.10327223748E+02 -0.27151967560E+01  0.26485841505E+02  0.28557374599E+02  0.00000000000E+00 0.  1.
</event>
<event>
 7    1  0.2809593E-013  0.7246154E+02  0.7816164E-02  0.1226708E+00
        -11   -1    0    0    0    0  0.00000000000E+00  0.00000000000E+00  0.45593999997E+02  0.45594000000E+02  0.51100000000E-03 0. -1.
         11   -1    0    0    0    0 -0.00000000000E+00 -0.00000000000E+00 -0.45593999997E+02  0.45594000000E+02  0.51100000000E-03 0.  1.
    9900012    2    1    2    0    0  0.12717473072E+02  0.12344008231E+02  0.60474533047E+01  0.72461538722E+02  0.69999958871E+02 0.  0.
        -12    1    1    2    0    0 -0.12717473072E+02 -0.12344008231E+02 -0.60474533047E+01  0.18726461278E+02  0.00000000000E+00 0.  1.
         11    1    3    3    0    0 -0.65845194130E+00  0.13935124457E+02  0.46205863192E+01  0.14695954232E+02  0.51100000000E-03 0. -1.
        -11    1    3    3    0    0 -0.12401748520E+02  0.17282036324E+02  0.11610338442E+02  0.24233697713E+02  0.51100000000E-03 0.  1.
        -12    1    3    3    0    0  0.25777673533E+02 -0.18873152550E+02 -0.10183471456E+02  0.33531886777E+02  0.00000000000E+00 0.  1.
</event>
<event>
 7    1  0.2809593E-013  0.7246156E+02  0.7816164E-02  0.1226708E+00
        -11   -1    0    0    0    0  0.00000000000E+00  0.00000000000E+00  0.45593999997E+02  0.45594000000E+02  0.51100000000E-03 0. -1.
         11   -1    0    0    0    0 -0.00000000000E+00 -0.00000000000E+00 -0.45593999997E+02  0.45594000000E+02  0.51100000000E-03 0.  1.
    9900012    2    1    2    0    0 -0.61428868628E+01  0.60780147216E+01  0.16613319817E+02  0.72461555669E+02  0.69999980947E+02 0.  0.
        -12    1    1    2    0    0  0.61428868628E+01 -0.60780147216E+01 -0.16613319817E+02  0.18726444331E+02  0.00000000000E+00 0.  1.
         11    1    3    3    0    0  0.74161481619E+01 -0.87720165751E+01  0.11424289060E+02  0.16200676194E+02  0.51100000000E-03 0. -1.
        -11    1    3    3    0    0 -0.13069856120E+02 -0.11560542019E+01  0.26519797999E+02  0.29588127458E+02  0.51100000000E-03 0.  1.
        -12    1    3    3    0    0 -0.48917890435E+00  0.16006085499E+02 -0.21330767242E+02  0.26672752016E+02  0.00000000000E+00 0.  1.
</event>
<event>
 7    1  0.2809593E-013  0.7246156E+02  0.7816164E-02  0.1226708E+00
        -11   -1    0    0    0    0  0.00000000000E+00  0.00000000000E+00  0.45593999997E+02  0.45594000000E+02  0.51100000000E-03 0.  1.
         11   -1    0    0    0    0 -0.00000000000E+00 -0.00000000000E+00 -0.45593999997E+02  0.45594000000E+02  0.51100000000E-03 0. -1.
    9900012    2    1    2    0    0 -0.12411939360E+02 -0.66783819540E+01  0.12329743592E+02  0.72461558767E+02  0.69999984984E+02 0.  0.
        -12    1    1    2    0    0  0.12411939360E+02  0.66783819540E+01 -0.12329743592E+02  0.18726441233E+02  0.00000000000E+00 0.  1.
         11    1    3    3    0    0 -0.62214897982E+01  0.78519213075E+01  0.23378895874E+01  0.10287143992E+02  0.51100000000E-03 0. -1.
        -11    1    3    3    0    0 -0.96949761476E+01 -0.14103813712E+02  0.33916876473E+02  0.37990322895E+02  0.51100000000E-03 0.  1.
         12    1    3    3    0    0  0.35045265857E+01 -0.42648954970E+00 -0.23925022469E+02  0.24184091880E+02  0.00000000000E+00 0. -1.
</event>
<event>
 7    1  0.2809593E-013  0.7246145E+02  0.7816164E-02  0.1226708E+00
        -11   -1    0    0    0    0  0.00000000000E+00  0.00000000000E+00  0.45593999997E+02  0.45594000000E+02  0.51100000000E-03 0. -1.
         11   -1    0    0    0    0 -0.00000000000E+00 -0.00000000000E+00 -0.45593999997E+02  0.45594000000E+02  0.51100000000E-03 0.  1.
    9900012    2    1    2    0    0 -0.31594719418E+01 -0.19399024899E+01  0.18355878661E+02  0.72461447567E+02  0.69999840124E+02 0.  0.
        -12    1    1    2    0    0  0.31594719418E+01  0.19399024899E+01 -0.18355878661E+02  0.18726552433E+02  0.00000000000E+00 0.  1.
         11    1    3    3    0    0  0.43390402786E+01  0.95558556661E+01  0.15022197160E+02  0.18325066326E+02  0.51100000000E-03 0. -1.
        -11    1    3    3    0    0  0.98705510348E+01  0.17544231280E+02 -0.43732674088E-01  0.20130318968E+02  0.51100000000E-03 0.  1.
         12    1    3    3    0    0 -0.17369063255E+02 -0.29039989436E+02  0.33774141748E+01  0.34006062273E+02  0.00000000000E+00 0. -1.
</event>
<event>
 7    1  0.2809593E-013  0.7246189E+02  0.7816164E-02  0.1226707E+00
        -11   -1    0    0    0    0  0.00000000000E+00  0.00000000000E+00  0.45593999997E+02  0.45594000000E+02  0.51100000000E-03 0.  1.
         11   -1    0    0    0    0 -0.00000000000E+00 -0.00000000000E+00 -0.45593999997E+02  0.45594000000E+02  0.51100000000E-03 0. -1.
    9900012    2    1    2    0    0  0.17271773050E+02  0.68210588175E+01  0.24137750158E+01  0.72461887282E+02  0.70000412934E+02 0.  0.
        -12    1    1    2    0    0 -0.17271773050E+02 -0.68210588175E+01 -0.24137750158E+01  0.18726112718E+02  0.00000000000E+00 0.  1.
         11    1    3    3    0    0 -0.59455094644E+00  0.58146238178E+01  0.26956394852E+01  0.64365995266E+01  0.51100000000E-03 0. -1.
        -11    1    3    3    0    0 -0.15304545183E+02  0.20671636380E+01  0.21394200663E+02  0.26385869155E+02  0.51100000000E-03 0.  1.
         12    1    3    3    0    0  0.33170869180E+02 -0.10607286383E+01 -0.21676065132E+02  0.39639418601E+02  0.00000000000E+00 0. -1.
</event>
<event>
 7    1  0.2809593E-013  0.7246158E+02  0.7816164E-02  0.1226708E+00
        -11   -1    0    0    0    0  0.00000000000E+00  0.00000000000E+00  0.45593999997E+02  0.45594000000E+02  0.51100000000E-03 0. -1.
         11   -1    0    0    0    0 -0.00000000000E+00 -0.00000000000E+00 -0.45593999997E+02  0.45594000000E+02  0.51100000000E-03 0.  1.
    9900012    2    1    2    0    0 -0.16936297926E+02 -0.11703183217E+01  0.79038676590E+01  0.72461575985E+02  0.70000007414E+02 0.  0.
        -12    1    1    2    0    0  0.16936297926E+02  0.11703183217E+01 -0.79038676590E+01  0.18726424015E+02  0.00000000000E+00 0.  1.
         11    1    3    3    0    0  0.13349870237E+02  0.15902964682E+02  0.44755459923E+01  0.21240382134E+02  0.51100000000E-03 0. -1.
        -11    1    3    3    0    0  0.13919109160E+01  0.49249700938E+01 -0.92939096738E+01  0.10609877648E+02  0.51100000000E-03 0.  1.
         12    1    3    3    0    0 -0.31678079079E+02 -0.21998253097E+02  0.12722231341E+02  0.40611316203E+02  0.00000000000E+00 0. -1.
</event>
<event>
 7    1  0.2809593E-013  0.7246158E+02  0.7816164E-02  0.1226708E+00
        -11   -1    0    0    0    0  0.00000000000E+00  0.00000000000E+00  0.45593999997E+02  0.45594000000E+02  0.51100000000E-03 0. -1.
         11   -1    0    0    0    0 -0.00000000000E+00 -0.00000000000E+00 -0.45593999997E+02  0.45594000000E+02  0.51100000000E-03 0.  1.
    9900012    2    1    2    0    0 -0.43427472496E+01 -0.81272043095E+01  0.16302389375E+02  0.72461580083E+02  0.70000012752E+02 0.  0.
        -12    1    1    2    0    0  0.43427472496E+01  0.81272043095E+01 -0.16302389375E+02  0.18726419917E+02  0.00000000000E+00 0.  1.
         11    1    3    3    0    0  0.11554425087E+01  0.18832310082E+01  0.12151987147E+00  0.22127751267E+01  0.51100000000E-03 0. -1.
        -11    1    3    3    0    0  0.39133065901E+01  0.22195174680E+02  0.26836532624E+02  0.35044817464E+02  0.51100000000E-03 0.  1.
         12    1    3    3    0    0 -0.94114963484E+01 -0.32205609998E+02 -0.10655663120E+02  0.35203987492E+02  0.00000000000E+00 0. -1.
</event>
<event>
 7    1  0.2809593E-013  0.7246177E+02  0.7816164E-02  0.1226707E+00
        -11   -1    0    0    0    0  0.00000000000E+00  0.00000000000E+00  0.45593999997E+02  0.45594000000E+02  0.51100000000E-03 0.  1.
         11   -1    0    0    0    0 -0.00000000000E+00 -0.00000000000E+00 -0.45593999997E+02  0.45594000000E+02  0.51100000000E-03 0. -1.
    9900012    2    1    2    0    0 -0.44875829603E+01  0.15927626772E+02 -0.87660775762E+01  0.72461766757E+02  0.70000255928E+02 0.  0.
        -12    1    1    2    0    0  0.44875829603E+01 -0.15927626772E+02  0.87660775762E+01  0.18726233243E+02  0.00000000000E+00 0.  1.
         11    1    3    3    0    0 -0.25539825673E+02  0.81867979908E+01 -0.16265198396E+01  0.26869163065E+02  0.51100000000E-03 0. -1.
        -11    1    3    3    0    0  0.16609875310E+02 -0.14407384550E+02 -0.29727992092E+00  0.21989749043E+02  0.51100000000E-03 0.  1.
         12    1    3    3    0    0  0.44423674029E+01  0.22148213331E+02 -0.68422778156E+01  0.23602854649E+02  0.00000000000E+00 0. -1.
</event>
<event>
 7    1  0.2809593E-013  0.7246159E+02  0.7816164E-02  0.1226708E+00
        -11   -1    0    0    0    0  0.00000000000E+00  0.00000000000E+00  0.45593999997E+02  0.45594000000E+02  0.51100000000E-03 0.  1.
         11   -1    0    0    0    0 -0.00000000000E+00 -0.00000000000E+00 -0.45593999997E+02  0.45594000000E+02  0.51100000000E-03 0. -1.
    9900012    2    1    2    0    0 -0.27615398219E+01 -0.13594987655E+00 -0.18521170338E+02  0.72461592570E+02  0.70000029018E+02 0.  0.
        -12    1    1    2    0    0  0.27615398219E+01  0.13594987655E+00  0.18521170338E+02  0.18726407430E+02  0.00000000000E+00 0.  1.
         11    1    3    3    0    0 -0.13282237200E+02 -0.16522629960E+02 -0.21378821925E+02  0.30107626160E+02  0.51100000000E-03 0. -1.
        -11    1    3    3    0    0 -0.14133957385E+02  0.64519186564E+01 -0.60288300899E+00  0.15548616463E+02  0.51100000000E-03 0.  1.
        -12    1    3    3    0    0  0.24654654763E+02  0.99347614268E+01  0.34605345955E+01  0.26805349947E+02  0.00000000000E+00 0.  1.
</event>
<event>
 7    1  0.2809593E-013  0.7246158E+02  0.7816164E-02  0.1226708E+00
        -11   -1    0    0    0    0  0.00000000000E+00  0.00000000000E+00  0.45593999997E+02  0.45594000000E+02  0.51100000000E-03 0.  1.
         11   -1    0    0    0    0 -0.00000000000E+00 -0.00000000000E+00 -0.45593999997E+02  0.45594000000E+02  0.51100000000E-03 0. -1.
    9900012    2    1    2    0    0 -0.26361386732E+00 -0.18450545704E+02  0.31916410307E+01  0.72461582791E+02  0.70000016279E+02 0.  0.
        -12    1    1    2    0    0  0.26361386732E+00  0.18450545704E+02 -0.31916410307E+01  0.18726417209E+02  0.00000000000E+00 0.  1.
         11    1    3    3    0    0 -0.11457103080E+01 -0.18552968546E+02 -0.61024194429E+01  0.19564376231E+02  0.51100000000E-03 0. -1.
        -11    1    3    3    0    0  0.17136631501E+02  0.70327754862E+01 -0.14313184089E+02  0.23409214196E+02  0.51100000000E-03 0.  1.
        -12    1    3    3    0    0 -0.16254535060E+02 -0.69303526439E+01  0.23607244563E+02  0.29487992364E+02  0.00000000000E+00 0.  1.
</event>
<event>
 7    1  0.2809593E-013  0.7246155E+02  0.7816164E-02  0.1226708E+00
        -11   -1    0    0    0    0  0.00000000000E+00  0.00000000000E+00  0.45593999997E+02  0.45594000000E+02  0.51100000000E-03 0. -1.
         11   -1    0    0    0    0 -0.00000000000E+00 -0.00000000000E+00 -0.45593999997E+02  0.45594000000E+02  0.51100000000E-03 0.  1.
    9900012    2    1    2    0    0 -0.96322780945E+01  0.15612351097E+01  0.15983172947E+02  0.72461546684E+02  0.69999969243E+02 0.  0.
        -12    1    1    2    0    0  0.96322780945E+01 -0.15612351097E+01 -0.15983172947E+02  0.18726453316E+02  0.00000000000E+00 0.  1.
         11    1    3    3    0    0  0.16585293008E+02  0.76337654845E+01  0.13314783667E+02  0.22597118932E+02  0.51100000000E-03 0. -1.
        -11    1    3    3    0    0 -0.25361880235E+01  0.16059149705E+02  0.58882958690E+01  0.17291632874E+02  0.51100000000E-03 0.  1.
        -12    1    3    3    0    0 -0.23681383079E+02 -0.22131680080E+02 -0.32199065891E+01  0.32572794878E+02  0.00000000000E+00 0.  1.
</event>
<event>
 7    1  0.2809593E-013  0.7246164E+02  0.7816164E-02  0.1226708E+00
        -11   -1    0    0    0    0  0.00000000000E+00  0.00000000000E+00  0.45593999997E+02  0.45594000000E+02  0.51100000000E-03 0.  1.
         11   -1    0    0    0    0 -0.00000000000E+00 -0.00000000000E+00 -0.45593999997E+02  0.45594000000E+02  0.51100000000E-03 0. -1.
    9900012    2    1    2    0    0 -0.11031575851E+02 -0.22050745145E+01 -0.14970595390E+02  0.72461635011E+02  0.70000084305E+02 0.  0.
        -12    1    1    2    0    0  0.11031575851E+02  0.22050745145E+01  0.14970595390E+02  0.18726364989E+02  0.00000000000E+00 0.  1.
         11    1    3    3    0    0 -0.55629369205E+01 -0.10947245434E+02 -0.45943387659E+01  0.13110926692E+02  0.51100000000E-03 0. -1.
        -11    1    3    3    0    0 -0.19405872446E+02 -0.17884487812E+02  0.27943845687E+01  0.26537734928E+02  0.51100000000E-03 0.  1.
         12    1    3    3    0    0  0.13937233516E+02  0.26626658732E+02 -0.13170641193E+02  0.32812973391E+02  0.00000000000E+00 0. -1.
</event>
<event>
 7    1  0.2809593E-013  0.7246158E+02  0.7816164E-02  0.1226708E+00
        -11   -1    0    0    0    0  0.00000000000E+00  0.00000000000E+00  0.45593999997E+02  0.45594000000E+02  0.51100000000E-03 0.  1.
         11   -1    0    0    0    0 -0.00000000000E+00 -0.00000000000E+00 -0.45593999997E+02  0.45594000000E+02  0.51100000000E-03 0. -1.
    9900012    2    1    2    0    0 -0.48374933973E+01  0.13578776952E+02 -0.11953832418E+02  0.72461584557E+02  0.70000018580E+02 0.  0.
        -12    1    1    2    0    0  0.48374933973E+01 -0.13578776952E+02  0.11953832418E+02  0.18726415443E+02  0.00000000000E+00 0.  1.
         11    1    3    3    0    0 -0.49803248877E+01  0.32060415858E+02 -0.25264772219E+02  0.41121559023E+02  0.51100000000E-03 0. -1.
        -11    1    3    3    0    0 -0.51186278576E+01  0.32165159421E+01  0.29121701780E+01  0.67102206638E+01  0.51100000000E-03 0.  1.
         12    1    3    3    0    0  0.52614593480E+01 -0.21698154848E+02  0.10398769623E+02  0.24629804870E+02  0.00000000000E+00 0. -1.
</event>
<event>
 7    1  0.2809593E-013  0.7246158E+02  0.7816164E-02  0.1226708E+00
        -11   -1    0    0    0    0  0.00000000000E+00  0.00000000000E+00  0.45593999997E+02  0.45594000000E+02  0.51100000000E-03 0.  1.
         11   -1    0    0    0    0 -0.00000000000E+00 -0.00000000000E+00 -0.45593999997E+02  0.45594000000E+02  0.51100000000E-03 0. -1.
    9900012    2    1    2    0    0  0.23797431909E+01  0.13168270886E+02 -0.13100093261E+02  0.72461575375E+02  0.70000006619E+02 0.  0.
        -12    1    1    2    0    0 -0.23797431909E+01 -0.13168270886E+02  0.13100093261E+02  0.18726424625E+02  0.00000000000E+00 0.  1.
         11    1    3    3    0    0  0.47208076360E+01 -0.87834394811E+01 -0.36154696747E+01  0.10606906009E+02  0.51100000000E-03 0. -1.
        -11    1    3    3    0    0 -0.21667545619E+02 -0.95417997964E+01  0.12123620282E+00  0.23675793017E+02  0.51100000000E-03 0.  1.
         12    1    3    3    0    0  0.19326481174E+02  0.31493510164E+02 -0.96058597888E+01  0.38178876349E+02  0.00000000000E+00 0. -1.
</event>
<event>
 7    1  0.2809593E-013  0.7246158E+02  0.7816164E-02  0.1226708E+00
        -11   -1    0    0    0    0  0.00000000000E+00  0.00000000000E+00  0.45593999997E+02  0.45594000000E+02  0.51100000000E-03 0.  1.
         11   -1    0    0    0    0 -0.00000000000E+00 -0.00000000000E+00 -0.45593999997E+02  0.45594000000E+02  0.51100000000E-03 0. -1.
    9900012    2    1    2    0    0  0.17319105535E+02  0.53623645263E+01  0.46874817794E+01  0.72461578685E+02  0.70000010930E+02 0.  0.
        -12    1    1    2    0    0 -0.17319105535E+02 -0.53623645263E+01 -0.46874817794E+01  0.18726421315E+02  0.00000000000E+00 0.  1.
         11    1    3    3    0    0 -0.11491196669E+01 -0.28089794206E+02  0.46760787405E+01  0.28499521525E+02  0.51100000000E-03 0. -1.
        -11    1    3    3    0    0  0.11093069715E+02  0.40270173321E+01  0.56872738870E+01  0.13100311020E+02  0.51100000000E-03 0.  1.
        -12    1    3    3    0    0  0.73751554868E+01  0.29425141400E+02 -0.56758708481E+01  0.30861746139E+02  0.00000000000E+00 0.  1.
</event>
<event>
 7    1  0.2809593E-013  0.7246128E+02  0.7816164E-02  0.1226709E+00
        -11   -1    0    0    0    0  0.00000000000E+00  0.00000000000E+00  0.45593999997E+02  0.45594000000E+02  0.51100000000E-03 0.  1.
         11   -1    0    0    0    0 -0.00000000000E+00 -0.00000000000E+00 -0.45593999997E+02  0.45594000000E+02  0.51100000000E-03 0. -1.
    9900012    2    1    2    0    0  0.16887402364E+02  0.60722547144E+01  0.53510296708E+01  0.72461276996E+02  0.69999617923E+02 0.  0.
        -12    1    1    2    0    0 -0.16887402364E+02 -0.60722547144E+01 -0.53510296708E+01  0.18726723004E+02  0.00000000000E+00 0.  1.
         11    1    3    3    0    0 -0.73911373127E+01  0.91034462833E+01 -0.15469616193E+02  0.19411611742E+02  0.51100000000E-03 0. -1.
        -11    1    3    3    0    0  0.31762072737E+01  0.14071613642E+02  0.21485195002E+02  0.25878798420E+02  0.51100000000E-03 0.  1.
        -12    1    3    3    0    0  0.21102332403E+02 -0.17102805211E+02 -0.66454913904E+00  0.27170866834E+02  0.00000000000E+00 0.  1.
</event>
<event>
 7    1  0.2809593E-013  0.7246158E+02  0.7816164E-02  0.1226708E+00
        -11   -1    0    0    0    0  0.00000000000E+00  0.00000000000E+00  0.45593999997E+02  0.45594000000E+02  0.51100000000E-03 0.  1.
         11   -1    0    0    0    0 -0.00000000000E+00 -0.00000000000E+00 -0.45593999997E+02  0.45594000000E+02  0.51100000000E-03 0. -1.
    9900012    2    1    2    0    0  0.18121876172E+02 -0.21624278746E+01 -0.41952634315E+01  0.72461582148E+02  0.70000015442E+02 0.  0.
        -12    1    1    2    0    0 -0.18121876172E+02  0.21624278746E+01  0.41952634315E+01  0.18726417852E+02  0.00000000000E+00 0.  1.
         11    1    3    3    0    0  0.45472494550E+01  0.18520776907E+02  0.93248805778E+00  0.19093616448E+02  0.51100000000E-03 0. -1.
        -11    1    3    3    0    0  0.12741440920E+02 -0.10423518583E+02  0.20182453171E+02  0.26044682233E+02  0.51100000000E-03 0.  1.
         12    1    3    3    0    0  0.83318579715E+00 -0.10259686199E+02 -0.25310204660E+02  0.27323283467E+02  0.00000000000E+00 0. -1.
</event>
<event>
 7    1  0.2809593E-013  0.7246164E+02  0.7816164E-02  0.1226708E+00
        -11   -1    0    0    0    0  0.00000000000E+00  0.00000000000E+00  0.45593999997E+02  0.45594000000E+02  0.51100000000E-03 0.  1.
         11   -1    0    0    0    0 -0.00000000000E+00 -0.00000000000E+00 -0.45593999997E+02  0.45594000000E+02  0.51100000000E-03 0. -1.
    9900012    2    1    2    0    0 -0.12549914964E+02 -0.13640419111E+02 -0.26674504389E+01  0.72461636472E+02  0.70000086209E+02 0.  0.
        -12    1    1    2    0    0  0.12549914964E+02  0.13640419111E+02  0.26674504389E+01  0.18726363528E+02  0.00000000000E+00 0.  1.
         11    1    3    3    0    0  0.81217908974E+01 -0.15411532251E+02 -0.74672013440E+01  0.18953572483E+02  0.51100000000E-03 0. -1.
        -11    1    3    3    0    0  0.61576984699E+01 -0.15503267436E+02  0.12303752149E+02  0.20728021345E+02  0.51100000000E-03 0.  1.
        -12    1    3    3    0    0 -0.26829404332E+02  0.17274380576E+02 -0.75040012444E+01  0.32780042644E+02  0.00000000000E+00 0.  1.
</event>
<event>
 7    1  0.2809593E-013  0.7246162E+02  0.7816164E-02  0.1226708E+00
        -11   -1    0    0    0    0  0.00000000000E+00  0.00000000000E+00  0.45593999997E+02  0.45594000000E+02  0.51100000000E-03 0. -1.
         11   -1    0    0    0    0 -0.00000000000E+00 -0.00000000000E+00 -0.45593999997E+02  0.45594000000E+02  0.51100000000E-03 0.  1.
    9900012    2    1    2    0    0 -0.18383115390E+02  0.17481971461E+01  0.31116458415E+01  0.72461615818E+02  0.70000059302E+02 0.  0.
        -12    1    1    2    0    0  0.18383115390E+02 -0.17481971461E+01 -0.31116458415E+01  0.18726384182E+02  0.00000000000E+00 0.  1.
         11    1    3    3    0    0 -0.36363279811E+02  0.47331087912E+01 -0.11284907350E+02  0.38367167886E+02  0.51100000000E-03 0. -1.
        -11    1    3    3    0    0 -0.36392543901E+00 -0.41565273535E-01 -0.62837279727E+01  0.62943948790E+01  0.51100000000E-03 0.  1.
        -12    1    3    3    0    0  0.18344089860E+02 -0.29433463716E+01  0.20680281165E+02  0.27800053052E+02  0.00000000000E+00 0.  1.
</event>
<event>
 7    1  0.2809593E-013  0.7246128E+02  0.7816164E-02  0.1226709E+00
        -11   -1    0    0    0    0  0.00000000000E+00  0.00000000000E+00  0.45593999997E+02  0.45594000000E+02  0.51100000000E-03 0.  1.
         11   -1    0    0    0    0 -0.00000000000E+00 -0.00000000000E+00 -0.45593999997E+02  0.45594000000E+02  0.51100000000E-03 0. -1.
    9900012    2    1    2    0    0 -0.19699143232E+01 -0.13421226553E+02 -0.12910459965E+02  0.72461284828E+02  0.69999628126E+02 0.  0.
        -12    1    1    2    0    0  0.19699143232E+01  0.13421226553E+02  0.12910459965E+02  0.18726715172E+02  0.00000000000E+00 0.  1.
         11    1    3    3    0    0 -0.24008277332E+02 -0.15955184668E+02 -0.36257278119E+01  0.29053591872E+02  0.51100000000E-03 0. -1.
        -11    1    3    3    0    0  0.22517998800E+01 -0.15479682845E+02 -0.36442124721E+01  0.16061490233E+02  0.51100000000E-03 0.  1.
         12    1    3    3    0    0  0.19786563129E+02  0.18013640960E+02 -0.56405196809E+01  0.27346202723E+02  0.00000000000E+00 0. -1.
</event>
<event>
 7    1  0.2809593E-013  0.7246156E+02  0.7816164E-02  0.1226708E+00
        -11   -1    0    0    0    0  0.00000000000E+00  0.00000000000E+00  0.45593999997E+02  0.45594000000E+02  0.51100000000E-03 0.  1.
         11   -1    0    0    0    0 -0.00000000000E+00 -0.00000000000E+00 -0.45593999997E+02  0.45594000000E+02  0.51100000000E-03 0. -1.
    9900012    2    1    2    0    0  0.44654008491E+01 -0.17450487289E+02  0.51205746227E+01  0.72461558912E+02  0.69999985172E+02 0.  0.
        -12    1    1    2    0    0 -0.44654008491E+01  0.17450487289E+02 -0.51205746227E+01  0.18726441088E+02  0.00000000000E+00 0.  1.
         11    1    3    3    0    0 -0.12470469935E+02 -0.77838710803E+00  0.59872309928E+01  0.13855159404E+02  0.51100000000E-03 0. -1.
        -11    1    3    3    0    0 -0.13136967988E+02 -0.20432817599E+02 -0.10978113345E+02  0.26657061650E+02  0.51100000000E-03 0.  1.
         12    1    3    3    0    0  0.30072838773E+02  0.37607174178E+01  0.10111456974E+02  0.31949337857E+02  0.00000000000E+00 0. -1.
</event>
<event>
 7    1  0.2809593E-013  0.7246161E+02  0.7816164E-02  0.1226708E+00
        -11   -1    0    0    0    0  0.00000000000E+00  0.00000000000E+00  0.45593999997E+02  0.45594000000E+02  0.51100000000E-03 0. -1.
         11   -1    0    0    0    0 -0.00000000000E+00 -0.00000000000E+00 -0.45593999997E+02  0.45594000000E+02  0.51100000000E-03 0.  1.
    9900012    2    1    2    0    0  0.16071063052E+02  0.80231516478E+01  0.52941267456E+01  0.72461606648E+02  0.70000047357E+02 0.  0.
        -12    1    1    2    0    0 -0.16071063052E+02 -0.80231516478E+01 -0.52941267456E+01  0.18726393352E+02  0.00000000000E+00 0.  1.
         11    1    3    3    0    0 -0.40533691576E+01 -0.32378445303E+01  0.26657973234E+01  0.58326592872E+01  0.51100000000E-03 0. -1.
        -11    1    3    3    0    0 -0.12027999354E+02 -0.90797893199E+01 -0.17898761116E+02  0.23398311741E+02  0.51100000000E-03 0.  1.
         12    1    3    3    0    0  0.32152431564E+02  0.20340785498E+02  0.20527090538E+02  0.43230635620E+02  0.00000000000E+00 0. -1.
</event>
<event>
 7    1  0.2809593E-013  0.7246159E+02  0.7816164E-02  0.1226708E+00
        -11   -1    0    0    0    0  0.00000000000E+00  0.00000000000E+00  0.45593999997E+02  0.45594000000E+02  0.51100000000E-03 0.  1.
         11   -1    0    0    0    0 -0.00000000000E+00 -0.00000000000E+00 -0.45593999997E+02  0.45594000000E+02  0.51100000000E-03 0. -1.
    9900012    2    1    2    0    0 -0.74279028514E+01 -0.81781844585E+00 -0.17170789519E+02  0.72461586021E+02  0.70000020487E+02 0.  0.
        -12    1    1    2    0    0  0.74279028514E+01  0.81781844585E+00  0.17170789519E+02  0.18726413979E+02  0.00000000000E+00 0.  1.
         11    1    3    3    0    0  0.35428103278E+01 -0.27173785551E+01 -0.13857812040E+02  0.14559347720E+02  0.51100000000E-03 0. -1.
        -11    1    3    3    0    0 -0.32052893766E+02 -0.10004112524E+02 -0.11942698680E+01  0.33599055744E+02  0.51100000000E-03 0.  1.
         12    1    3    3    0    0  0.21082180586E+02  0.11903672634E+02 -0.21187076110E+01  0.24303182557E+02  0.00000000000E+00 0. -1.
</event>
<event>
 7    1  0.2809593E-013  0.7246152E+02  0.7816164E-02  0.1226708E+00
        -11   -1    0    0    0    0  0.00000000000E+00  0.00000000000E+00  0.45593999997E+02  0.45594000000E+02  0.51100000000E-03 0.  1.
         11   -1    0    0    0    0 -0.00000000000E+00 -0.00000000000E+00 -0.45593999997E+02  0.45594000000E+02  0.51100000000E-03 0. -1.
    9900012    2    1    2    0    0 -0.75905884181E+01 -0.15875717828E+02  0.64051294414E+01  0.72461517889E+02  0.69999931733E+02 0.  0.
        -12    1    1    2    0    0  0.75905884181E+01  0.15875717828E+02 -0.64051294414E+01  0.18726482111E+02  0.00000000000E+00 0.  1.
         11    1    3    3    0    0  0.11924251351E+02 -0.11345239919E+02  0.25311868456E+02  0.30192597174E+02  0.51100000000E-03 0. -1.
        -11    1    3    3    0    0  0.45119323561E+01 -0.36868955456E+01  0.54980547866E+01  0.80112008493E+01  0.51100000000E-03 0.  1.
         12    1    3    3    0    0 -0.24026772126E+02 -0.84358236271E+00 -0.24404793801E+02  0.34257719866E+02  0.00000000000E+00 0. -1.
</event>
<event>
 7    1  0.2809593E-013  0.7246156E+02  0.7816164E-02  0.1226708E+00
        -11   -1    0    0    0    0  0.00000000000E+00  0.00000000000E+00  0.45593999997E+02  0.45594000000E+02  0.51100000000E-03 0.  1.
         11   -1    0    0    0    0 -0.00000000000E+00 -0.00000000000E+00 -0.45593999997E+02  0.45594000000E+02  0.51100000000E-03 0. -1.
    9900012    2    1    2    0    0 -0.57419693612E+01 -0.15901040911E+02 -0.80539595211E+01  0.72461559383E+02  0.69999985786E+02 0.  0.
        -12    1    1    2    0    0  0.57419693612E+01  0.15901040911E+02  0.80539595211E+01  0.18726440617E+02  0.00000000000E+00 0.  1.
         11    1    3    3    0    0 -0.67092210620E+01 -0.59006382235E+01  0.88654075370E+01  0.12586764070E+02  0.51100000000E-03 0. -1.
        -11    1    3    3    0    0  0.95165601873E+01 -0.31772501703E+02 -0.47422564542E+01  0.33504414318E+02  0.51100000000E-03 0.  1.
         12    1    3    3    0    0 -0.85493084865E+01  0.21772099016E+02 -0.12177110604E+02  0.26370380995E+02  0.00000000000E+00 0. -1.
</event>
<event>
 7    1  0.2809593E-013  0.7246141E+02  0.7816164E-02  0.1226708E+00
        -11   -1    0    0    0    0  0.00000000000E+00  0.00000000000E+00  0.45593999997E+02  0.45594000000E+02  0.51100000000E-03 0. -1.
         11   -1    0    0    0    0 -0.00000000000E+00 -0.00000000000E+00 -0.45593999997E+02  0.45594000000E+02  0.51100000000E-03 0.  1.
    9900012    2    1    2    0    0 -0.18401175511E+02  0.64999913980E+00  0.34145751142E+01  0.72461412423E+02  0.69999794343E+02 0.  0.
        -12    1    1    2    0    0  0.18401175511E+02 -0.64999913980E+00 -0.34145751142E+01  0.18726587577E+02  0.00000000000E+00 0.  1.
         11    1    3    3    0    0  0.12528482369E+02  0.51935902014E+01 -0.93531769408E+00  0.13594523497E+02  0.51100000000E-03 0. -1.
        -11    1    3    3    0    0 -0.75657897231E+01 -0.64365503564E+01 -0.21674505138E+02  0.23842284451E+02  0.51100000000E-03 0.  1.
         12    1    3    3    0    0 -0.23363868157E+02  0.18929592948E+01  0.26024397946E+02  0.35024604475E+02  0.00000000000E+00 0. -1.
</event>
<event>
 7    1  0.2809593E-013  0.7246161E+02  0.7816164E-02  0.1226708E+00
        -11   -1    0    0    0    0  0.00000000000E+00  0.00000000000E+00  0.45593999997E+02  0.45594000000E+02  0.51100000000E-03 0.  1.
         11   -1    0    0    0    0 -0.00000000000E+00 -0.00000000000E+00 -0.45593999997E+02  0.45594000000E+02  0.51100000000E-03 0. -1.
    9900012    2    1    2    0    0  0.81028143047E+01 -0.14291263807E+02  0.89878771554E+01  0.72461608019E+02  0.70000049143E+02 0.  0.
        -12    1    1    2    0    0 -0.81028143047E+01  0.14291263807E+02 -0.89878771554E+01  0.18726391981E+02  0.00000000000E+00 0.  1.
         11    1    3    3    0    0 -0.22138321848E+02  0.14978074418E+02  0.97224364009E+01  0.28442464333E+02  0.51100000000E-03 0. -1.
        -11    1    3    3    0    0 -0.97470532251E+00  0.21669223029E+00  0.36989126992E+00  0.10648125662E+01  0.51100000000E-03 0.  1.
        -12    1    3    3    0    0  0.31215841475E+02 -0.29486030456E+02 -0.11044505155E+01  0.42954331120E+02  0.00000000000E+00 0.  1.
</event>
<event>
 7    1  0.2809593E-013  0.7246145E+02  0.7816164E-02  0.1226708E+00
        -11   -1    0    0    0    0  0.00000000000E+00  0.00000000000E+00  0.45593999997E+02  0.45594000000E+02  0.51100000000E-03 0.  1.
         11   -1    0    0    0    0 -0.00000000000E+00 -0.00000000000E+00 -0.45593999997E+02  0.45594000000E+02  0.51100000000E-03 0. -1.
    9900012    2    1    2    0    0  0.81721681574E+01 -0.23692719905E+01 -0.16681906030E+02  0.72461447436E+02  0.69999839953E+02 0.  0.
        -12    1    1    2    0    0 -0.81721681574E+01  0.23692719905E+01  0.16681906030E+02  0.18726552564E+02  0.00000000000E+00 0.  1.
         11    1    3    3    0    0  0.29081965598E+02  0.21911151950E+01 -0.23410655855E+02  0.37398135203E+02  0.51100000000E-03 0. -1.
        -11    1    3    3    0    0  0.30199625660E+01 -0.53361739668E+01  0.91332869496E+01  0.11000538954E+02  0.51100000000E-03 0.  1.
        -12    1    3    3    0    0 -0.23929760007E+02  0.77578678132E+00 -0.24045371248E+01  0.24062773279E+02  0.00000000000E+00 0.  1.
</event>
<event>
 7    1  0.2809593E-013  0.7246160E+02  0.7816164E-02  0.1226708E+00
        -11   -1    0    0    0    0  0.00000000000E+00  0.00000000000E+00  0.45593999997E+02  0.45594000000E+02  0.51100000000E-03 0.  1.
         11   -1    0    0    0    0 -0.00000000000E+00 -0.00000000000E+00 -0.45593999997E+02  0.45594000000E+02  0.51100000000E-03 0. -1.
    9900012    2    1    2    0    0 -0.26690277488E+01 -0.87877387586E+01 -0.16319621964E+02  0.72461598246E+02  0.70000036412E+02 0.  0.
        -12    1    1    2    0    0  0.26690277488E+01  0.87877387586E+01  0.16319621964E+02  0.18726401754E+02  0.00000000000E+00 0.  1.
         11    1    3    3    0    0 -0.26896543619E+02 -0.10982016105E+02 -0.85000382840E+01  0.30270107160E+02  0.51100000000E-03 0. -1.
        -11    1    3    3    0    0 -0.63003515481E+01 -0.65731456330E+01 -0.47828169739E+01  0.10284746551E+02  0.51100000000E-03 0.  1.
        -12    1    3    3    0    0  0.30527867418E+02  0.87674229796E+01 -0.30367667064E+01  0.31906744535E+02  0.00000000000E+00 0.  1.
</event>
<event>
 7    1  0.2809593E-013  0.7246159E+02  0.7816164E-02  0.1226708E+00
        -11   -1    0    0    0    0  0.00000000000E+00  0.00000000000E+00  0.45593999997E+02  0.45594000000E+02  0.51100000000E-03 0.  1.
         11   -1    0    0    0    0 -0.00000000000E+00 -0.00000000000E+00 -0.45593999997E+02  0.45594000000E+02  0.51100000000E-03 0. -1.
    9900012    2    1    2    0    0  0.15572363973E+02  0.26002574840E+01 -0.10070676701E+02  0.72461591163E+02  0.70000027186E+02 0.  0.
        -12    1    1    2    0    0 -0.15572363973E+02 -0.26002574840E+01  0.10070676701E+02  0.18726408837E+02  0.00000000000E+00 0.  1.
         11    1    3    3    0    0 -0.67036756788E+00 -0.78782082557E+01  0.18423080980E+02  0.20048078987E+02  0.51100000000E-03 0. -1.
        -11    1    3    3    0    0 -0.57219415697E+01 -0.10532652735E+02 -0.21240481355E+01  0.12173289190E+02  0.51100000000E-03 0.  1.
         12    1    3    3    0    0  0.21964673111E+02  0.21011118475E+02 -0.26369709546E+02  0.40240222986E+02  0.00000000000E+00 0. -1.
</event>
<event>
 7    1  0.2809593E-013  0.7246163E+02  0.7816164E-02  0.1226708E+00
        -11   -1    0    0    0    0  0.00000000000E+00  0.00000000000E+00  0.45593999997E+02  0.45594000000E+02  0.51100000000E-03 0.  1.
         11   -1    0    0    0    0 -0.00000000000E+00 -0.00000000000E+00 -0.45593999997E+02  0.45594000000E+02  0.51100000000E-03 0. -1.
    9900012    2    1    2    0    0  0.10209291705E+02 -0.11794030067E+02  0.10360889537E+02  0.72461633178E+02  0.70000081918E+02 0.  0.
        -12    1    1    2    0    0 -0.10209291705E+02  0.11794030067E+02 -0.10360889537E+02  0.18726366822E+02  0.00000000000E+00 0.  1.
         11    1    3    3    0    0  0.20534678898E+02  0.78439236705E+01  0.96920044998E+01  0.24023636849E+02  0.51100000000E-03 0. -1.
        -11    1    3    3    0    0  0.95641709335E+01 -0.20586421690E+02  0.11844536284E+02  0.25604045846E+02  0.51100000000E-03 0.  1.
         12    1    3    3    0    0 -0.19889558126E+02  0.94846795156E+00 -0.11175651246E+02  0.22833950483E+02  0.00000000000E+00 0. -1.
</event>
<event>
 7    1  0.2809593E-013  0.7246155E+02  0.7816164E-02  0.1226708E+00
        -11   -1    0    0    0    0  0.00000000000E+00  0.00000000000E+00  0.45593999997E+02  0.45594000000E+02  0.51100000000E-03 0. -1.
         11   -1    0    0    0    0 -0.00000000000E+00 -0.00000000000E+00 -0.45593999997E+02  0.45594000000E+02  0.51100000000E-03 0.  1.
    9900012    2    1    2    0    0  0.23461370803E+00  0.33794926586E+00  0.18721935206E+02  0.72461545152E+02  0.69999967248E+02 0.  0.
        -12    1    1    2    0    0 -0.23461370803E+00 -0.33794926586E+00 -0.18721935206E+02  0.18726454848E+02  0.00000000000E+00 0.  1.
         11    1    3    3    0    0 -0.71239368742E+00 -0.97391608503E+00 -0.17450915517E+02  0.17492583284E+02  0.51100000000E-03 0.  1.
        -11    1    3    3    0    0  0.19755981065E+02 -0.67626127758E+01  0.17065959740E+02  0.26968105263E+02  0.51100000000E-03 0. -1.
         12    1    3    3    0    0 -0.18808973670E+02  0.80744781267E+01  0.19106890984E+02  0.28000856605E+02  0.00000000000E+00 0. -1.
</event>
<event>
 7    1  0.2809593E-013  0.7246156E+02  0.7816164E-02  0.1226708E+00
        -11   -1    0    0    0    0  0.00000000000E+00  0.00000000000E+00  0.45593999997E+02  0.45594000000E+02  0.51100000000E-03 0. -1.
         11   -1    0    0    0    0 -0.00000000000E+00 -0.00000000000E+00 -0.45593999997E+02  0.45594000000E+02  0.51100000000E-03 0.  1.
    9900012    2    1    2    0    0  0.81411669584E+01  0.15176464248E+02 -0.73536292476E+01  0.72461560679E+02  0.69999987474E+02 0.  0.
        -12    1    1    2    0    0 -0.81411669584E+01 -0.15176464248E+02  0.73536292476E+01  0.18726439321E+02  0.00000000000E+00 0.  1.
         11    1    3    3    0    0 -0.10197156577E+02  0.10449369825E+02  0.11004978801E+02  0.18283350095E+02  0.51100000000E-03 0. -1.
        -11    1    3    3    0    0  0.13621748737E+01 -0.32683932360E+01  0.15266371403E+02  0.15671630764E+02  0.51100000000E-03 0.  1.
        -12    1    3    3    0    0  0.16976148662E+02  0.79954876594E+01 -0.33624979452E+02  0.38506579820E+02  0.00000000000E+00 0.  1.
</event>
<event>
 7    1  0.2809593E-013  0.7246157E+02  0.7816164E-02  0.1226708E+00
        -11   -1    0    0    0    0  0.00000000000E+00  0.00000000000E+00  0.45593999997E+02  0.45594000000E+02  0.51100000000E-03 0.  1.
         11   -1    0    0    0    0 -0.00000000000E+00 -0.00000000000E+00 -0.45593999997E+02  0.45594000000E+02  0.51100000000E-03 0. -1.
    9900012    2    1    2    0    0  0.33968814494E+01  0.17428419831E+02  0.59490048169E+01  0.72461567352E+02  0.69999996168E+02 0.  0.
        -12    1    1    2    0    0 -0.33968814494E+01 -0.17428419831E+02 -0.59490048169E+01  0.18726432648E+02  0.00000000000E+00 0.  1.
         11    1    3    3    0    0  0.11434462234E+02 -0.10265947164E+02 -0.56203311932E+01  0.16362295705E+02  0.51100000000E-03 0. -1.
        -11    1    3    3    0    0 -0.16475095741E+02  0.28804695170E+00  0.20279504862E+02  0.26129869277E+02  0.51100000000E-03 0.  1.
         12    1    3    3    0    0  0.84375149563E+01  0.27406320044E+02 -0.87101688520E+01  0.29969402370E+02  0.00000000000E+00 0. -1.
</event>
<event>
 7    1  0.2809593E-013  0.7246157E+02  0.7816164E-02  0.1226708E+00
        -11   -1    0    0    0    0  0.00000000000E+00  0.00000000000E+00  0.45593999997E+02  0.45594000000E+02  0.51100000000E-03 0. -1.
         11   -1    0    0    0    0 -0.00000000000E+00 -0.00000000000E+00 -0.45593999997E+02  0.45594000000E+02  0.51100000000E-03 0.  1.
    9900012    2    1    2    0    0  0.40178317891E+01 -0.16976261253E+02 -0.68075577596E+01  0.72461567850E+02  0.69999996816E+02 0.  0.
        -12    1    1    2    0    0 -0.40178317891E+01  0.16976261253E+02  0.68075577596E+01  0.18726432150E+02  0.00000000000E+00 0.  1.
         11    1    3    3    0    0 -0.17179744940E+01  0.96605951735E+01 -0.41203942785E-01  0.98122491557E+01  0.51100000000E-03 0. -1.
        -11    1    3    3    0    0 -0.18446190208E+02  0.53783114506E+01 -0.11270335694E+02  0.22275740934E+02  0.51100000000E-03 0.  1.
         12    1    3    3    0    0  0.24181996491E+02 -0.32015167877E+02  0.45039818771E+01  0.40373577761E+02  0.00000000000E+00 0. -1.
</event>
<event>
 7    1  0.2809593E-013  0.7246150E+02  0.7816164E-02  0.1226708E+00
        -11   -1    0    0    0    0  0.00000000000E+00  0.00000000000E+00  0.45593999997E+02  0.45594000000E+02  0.51100000000E-03 0.  1.
         11   -1    0    0    0    0 -0.00000000000E+00 -0.00000000000E+00 -0.45593999997E+02  0.45594000000E+02  0.51100000000E-03 0. -1.
    9900012    2    1    2    0    0 -0.98711221664E+01 -0.18394019534E-03 -0.15913602153E+02  0.72461500425E+02  0.69999908982E+02 0.  0.
        -12    1    1    2    0    0  0.98711221664E+01  0.18394019534E-03  0.15913602153E+02  0.18726499575E+02  0.00000000000E+00 0.  1.
         11    1    3    3    0    0 -0.41776000223E+01  0.35956462438E+01  0.20742298289E+01  0.58892651070E+01  0.51100000000E-03 0. -1.
        -11    1    3    3    0    0 -0.30573980294E+02  0.39453385581E+01  0.57594372043E+01  0.31360884626E+02  0.51100000000E-03 0.  1.
        -12    1    3    3    0    0  0.24880458150E+02 -0.75411687421E+01 -0.23747269186E+02  0.35211350692E+02  0.00000000000E+00 0.  1.
</event>
<event>
 7    1  0.3481693E-013  0.7246164E+02  0.7816164E-02  0.1226708E+00
        -11   -1    0    0    0    0  0.00000000000E+00  0.00000000000E+00  0.45593999997E+02  0.45594000000E+02  0.51100000000E-03 0. -1.
         11   -1    0    0    0    0 -0.00000000000E+00 -0.00000000000E+00 -0.45593999997E+02  0.45594000000E+02  0.51100000000E-03 0.  1.
    9900012    2    1    2    0    0 -0.12764937080E+02 -0.67992478566E+01  0.11895514776E+02  0.72461637250E+02  0.70000087222E+02 0.  0.
        -12    1    1    2    0    0  0.12764937080E+02  0.67992478566E+01 -0.11895514776E+02  0.18726362750E+02  0.00000000000E+00 0.  1.
         11    1    3    3    0    0  0.23343541775E+01 -0.11909834138E+02  0.31860739531E+02  0.34093988947E+02  0.51100000000E-03 0. -1.
        -11    1    3    3    0    0  0.80162882343E+00 -0.84657926237E+01  0.12336330219E+01  0.85926773600E+01  0.51100000000E-03 0.  1.
        -12    1    3    3    0    0 -0.15900920081E+02  0.13576378905E+02 -0.21198857777E+02  0.29774970943E+02  0.00000000000E+00 0.  1.
</event>
<event>
 7    1  0.2809593E-013  0.7246160E+02  0.7816164E-02  0.1226708E+00
        -11   -1    0    0    0    0  0.00000000000E+00  0.00000000000E+00  0.45593999997E+02  0.45594000000E+02  0.51100000000E-03 0.  1.
         11   -1    0    0    0    0 -0.00000000000E+00 -0.00000000000E+00 -0.45593999997E+02  0.45594000000E+02  0.51100000000E-03 0. -1.
    9900012    2    1    2    0    0  0.42433699779E+01 -0.16341312040E+02 -0.81014472575E+01  0.72461598434E+02  0.70000036657E+02 0.  0.
        -12    1    1    2    0    0 -0.42433699779E+01  0.16341312040E+02  0.81014472575E+01  0.18726401566E+02  0.00000000000E+00 0.  1.
         11    1    3    3    0    0 -0.16070824866E+01  0.14914874050E+02  0.11564800701E+01  0.15045717944E+02  0.51100000000E-03 0. -1.
        -11    1    3    3    0    0 -0.14610726915E+02 -0.27500071447E+02 -0.16682598044E+02  0.35327557917E+02  0.51100000000E-03 0.  1.
         12    1    3    3    0    0  0.20461179380E+02 -0.37561146426E+01  0.74246707163E+01  0.22088322572E+02  0.00000000000E+00 0. -1.
</event>
<event>
 7    1  0.2809593E-013  0.7246157E+02  0.7816164E-02  0.1226708E+00
        -11   -1    0    0    0    0  0.00000000000E+00  0.00000000000E+00  0.45593999997E+02  0.45594000000E+02  0.51100000000E-03 0.  1.
         11   -1    0    0    0    0 -0.00000000000E+00 -0.00000000000E+00 -0.45593999997E+02  0.45594000000E+02  0.51100000000E-03 0. -1.
    9900012    2    1    2    0    0 -0.16951941404E+02 -0.31520075439E+01 -0.73058768921E+01  0.72461566648E+02  0.69999995250E+02 0.  0.
        -12    1    1    2    0    0  0.16951941404E+02  0.31520075439E+01  0.73058768921E+01  0.18726433352E+02  0.00000000000E+00 0.  1.
         11    1    3    3    0    0  0.70127977743E+01  0.39218703132E+01 -0.28194552863E+02  0.29317114639E+02  0.51100000000E-03 0. -1.
        -11    1    3    3    0    0  0.36191213994E+00  0.60908363783E+01 -0.28125277442E+01  0.67185996128E+01  0.51100000000E-03 0.  1.
        -12    1    3    3    0    0 -0.24326651318E+02 -0.13164714235E+02  0.23701203715E+02  0.36425852396E+02  0.00000000000E+00 0.  1.
</event>
<event>
 7    1  0.2809593E-013  0.7246151E+02  0.7816164E-02  0.1226708E+00
        -11   -1    0    0    0    0  0.00000000000E+00  0.00000000000E+00  0.45593999997E+02  0.45594000000E+02  0.51100000000E-03 0.  1.
         11   -1    0    0    0    0 -0.00000000000E+00 -0.00000000000E+00 -0.45593999997E+02  0.45594000000E+02  0.51100000000E-03 0. -1.
    9900012    2    1    2    0    0 -0.12829247657E+02 -0.92664868022E+01 -0.10011205812E+02  0.72461505002E+02  0.69999914944E+02 0.  0.
        -12    1    1    2    0    0  0.12829247657E+02  0.92664868022E+01  0.10011205812E+02  0.18726494998E+02  0.00000000000E+00 0.  1.
         11    1    3    3    0    0 -0.10768374261E+02 -0.18224878091E+01 -0.22861689732E+02  0.25336459968E+02  0.51100000000E-03 0.  1.
        -11    1    3    3    0    0  0.15993156976E+02 -0.10971888677E+02 -0.64720778416E+01  0.20446300473E+02  0.51100000000E-03 0. -1.
        -12    1    3    3    0    0 -0.18054030373E+02  0.35278896841E+01  0.19322561761E+02  0.26678744561E+02  0.00000000000E+00 0.  1.
</event>
<event>
 7    1  0.2809593E-013  0.7246158E+02  0.7816164E-02  0.1226708E+00
        -11   -1    0    0    0    0  0.00000000000E+00  0.00000000000E+00  0.45593999997E+02  0.45594000000E+02  0.51100000000E-03 0. -1.
         11   -1    0    0    0    0 -0.00000000000E+00 -0.00000000000E+00 -0.45593999997E+02  0.45594000000E+02  0.51100000000E-03 0.  1.
    9900012    2    1    2    0    0  0.13870501951E+02 -0.50582760418E+01  0.11519635128E+02  0.72461575505E+02  0.70000006788E+02 0.  0.
        -12    1    1    2    0    0 -0.13870501951E+02  0.50582760418E+01 -0.11519635128E+02  0.18726424495E+02  0.00000000000E+00 0.  1.
         11    1    3    3    0    0  0.14403148740E+02 -0.92015622835E+01 -0.17646444355E+02  0.24566571611E+02  0.51100000000E-03 0.  1.
        -11    1    3    3    0    0 -0.18368824345E+02 -0.78056664601E+00  0.88138882383E+01  0.20388909197E+02  0.51100000000E-03 0. -1.
        -12    1    3    3    0    0  0.17836177556E+02  0.49238528878E+01  0.20352191244E+02  0.27506094697E+02  0.00000000000E+00 0.  1.
</event>
<event>
 7    1  0.2809593E-013  0.7246152E+02  0.7816164E-02  0.1226708E+00
        -11   -1    0    0    0    0  0.00000000000E+00  0.00000000000E+00  0.45593999997E+02  0.45594000000E+02  0.51100000000E-03 0. -1.
         11   -1    0    0    0    0 -0.00000000000E+00 -0.00000000000E+00 -0.45593999997E+02  0.45594000000E+02  0.51100000000E-03 0.  1.
    9900012    2    1    2    0    0  0.16738373586E+02 -0.21293489418E+01  0.81224196515E+01  0.72461522002E+02  0.69999937090E+02 0.  0.
        -12    1    1    2    0    0 -0.16738373586E+02  0.21293489418E+01 -0.81224196515E+01  0.18726477998E+02  0.00000000000E+00 0.  1.
         11    1    3    3    0    0  0.13889440656E+02 -0.12015219763E+02 -0.81691721045E+01  0.20100185094E+02  0.51100000000E-03 0. -1.
        -11    1    3    3    0    0  0.22864556188E+02  0.16929150095E+02  0.77358426990E+01  0.29482661263E+02  0.51100000000E-03 0.  1.
         12    1    3    3    0    0 -0.20015623258E+02 -0.70432792737E+01  0.85557490570E+01  0.22878675645E+02  0.00000000000E+00 0. -1.
</event>
<event>
 7    1  0.2809593E-013  0.7246159E+02  0.7816164E-02  0.1226708E+00
        -11   -1    0    0    0    0  0.00000000000E+00  0.00000000000E+00  0.45593999997E+02  0.45594000000E+02  0.51100000000E-03 0. -1.
         11   -1    0    0    0    0 -0.00000000000E+00 -0.00000000000E+00 -0.45593999997E+02  0.45594000000E+02  0.51100000000E-03 0.  1.
    9900012    2    1    2    0    0  0.59802502054E+01  0.20791784083E+01  0.17623618038E+02  0.72461593828E+02  0.70000030657E+02 0.  0.
        -12    1    1    2    0    0 -0.59802502054E+01 -0.20791784083E+01 -0.17623618038E+02  0.18726406172E+02  0.00000000000E+00 0.  1.
         11    1    3    3    0    0 -0.11611439314E+02 -0.85293904583E+00  0.38281625436E+02  0.40012946333E+02  0.51100000000E-03 0. -1.
        -11    1    3    3    0    0  0.35622351229E+01  0.37490049128E+01  0.21969144694E+01  0.56188068444E+01  0.51100000000E-03 0.  1.
        -12    1    3    3    0    0  0.14029454396E+02 -0.81688745867E+00 -0.22854921867E+02  0.26829840651E+02  0.00000000000E+00 0.  1.
</event>
<event>
 7    1  0.2809593E-013  0.7246160E+02  0.7816164E-02  0.1226708E+00
        -11   -1    0    0    0    0  0.00000000000E+00  0.00000000000E+00  0.45593999997E+02  0.45594000000E+02  0.51100000000E-03 0. -1.
         11   -1    0    0    0    0 -0.00000000000E+00 -0.00000000000E+00 -0.45593999997E+02  0.45594000000E+02  0.51100000000E-03 0.  1.
    9900012    2    1    2    0    0 -0.28873009526E+01  0.16850317752E+02  0.76425253350E+01  0.72461603961E+02  0.70000043857E+02 0.  0.
        -12    1    1    2    0    0  0.28873009526E+01 -0.16850317752E+02 -0.76425253350E+01  0.18726396039E+02  0.00000000000E+00 0.  1.
         11    1    3    3    0    0  0.25236320585E+02  0.16753638717E+02  0.94819621657E+01  0.31740571729E+02  0.51100000000E-03 0. -1.
        -11    1    3    3    0    0 -0.71598648399E+01  0.38626596025E+01  0.12593187015E+02  0.14992403516E+02  0.51100000000E-03 0.  1.
        -12    1    3    3    0    0 -0.20963756698E+02 -0.37659805678E+01 -0.14432623845E+02  0.25728628716E+02  0.00000000000E+00 0.  1.
</event>
<event>
 7    1  0.2809593E-013  0.7246155E+02  0.7816164E-02  0.1226708E+00
        -11   -1    0    0    0    0  0.00000000000E+00  0.00000000000E+00  0.45593999997E+02  0.45594000000E+02  0.51100000000E-03 0. -1.
         11   -1    0    0    0    0 -0.00000000000E+00 -0.00000000000E+00 -0.45593999997E+02  0.45594000000E+02  0.51100000000E-03 0.  1.
    9900012    2    1    2    0    0 -0.19013086754E+01  0.13720745163E+02  0.12601835889E+02  0.72461545709E+02  0.69999967974E+02 0.  0.
        -12    1    1    2    0    0  0.19013086754E+01 -0.13720745163E+02 -0.12601835889E+02  0.18726454291E+02  0.00000000000E+00 0.  1.
         11    1    3    3    0    0  0.15086658380E+02  0.42593588131E+01 -0.19613301149E+01  0.15798614327E+02  0.51100000000E-03 0. -1.
        -11    1    3    3    0    0 -0.13816408883E+02  0.14514833300E+02 -0.15925007869E+02  0.25596472726E+02  0.51100000000E-03 0.  1.
         12    1    3    3    0    0 -0.31715581723E+01 -0.50534469495E+01  0.30488173873E+02  0.31066458656E+02  0.00000000000E+00 0. -1.
</event>
<event>
 7    1  0.2809593E-013  0.7246157E+02  0.7816164E-02  0.1226708E+00
        -11   -1    0    0    0    0  0.00000000000E+00  0.00000000000E+00  0.45593999997E+02  0.45594000000E+02  0.51100000000E-03 0.  1.
         11   -1    0    0    0    0 -0.00000000000E+00 -0.00000000000E+00 -0.45593999997E+02  0.45594000000E+02  0.51100000000E-03 0. -1.
    9900012    2    1    2    0    0  0.11434824186E+02 -0.14406079568E+02 -0.35197952468E+01  0.72461567044E+02  0.69999995766E+02 0.  0.
        -12    1    1    2    0    0 -0.11434824186E+02  0.14406079568E+02  0.35197952468E+01  0.18726432956E+02  0.00000000000E+00 0.  1.
         11    1    3    3    0    0  0.15387104527E+01 -0.50696299067E+01 -0.21455790269E+02  0.22100219763E+02  0.51100000000E-03 0. -1.
        -11    1    3    3    0    0  0.14195043296E+02 -0.26120013599E+02  0.10950498385E+02  0.31680716213E+02  0.51100000000E-03 0.  1.
        -12    1    3    3    0    0 -0.42989295635E+01  0.16783563938E+02  0.69854966369E+01  0.18680631068E+02  0.00000000000E+00 0.  1.
</event>
<event>
 7    1  0.2809593E-013  0.7246156E+02  0.7816164E-02  0.1226708E+00
        -11   -1    0    0    0    0  0.00000000000E+00  0.00000000000E+00  0.45593999997E+02  0.45594000000E+02  0.51100000000E-03 0.  1.
         11   -1    0    0    0    0 -0.00000000000E+00 -0.00000000000E+00 -0.45593999997E+02  0.45594000000E+02  0.51100000000E-03 0. -1.
    9900012    2    1    2    0    0  0.10608521071E+02 -0.51933594019E+01 -0.14531619151E+02  0.72461557296E+02  0.69999983067E+02 0.  0.
        -12    1    1    2    0    0 -0.10608521071E+02  0.51933594019E+01  0.14531619151E+02  0.18726442704E+02  0.00000000000E+00 0.  1.
         11    1    3    3    0    0 -0.46130854449E+01  0.10848679101E+01  0.63764308090E+01  0.79445809095E+01  0.51100000000E-03 0. -1.
        -11    1    3    3    0    0  0.37786680073E+02 -0.52608421897E+01 -0.10038260859E+02  0.39449668349E+02  0.51100000000E-03 0.  1.
         12    1    3    3    0    0 -0.22565073557E+02 -0.10173851222E+01 -0.10869789101E+02  0.25067308037E+02  0.00000000000E+00 0. -1.
</event>
<event>
 7    1  0.2809593E-013  0.7246159E+02  0.7816164E-02  0.1226708E+00
        -11   -1    0    0    0    0  0.00000000000E+00  0.00000000000E+00  0.45593999997E+02  0.45594000000E+02  0.51100000000E-03 0. -1.
         11   -1    0    0    0    0 -0.00000000000E+00 -0.00000000000E+00 -0.45593999997E+02  0.45594000000E+02  0.51100000000E-03 0.  1.
    9900012    2    1    2    0    0 -0.91716928191E+01  0.15420876435E+02  0.53623741315E+01  0.72461589892E+02  0.70000025530E+02 0.  0.
        -12    1    1    2    0    0  0.91716928191E+01 -0.15420876435E+02 -0.53623741315E+01  0.18726410108E+02  0.00000000000E+00 0.  1.
         11    1    3    3    0    0  0.18451911714E+02 -0.87810638589E+01  0.20623284686E+02  0.29032740137E+02  0.51100000000E-03 0. -1.
        -11    1    3    3    0    0  0.19711317091E+01  0.43154166036E+01 -0.27577607533E+00  0.47522871738E+01  0.51100000000E-03 0.  1.
        -12    1    3    3    0    0 -0.29594736242E+02  0.19886523691E+02 -0.14985134479E+02  0.38676562581E+02  0.00000000000E+00 0.  1.
</event>
<event>
 7    1  0.2809593E-013  0.7246154E+02  0.7816164E-02  0.1226708E+00
        -11   -1    0    0    0    0  0.00000000000E+00  0.00000000000E+00  0.45593999997E+02  0.45594000000E+02  0.51100000000E-03 0. -1.
         11   -1    0    0    0    0 -0.00000000000E+00 -0.00000000000E+00 -0.45593999997E+02  0.45594000000E+02  0.51100000000E-03 0.  1.
    9900012    2    1    2    0    0 -0.93528769574E+01 -0.16217101537E+02 -0.45801405784E+00  0.72461535664E+02  0.69999954888E+02 0.  0.
        -12    1    1    2    0    0  0.93528769574E+01  0.16217101537E+02  0.45801405784E+00  0.18726464336E+02  0.00000000000E+00 0.  1.
         11    1    3    3    0    0 -0.17511132882E+02 -0.14696404305E+02 -0.15768486755E+02  0.27771734715E+02  0.51100000000E-03 0. -1.
        -11    1    3    3    0    0  0.65011371727E+01 -0.49516520294E+01 -0.13417487203E+02  0.15710270700E+02  0.51100000000E-03 0.  1.
         12    1    3    3    0    0  0.16571187518E+01  0.34309547968E+01  0.28727959901E+02  0.28979530249E+02  0.00000000000E+00 0. -1.
</event>
<event>
 7    1  0.2809593E-013  0.7246171E+02  0.7816164E-02  0.1226708E+00
        -11   -1    0    0    0    0  0.00000000000E+00  0.00000000000E+00  0.45593999997E+02  0.45594000000E+02  0.51100000000E-03 0.  1.
         11   -1    0    0    0    0 -0.00000000000E+00 -0.00000000000E+00 -0.45593999997E+02  0.45594000000E+02  0.51100000000E-03 0. -1.
    9900012    2    1    2    0    0  0.10678775260E+02  0.15349871800E+02 -0.10094499626E+01  0.72461713807E+02  0.70000186952E+02 0.  0.
        -12    1    1    2    0    0 -0.10678775260E+02 -0.15349871800E+02  0.10094499626E+01  0.18726286193E+02  0.00000000000E+00 0.  1.
         11    1    3    3    0    0  0.68270948914E+01 -0.74169119341E+01  0.91641137544E+01  0.13623538030E+02  0.51100000000E-03 0. -1.
        -11    1    3    3    0    0  0.15001229204E+02  0.23027561030E+02  0.14996364317E+02  0.31308088214E+02  0.51100000000E-03 0.  1.
         12    1    3    3    0    0 -0.11149548835E+02 -0.26077729543E+00 -0.25169928034E+02  0.27530087563E+02  0.00000000000E+00 0. -1.
</event>
<event>
 7    1  0.2809593E-013  0.7246159E+02  0.7816164E-02  0.1226708E+00
        -11   -1    0    0    0    0  0.00000000000E+00  0.00000000000E+00  0.45593999997E+02  0.45594000000E+02  0.51100000000E-03 0.  1.
         11   -1    0    0    0    0 -0.00000000000E+00 -0.00000000000E+00 -0.45593999997E+02  0.45594000000E+02  0.51100000000E-03 0. -1.
    9900012    2    1    2    0    0  0.10781008416E+02 -0.27607453735E+00 -0.15309211751E+02  0.72461592869E+02  0.70000029407E+02 0.  0.
        -12    1    1    2    0    0 -0.10781008416E+02  0.27607453735E+00  0.15309211751E+02  0.18726407131E+02  0.00000000000E+00 0.  1.
         11    1    3    3    0    0 -0.16845212251E+01  0.71868894409E+01 -0.19699916696E+02  0.21037483445E+02  0.51100000000E-03 0. -1.
        -11    1    3    3    0    0  0.25160092416E+01  0.20498862458E+02  0.65498889295E+01  0.21666442020E+02  0.51100000000E-03 0.  1.
         12    1    3    3    0    0  0.99495203992E+01 -0.27961826436E+02 -0.21591839838E+01  0.29757667403E+02  0.00000000000E+00 0. -1.
</event>
<event>
 7    1  0.2809593E-013  0.7246160E+02  0.7816164E-02  0.1226708E+00
        -11   -1    0    0    0    0  0.00000000000E+00  0.00000000000E+00  0.45593999997E+02  0.45594000000E+02  0.51100000000E-03 0.  1.
         11   -1    0    0    0    0 -0.00000000000E+00 -0.00000000000E+00 -0.45593999997E+02  0.45594000000E+02  0.51100000000E-03 0. -1.
    9900012    2    1    2    0    0  0.28978203152E+01 -0.13544930408E+02 -0.12602200974E+02  0.72461602276E+02  0.70000041662E+02 0.  0.
        -12    1    1    2    0    0 -0.28978203152E+01  0.13544930408E+02  0.12602200974E+02  0.18726397724E+02  0.00000000000E+00 0.  1.
         11    1    3    3    0    0  0.21716869025E+02  0.30201290467E+01  0.12050973937E+02  0.25019383541E+02  0.51100000000E-03 0. -1.
        -11    1    3    3    0    0  0.47908734403E+01  0.60807922930E+01 -0.35914545122E+01  0.85338765521E+01  0.51100000000E-03 0.  1.
        -12    1    3    3    0    0 -0.23609922150E+02 -0.22645851747E+02 -0.21061720398E+02  0.38908342183E+02  0.00000000000E+00 0.  1.
</event>
<event>
 7    1  0.2809593E-013  0.7246158E+02  0.7816164E-02  0.1226708E+00
        -11   -1    0    0    0    0  0.00000000000E+00  0.00000000000E+00  0.45593999997E+02  0.45594000000E+02  0.51100000000E-03 0. -1.
         11   -1    0    0    0    0 -0.00000000000E+00 -0.00000000000E+00 -0.45593999997E+02  0.45594000000E+02  0.51100000000E-03 0.  1.
    9900012    2    1    2    0    0  0.51681629676E+01 -0.13420465056E+02  0.11994171992E+02  0.72461576088E+02  0.70000007547E+02 0.  0.
        -12    1    1    2    0    0 -0.51681629676E+01  0.13420465056E+02 -0.11994171992E+02  0.18726423912E+02  0.00000000000E+00 0.  1.
         11    1    3    3    0    0  0.19932040285E+02  0.11510290053E+02  0.31279073896E+01  0.23228362230E+02  0.51100000000E-03 0. -1.
        -11    1    3    3    0    0  0.66016778101E+01 -0.24969224973E+02 -0.67029401915E+00  0.25835898282E+02  0.51100000000E-03 0.  1.
        -12    1    3    3    0    0 -0.21365555127E+02  0.38469865023E-01  0.95365586210E+01  0.23397315576E+02  0.00000000000E+00 0.  1.
</event>
<event>
 7    1  0.2809593E-013  0.7246159E+02  0.7816164E-02  0.1226708E+00
        -11   -1    0    0    0    0  0.00000000000E+00  0.00000000000E+00  0.45593999997E+02  0.45594000000E+02  0.51100000000E-03 0.  1.
         11   -1    0    0    0    0 -0.00000000000E+00 -0.00000000000E+00 -0.45593999997E+02  0.45594000000E+02  0.51100000000E-03 0. -1.
    9900012    2    1    2    0    0  0.17445900374E+02  0.64038667475E+01 -0.23042014932E+01  0.72461593679E+02  0.70000030463E+02 0.  0.
        -12    1    1    2    0    0 -0.17445900374E+02 -0.64038667475E+01  0.23042014932E+01  0.18726406321E+02  0.00000000000E+00 0.  1.
         11    1    3    3    0    0  0.93094200800E+01 -0.34263997005E+01  0.98718111088E+01  0.13994933796E+02  0.51100000000E-03 0. -1.
        -11    1    3    3    0    0 -0.19793839462E+02 -0.68845727928E+01 -0.15033834816E+02  0.25791657812E+02  0.51100000000E-03 0.  1.
         12    1    3    3    0    0  0.27930319756E+02  0.16714839241E+02  0.28578222139E+01  0.32675002070E+02  0.00000000000E+00 0. -1.
</event>
<event>
 7    1  0.2809593E-013  0.7246163E+02  0.7816164E-02  0.1226708E+00
        -11   -1    0    0    0    0  0.00000000000E+00  0.00000000000E+00  0.45593999997E+02  0.45594000000E+02  0.51100000000E-03 0.  1.
         11   -1    0    0    0    0 -0.00000000000E+00 -0.00000000000E+00 -0.45593999997E+02  0.45594000000E+02  0.51100000000E-03 0. -1.
    9900012    2    1    2    0    0 -0.32067161817E+01  0.11369347112E+01 -0.18414704871E+02  0.72461628096E+02  0.70000075297E+02 0.  0.
        -12    1    1    2    0    0  0.32067161817E+01 -0.11369347112E+01  0.18414704871E+02  0.18726371904E+02  0.00000000000E+00 0.  1.
         11    1    3    3    0    0  0.42747786204E+01 -0.31062044167E+01  0.10800225531E+02  0.12023606360E+02  0.51100000000E-03 0. -1.
        -11    1    3    3    0    0  0.21408560909E+02 -0.48092147952E+01 -0.75305951105E+01  0.23198381196E+02  0.51100000000E-03 0.  1.
         12    1    3    3    0    0 -0.28890055711E+02  0.90523539231E+01 -0.21684335291E+02  0.37239640540E+02  0.00000000000E+00 0. -1.
</event>
<event>
 7    1  0.2809593E-013  0.7246136E+02  0.7816164E-02  0.1226709E+00
        -11   -1    0    0    0    0  0.00000000000E+00  0.00000000000E+00  0.45593999997E+02  0.45594000000E+02  0.51100000000E-03 0.  1.
         11   -1    0    0    0    0 -0.00000000000E+00 -0.00000000000E+00 -0.45593999997E+02  0.45594000000E+02  0.51100000000E-03 0. -1.
    9900012    2    1    2    0    0  0.17436112788E+02 -0.33352509232E+01  0.59619573458E+01  0.72461364871E+02  0.69999732397E+02 0.  0.
        -12    1    1    2    0    0 -0.17436112788E+02  0.33352509232E+01 -0.59619573458E+01  0.18726635129E+02  0.00000000000E+00 0.  1.
         11    1    3    3    0    0  0.69171462132E+01  0.15993455966E+02 -0.26315422038E+02  0.31561669518E+02  0.51100000000E-03 0. -1.
        -11    1    3    3    0    0  0.86687124341E+01 -0.93465087492E+01  0.93003272796E+01  0.15779730316E+02  0.51100000000E-03 0.  1.
        -12    1    3    3    0    0  0.18502541403E+01 -0.99821981397E+01  0.22977052104E+02  0.25119965037E+02  0.00000000000E+00 0.  1.
</event>
<event>
 7    1  0.2809593E-013  0.7246160E+02  0.7816164E-02  0.1226708E+00
        -11   -1    0    0    0    0  0.00000000000E+00  0.00000000000E+00  0.45593999997E+02  0.45594000000E+02  0.51100000000E-03 0.  1.
         11   -1    0    0    0    0 -0.00000000000E+00 -0.00000000000E+00 -0.45593999997E+02  0.45594000000E+02  0.51100000000E-03 0. -1.
    9900012    2    1    2    0    0  0.23340620672E+00  0.11939433279E+02 -0.14424751011E+02  0.72461601862E+02  0.70000041123E+02 0.  0.
        -12    1    1    2    0    0 -0.23340620672E+00 -0.11939433279E+02  0.14424751011E+02  0.18726398138E+02  0.00000000000E+00 0.  1.
         11    1    3    3    0    0 -0.11275331705E+02  0.12748847563E+02  0.87674013673E+00  0.17042150474E+02  0.51100000000E-03 0. -1.
        -11    1    3    3    0    0 -0.15463024969E+02  0.14886290854E+02 -0.10326995390E+02  0.23819186187E+02  0.51100000000E-03 0.  1.
         12    1    3    3    0    0  0.26971762881E+02 -0.15695705138E+02 -0.49744957584E+01  0.31600265200E+02  0.00000000000E+00 0. -1.
</event>
<event>
 7    1  0.2809593E-013  0.7246159E+02  0.7816164E-02  0.1226708E+00
        -11   -1    0    0    0    0  0.00000000000E+00  0.00000000000E+00  0.45593999997E+02  0.45594000000E+02  0.51100000000E-03 0.  1.
         11   -1    0    0    0    0 -0.00000000000E+00 -0.00000000000E+00 -0.45593999997E+02  0.45594000000E+02  0.51100000000E-03 0. -1.
    9900012    2    1    2    0    0  0.76221901998E+01 -0.13188758689E+02 -0.10892080935E+02  0.72461586401E+02  0.70000020982E+02 0.  0.
        -12    1    1    2    0    0 -0.76221901998E+01  0.13188758689E+02  0.10892080935E+02  0.18726413599E+02  0.00000000000E+00 0.  1.
         11    1    3    3    0    0  0.31185409208E+01 -0.66627949240E+01  0.82731847746E+01  0.11070850024E+02  0.51100000000E-03 0. -1.
        -11    1    3    3    0    0 -0.58973228743E+01  0.71662108373E+01  0.18105093664E+02  0.20345206111E+02  0.51100000000E-03 0.  1.
         12    1    3    3    0    0  0.10400972153E+02 -0.13692174602E+02 -0.37270359373E+02  0.41045530267E+02  0.00000000000E+00 0. -1.
</event>
<event>
 7    1  0.2809593E-013  0.7246149E+02  0.7816164E-02  0.1226708E+00
        -11   -1    0    0    0    0  0.00000000000E+00  0.00000000000E+00  0.45593999997E+02  0.45594000000E+02  0.51100000000E-03 0. -1.
         11   -1    0    0    0    0 -0.00000000000E+00 -0.00000000000E+00 -0.45593999997E+02  0.45594000000E+02  0.51100000000E-03 0.  1.
    9900012    2    1    2    0    0 -0.65545031356E+01 -0.17078677464E+02  0.40049383112E+01  0.72461487614E+02  0.69999892293E+02 0.  0.
        -12    1    1    2    0    0  0.65545031356E+01  0.17078677464E+02 -0.40049383112E+01  0.18726512386E+02  0.00000000000E+00 0.  1.
         11    1    3    3    0    0 -0.19616865057E+02 -0.74475881919E+01  0.20846013287E+02  0.29577765885E+02  0.51100000000E-03 0. -1.
        -11    1    3    3    0    0  0.71188188675E+01 -0.71060685302E+01  0.10647218796E+02  0.14647083681E+02  0.51100000000E-03 0.  1.
        -12    1    3    3    0    0  0.59435430536E+01 -0.25250207415E+01 -0.27488293771E+02  0.28236638048E+02  0.00000000000E+00 0.  1.
</event>
<event>
 7    1  0.2809593E-013  0.7246158E+02  0.7816164E-02  0.1226708E+00
        -11   -1    0    0    0    0  0.00000000000E+00  0.00000000000E+00  0.45593999997E+02  0.45594000000E+02  0.51100000000E-03 0.  1.
         11   -1    0    0    0    0 -0.00000000000E+00 -0.00000000000E+00 -0.45593999997E+02  0.45594000000E+02  0.51100000000E-03 0. -1.
    9900012    2    1    2    0    0  0.90843119993E+01  0.14804673683E+02  0.69982690899E+01  0.72461578622E+02  0.70000010849E+02 0.  0.
        -12    1    1    2    0    0 -0.90843119993E+01 -0.14804673683E+02 -0.69982690899E+01  0.18726421378E+02  0.00000000000E+00 0.  1.
         11    1    3    3    0    0  0.20472539181E+02 -0.21750895768E+01 -0.45893434304E+01  0.21093078215E+02  0.51100000000E-03 0. -1.
        -11    1    3    3    0    0  0.10620274427E+02 -0.11310139336E+01 -0.10751820726E+02  0.15154902527E+02  0.51100000000E-03 0.  1.
        -12    1    3    3    0    0 -0.22008501609E+02  0.18110777194E+02  0.22339433247E+02  0.36213597880E+02  0.00000000000E+00 0.  1.
</event>
<event>
 7    1  0.2809593E-013  0.7246165E+02  0.7816164E-02  0.1226708E+00
        -11   -1    0    0    0    0  0.00000000000E+00  0.00000000000E+00  0.45593999997E+02  0.45594000000E+02  0.51100000000E-03 0.  1.
         11   -1    0    0    0    0 -0.00000000000E+00 -0.00000000000E+00 -0.45593999997E+02  0.45594000000E+02  0.51100000000E-03 0. -1.
    9900012    2    1    2    0    0 -0.31398051192E+01  0.14806609373E+02 -0.11026427344E+02  0.72461650722E+02  0.70000104772E+02 0.  0.
        -12    1    1    2    0    0  0.31398051192E+01 -0.14806609373E+02  0.11026427344E+02  0.18726349278E+02  0.00000000000E+00 0.  1.
         11    1    3    3    0    0 -0.20625028859E+01  0.26699954794E+00 -0.36200407578E+01  0.41749134437E+01  0.51100000000E-03 0. -1.
        -11    1    3    3    0    0 -0.17858257603E+02 -0.20279125643E+02  0.54255440810E+01  0.27560784283E+02  0.51100000000E-03 0.  1.
        -12    1    3    3    0    0  0.16780955370E+02  0.34818735468E+02 -0.12831930667E+02  0.40725952995E+02  0.00000000000E+00 0.  1.
</event>
<event>
 7    1  0.2809593E-013  0.7246157E+02  0.7816164E-02  0.1226708E+00
        -11   -1    0    0    0    0  0.00000000000E+00  0.00000000000E+00  0.45593999997E+02  0.45594000000E+02  0.51100000000E-03 0.  1.
         11   -1    0    0    0    0 -0.00000000000E+00 -0.00000000000E+00 -0.45593999997E+02  0.45594000000E+02  0.51100000000E-03 0. -1.
    9900012    2    1    2    0    0 -0.16034995476E+02 -0.91850123304E+01 -0.30320990200E+01  0.72461570658E+02  0.70000000474E+02 0.  0.
        -12    1    1    2    0    0  0.16034995476E+02  0.91850123304E+01  0.30320990200E+01  0.18726429342E+02  0.00000000000E+00 0.  1.
         11    1    3    3    0    0  0.16452443071E+01 -0.99349977037E+01  0.16484193941E+02  0.19316823195E+02  0.51100000000E-03 0. -1.
        -11    1    3    3    0    0 -0.10143533247E+02  0.14856022105E+02  0.92529415811E+01  0.20228929474E+02  0.51100000000E-03 0.  1.
         12    1    3    3    0    0 -0.75367065365E+01 -0.14106036731E+02 -0.28769234542E+02  0.32915817988E+02  0.00000000000E+00 0. -1.
</event>
<event>
 7    1  0.2809593E-013  0.7246158E+02  0.7816164E-02  0.1226708E+00
        -11   -1    0    0    0    0  0.00000000000E+00  0.00000000000E+00  0.45593999997E+02  0.45594000000E+02  0.51100000000E-03 0. -1.
         11   -1    0    0    0    0 -0.00000000000E+00 -0.00000000000E+00 -0.45593999997E+02  0.45594000000E+02  0.51100000000E-03 0.  1.
    9900012    2    1    2    0    0 -0.13933409023E+02  0.11097644776E+02  0.57776460872E+01  0.72461580137E+02  0.70000012823E+02 0.  0.
        -12    1    1    2    0    0  0.13933409023E+02 -0.11097644776E+02 -0.57776460872E+01  0.18726419863E+02  0.00000000000E+00 0.  1.
         11    1    3    3    0    0  0.22349462504E+02  0.21040674405E+02 -0.36723136335E+00  0.30697610864E+02  0.51100000000E-03 0. -1.
        -11    1    3    3    0    0 -0.23042536152E+00  0.29699000600E+01  0.89640901933E+00  0.31107799029E+01  0.51100000000E-03 0.  1.
        -12    1    3    3    0    0 -0.36052446165E+02 -0.12912929690E+02  0.52484684312E+01  0.38653189370E+02  0.00000000000E+00 0.  1.
</event>
<event>
 7    1  0.2809593E-013  0.7246157E+02  0.7816164E-02  0.1226708E+00
        -11   -1    0    0    0    0  0.00000000000E+00  0.00000000000E+00  0.45593999997E+02  0.45594000000E+02  0.51100000000E-03 0.  1.
         11   -1    0    0    0    0 -0.00000000000E+00 -0.00000000000E+00 -0.45593999997E+02  0.45594000000E+02  0.51100000000E-03 0. -1.
    9900012    2    1    2    0    0  0.14507087677E+02 -0.11698655098E+02  0.18344269819E+01  0.72461568244E+02  0.69999997329E+02 0.  0.
        -12    1    1    2    0    0 -0.14507087677E+02  0.11698655098E+02 -0.18344269819E+01  0.18726431756E+02  0.00000000000E+00 0.  1.
         11    1    3    3    0    0  0.57147081550E+01 -0.10769610490E+02 -0.12548099522E+02  0.17495633778E+02  0.51100000000E-03 0. -1.
        -11    1    3    3    0    0  0.22852204107E+02  0.17043107013E+02  0.10265446058E+01  0.28526207657E+02  0.51100000000E-03 0.  1.
        -12    1    3    3    0    0 -0.14059824585E+02 -0.17972151622E+02  0.13355981898E+02  0.26439726809E+02  0.00000000000E+00 0.  1.
</event>
<event>
 7    1  0.2809593E-013  0.7246154E+02  0.7816164E-02  0.1226708E+00
        -11   -1    0    0    0    0  0.00000000000E+00  0.00000000000E+00  0.45593999997E+02  0.45594000000E+02  0.51100000000E-03 0.  1.
         11   -1    0    0    0    0 -0.00000000000E+00 -0.00000000000E+00 -0.45593999997E+02  0.45594000000E+02  0.51100000000E-03 0. -1.
    9900012    2    1    2    0    0 -0.31481952155E+01  0.94142245740E+01 -0.15878965580E+02  0.72461539968E+02  0.69999960494E+02 0.  0.
        -12    1    1    2    0    0  0.31481952155E+01 -0.94142245740E+01  0.15878965580E+02  0.18726460032E+02  0.00000000000E+00 0.  1.
         11    1    3    3    0    0  0.71739962513E+01  0.11061691327E+02 -0.37395070611E+02  0.39651211123E+02  0.51100000000E-03 0. -1.
        -11    1    3    3    0    0  0.41197759989E+01 -0.60405498401E+01  0.10609939083E+01  0.73882680641E+01  0.51100000000E-03 0.  1.
        -12    1    3    3    0    0 -0.14441967466E+02  0.43930830867E+01  0.20455111123E+02  0.25422060781E+02  0.00000000000E+00 0.  1.
</event>
<event>
 7    1  0.2809593E-013  0.7246145E+02  0.7816164E-02  0.1226708E+00
        -11   -1    0    0    0    0  0.00000000000E+00  0.00000000000E+00  0.45593999997E+02  0.45594000000E+02  0.51100000000E-03 0. -1.
         11   -1    0    0    0    0 -0.00000000000E+00 -0.00000000000E+00 -0.45593999997E+02  0.45594000000E+02  0.51100000000E-03 0.  1.
    9900012    2    1    2    0    0 -0.16868530989E+02 -0.55391777992E+01  0.59543211723E+01  0.72461447487E+02  0.69999840020E+02 0.  0.
        -12    1    1    2    0    0  0.16868530989E+02  0.55391777992E+01 -0.59543211723E+01  0.18726552513E+02  0.00000000000E+00 0.  1.
         11    1    3    3    0    0 -0.80225196569E+01  0.15084722305E+02  0.12192112812E+02  0.20989456490E+02  0.51100000000E-03 0. -1.
        -11    1    3    3    0    0  0.17201723074E+02 -0.52384545371E+01  0.58277507429E+01  0.18902469723E+02  0.51100000000E-03 0.  1.
         12    1    3    3    0    0 -0.26047734406E+02 -0.15385445567E+02 -0.12065542382E+02  0.32569521273E+02  0.00000000000E+00 0. -1.
</event>
<event>
 7    1  0.2809593E-013  0.7246161E+02  0.7816164E-02  0.1226708E+00
        -11   -1    0    0    0    0  0.00000000000E+00  0.00000000000E+00  0.45593999997E+02  0.45594000000E+02  0.51100000000E-03 0. -1.
         11   -1    0    0    0    0 -0.00000000000E+00 -0.00000000000E+00 -0.45593999997E+02  0.45594000000E+02  0.51100000000E-03 0.  1.
    9900012    2    1    2    0    0  0.56082501117E+00  0.16163454487E+02  0.94395901172E+01  0.72461610940E+02  0.70000052948E+02 0.  0.
        -12    1    1    2    0    0 -0.56082501117E+00 -0.16163454487E+02 -0.94395901172E+01  0.18726389060E+02  0.00000000000E+00 0.  1.
         11    1    3    3    0    0  0.67640431906E+01 -0.74939403803E+01  0.86914870620E+01  0.13321162499E+02  0.51100000000E-03 0. -1.
        -11    1    3    3    0    0  0.15282537900E+02 -0.10328531980E+02  0.37419291451E+01  0.18821173489E+02  0.51100000000E-03 0.  1.
         12    1    3    3    0    0 -0.21485756079E+02  0.33985926848E+02 -0.29938260899E+01  0.40319274952E+02  0.00000000000E+00 0. -1.
</event>
<event>
 7    1  0.2809593E-013  0.7246161E+02  0.7816164E-02  0.1226708E+00
        -11   -1    0    0    0    0  0.00000000000E+00  0.00000000000E+00  0.45593999997E+02  0.45594000000E+02  0.51100000000E-03 0.  1.
         11   -1    0    0    0    0 -0.00000000000E+00 -0.00000000000E+00 -0.45593999997E+02  0.45594000000E+02  0.51100000000E-03 0. -1.
    9900012    2    1    2    0    0 -0.49915439627E+01  0.14305192738E+02 -0.11005624005E+02  0.72461606590E+02  0.70000047282E+02 0.  0.
        -12    1    1    2    0    0  0.49915439627E+01 -0.14305192738E+02  0.11005624005E+02  0.18726393410E+02  0.00000000000E+00 0.  1.
         11    1    3    3    0    0 -0.87861195906E+01 -0.14618710396E+02 -0.55619526995E+01  0.17939841393E+02  0.51100000000E-03 0. -1.
        -11    1    3    3    0    0  0.23681094440E+02  0.97936050999E+01 -0.79052791962E+01  0.26817948732E+02  0.51100000000E-03 0.  1.
         12    1    3    3    0    0 -0.19886518813E+02  0.19130298034E+02  0.24616078905E+01  0.27703816466E+02  0.00000000000E+00 0. -1.
</event>
<event>
 7    1  0.2809593E-013  0.7246150E+02  0.7816164E-02  0.1226708E+00
        -11   -1    0    0    0    0  0.00000000000E+00  0.00000000000E+00  0.45593999997E+02  0.45594000000E+02  0.51100000000E-03 0.  1.
         11   -1    0    0    0    0 -0.00000000000E+00 -0.00000000000E+00 -0.45593999997E+02  0.45594000000E+02  0.51100000000E-03 0. -1.
    9900012    2    1    2    0    0  0.92506090867E+01 -0.15132778713E+02 -0.60089141370E+01  0.72461499815E+02  0.69999908188E+02 0.  0.
        -12    1    1    2    0    0 -0.92506090867E+01  0.15132778713E+02  0.60089141370E+01  0.18726500185E+02  0.00000000000E+00 0.  1.
         11    1    3    3    0    0  0.76015607198E+01  0.97386368717E+01 -0.81825152582E+01  0.14818175654E+02  0.51100000000E-03 0. -1.
        -11    1    3    3    0    0 -0.53954389621E+01  0.15412113650E+02 -0.23562929833E+01  0.16498367363E+02  0.51100000000E-03 0.  1.
        -12    1    3    3    0    0  0.70444873290E+01 -0.40283529235E+02  0.45298941046E+01  0.41144956799E+02  0.00000000000E+00 0.  1.
</event>
<event>
 7    1  0.2809593E-013  0.7246169E+02  0.7816164E-02  0.1226708E+00
        -11   -1    0    0    0    0  0.00000000000E+00  0.00000000000E+00  0.45593999997E+02  0.45594000000E+02  0.51100000000E-03 0.  1.
         11   -1    0    0    0    0 -0.00000000000E+00 -0.00000000000E+00 -0.45593999997E+02  0.45594000000E+02  0.51100000000E-03 0. -1.
    9900012    2    1    2    0    0 -0.52955131047E+01  0.20016489356E+01 -0.17850084685E+02  0.72461692815E+02  0.70000159606E+02 0.  0.
        -12    1    1    2    0    0  0.52955131047E+01 -0.20016489356E+01  0.17850084685E+02  0.18726307185E+02  0.00000000000E+00 0.  1.
         11    1    3    3    0    0  0.30072525620E+01  0.76051468433E+01 -0.12527189196E+02  0.14960357479E+02  0.51100000000E-03 0. -1.
        -11    1    3    3    0    0 -0.80496086930E+01  0.22246930767E+02 -0.15004151149E+02  0.28015115217E+02  0.51100000000E-03 0.  1.
         12    1    3    3    0    0 -0.25315697361E+00 -0.27850428675E+02  0.96812556593E+01  0.29486220120E+02  0.00000000000E+00 0. -1.
</event>
<event>
 7    1  0.2809593E-013  0.7246158E+02  0.7816164E-02  0.1226708E+00
        -11   -1    0    0    0    0  0.00000000000E+00  0.00000000000E+00  0.45593999997E+02  0.45594000000E+02  0.51100000000E-03 0.  1.
         11   -1    0    0    0    0 -0.00000000000E+00 -0.00000000000E+00 -0.45593999997E+02  0.45594000000E+02  0.51100000000E-03 0. -1.
    9900012    2    1    2    0    0  0.11372067860E+02  0.12770454349E+02 -0.76335136996E+01  0.72461575806E+02  0.70000007180E+02 0.  0.
        -12    1    1    2    0    0 -0.11372067860E+02 -0.12770454349E+02  0.76335136996E+01  0.18726424194E+02  0.00000000000E+00 0.  1.
         11    1    3    3    0    0  0.26125792766E+02  0.21471173855E+02 -0.23012739825E+02  0.40904211872E+02  0.51100000000E-03 0. -1.
        -11    1    3    3    0    0 -0.92073150711E+01 -0.77252521405E+01 -0.29557507947E+01  0.12377020420E+02  0.51100000000E-03 0.  1.
        -12    1    3    3    0    0 -0.55464098349E+01 -0.97546736587E+00  0.18334976921E+02  0.19180343514E+02  0.00000000000E+00 0.  1.
</event>
<event>
 7    1  0.2809593E-013  0.7246136E+02  0.7816164E-02  0.1226709E+00
        -11   -1    0    0    0    0  0.00000000000E+00  0.00000000000E+00  0.45593999997E+02  0.45594000000E+02  0.51100000000E-03 0.  1.
         11   -1    0    0    0    0 -0.00000000000E+00 -0.00000000000E+00 -0.45593999997E+02  0.45594000000E+02  0.51100000000E-03 0. -1.
    9900012    2    1    2    0    0 -0.86166322884E+01 -0.88616433787E+01 -0.14068123743E+02  0.72461356387E+02  0.69999721345E+02 0.  0.
        -12    1    1    2    0    0  0.86166322884E+01  0.88616433787E+01  0.14068123743E+02  0.18726643613E+02  0.00000000000E+00 0.  1.
         11    1    3    3    0    0  0.10364575181E+02 -0.14038774572E+02 -0.11583834023E+00  0.17450645517E+02  0.51100000000E-03 0. -1.
        -11    1    3    3    0    0 -0.10607873412E+02  0.19048820621E+02  0.11643460924E+02  0.24717498415E+02  0.51100000000E-03 0.  1.
         12    1    3    3    0    0 -0.83733340572E+01 -0.13871689427E+02 -0.25595746327E+02  0.30293212455E+02  0.00000000000E+00 0. -1.
</event>
<event>
 7    1  0.2809593E-013  0.7246158E+02  0.7816164E-02  0.1226708E+00
        -11   -1    0    0    0    0  0.00000000000E+00  0.00000000000E+00  0.45593999997E+02  0.45594000000E+02  0.51100000000E-03 0.  1.
         11   -1    0    0    0    0 -0.00000000000E+00 -0.00000000000E+00 -0.45593999997E+02  0.45594000000E+02  0.51100000000E-03 0. -1.
    9900012    2    1    2    0    0 -0.53672505117E+01  0.17583003750E+02 -0.35650162209E+01  0.72461581774E+02  0.70000014954E+02 0.  0.
        -12    1    1    2    0    0  0.53672505117E+01 -0.17583003750E+02  0.35650162209E+01  0.18726418226E+02  0.00000000000E+00 0.  1.
         11    1    3    3    0    0 -0.13789934299E+01  0.32775332194E+01  0.60350692172E+01  0.70047061039E+01  0.51100000000E-03 0. -1.
        -11    1    3    3    0    0 -0.30213090296E+02 -0.90662681496E+00  0.68082385717E+01  0.30983946007E+02  0.51100000000E-03 0.  1.
         12    1    3    3    0    0  0.26224833214E+02  0.15212097346E+02 -0.16408324010E+02  0.34472929663E+02  0.00000000000E+00 0. -1.
</event>
<event>
 7    1  0.2809593E-013  0.7246161E+02  0.7816164E-02  0.1226708E+00
        -11   -1    0    0    0    0  0.00000000000E+00  0.00000000000E+00  0.45593999997E+02  0.45594000000E+02  0.51100000000E-03 0. -1.
         11   -1    0    0    0    0 -0.00000000000E+00 -0.00000000000E+00 -0.45593999997E+02  0.45594000000E+02  0.51100000000E-03 0.  1.
    9900012    2    1    2    0    0 -0.12044546333E+02 -0.10102440226E+02 -0.10175815226E+02  0.72461611923E+02  0.70000054230E+02 0.  0.
        -12    1    1    2    0    0  0.12044546333E+02  0.10102440226E+02  0.10175815226E+02  0.18726388077E+02  0.00000000000E+00 0.  1.
         11    1    3    3    0    0 -0.35127308060E+02 -0.25792506069E+01 -0.10619192767E+02  0.36787872465E+02  0.51100000000E-03 0. -1.
        -11    1    3    3    0    0 -0.47915864513E+01  0.24288478862E+01  0.26574203151E+01  0.59933701510E+01  0.51100000000E-03 0.  1.
        -12    1    3    3    0    0  0.27874348178E+02 -0.99520375051E+01 -0.22140427739E+01  0.29680369308E+02  0.00000000000E+00 0.  1.
</event>
<event>
 7    1  0.2809593E-013  0.7246155E+02  0.7816164E-02  0.1226708E+00
        -11   -1    0    0    0    0  0.00000000000E+00  0.00000000000E+00  0.45593999997E+02  0.45594000000E+02  0.51100000000E-03 0.  1.
         11   -1    0    0    0    0 -0.00000000000E+00 -0.00000000000E+00 -0.45593999997E+02  0.45594000000E+02  0.51100000000E-03 0. -1.
    9900012    2    1    2    0    0  0.88748368878E+01  0.72149542068E+01 -0.14827728578E+02  0.72461552692E+02  0.69999977070E+02 0.  0.
        -12    1    1    2    0    0 -0.88748368878E+01 -0.72149542068E+01  0.14827728578E+02  0.18726447308E+02  0.00000000000E+00 0.  1.
         11    1    3    3    0    0 -0.31494205678E+01 -0.37622390183E+01  0.25233044803E+01  0.55172781428E+01  0.51100000000E-03 0. -1.
        -11    1    3    3    0    0 -0.13113045381E+02 -0.15076599289E+02  0.92501987306E+01  0.22018673486E+02  0.51100000000E-03 0.  1.
         12    1    3    3    0    0  0.25137302837E+02  0.26053792514E+02 -0.26601231788E+02  0.44925601063E+02  0.00000000000E+00 0. -1.
</event>
<event>
 7    1  0.2809593E-013  0.7246160E+02  0.7816164E-02  0.1226708E+00
        -11   -1    0    0    0    0  0.00000000000E+00  0.00000000000E+00  0.45593999997E+02  0.45594000000E+02  0.51100000000E-03 0. -1.
         11   -1    0    0    0    0 -0.00000000000E+00 -0.00000000000E+00 -0.45593999997E+02  0.45594000000E+02  0.51100000000E-03 0.  1.
    9900012    2    1    2    0    0 -0.12289989980E+02 -0.11143627532E+02  0.86864206154E+01  0.72461596410E+02  0.70000034021E+02 0.  0.
        -12    1    1    2    0    0  0.12289989980E+02  0.11143627532E+02 -0.86864206154E+01  0.18726403590E+02  0.00000000000E+00 0.  1.
         11    1    3    3    0    0  0.14081695815E+02 -0.17726304768E+01 -0.87365641717E+01  0.16666251217E+02  0.51100000000E-03 0. -1.
        -11    1    3    3    0    0 -0.21728010578E+01 -0.21136531134E+02  0.19457669753E+02  0.28811020900E+02  0.51100000000E-03 0.  1.
        -12    1    3    3    0    0 -0.24198884737E+02  0.11765534078E+02 -0.20346849663E+01  0.26984324294E+02  0.00000000000E+00 0.  1.
</event>
<event>
 7    1  0.2809593E-013  0.7246156E+02  0.7816164E-02  0.1226708E+00
        -11   -1    0    0    0    0  0.00000000000E+00  0.00000000000E+00  0.45593999997E+02  0.45594000000E+02  0.51100000000E-03 0. -1.
         11   -1    0    0    0    0 -0.00000000000E+00 -0.00000000000E+00 -0.45593999997E+02  0.45594000000E+02  0.51100000000E-03 0.  1.
    9900012    2    1    2    0    0 -0.18479534929E+02 -0.17046638916E+01 -0.25061168460E+01  0.72461555815E+02  0.69999981138E+02 0.  0.
        -12    1    1    2    0    0  0.18479534929E+02  0.17046638916E+01  0.25061168460E+01  0.18726444185E+02  0.00000000000E+00 0.  1.
         11    1    3    3    0    0 -0.43597848264E+01  0.39373806099E+01 -0.21555384688E+02  0.22341559907E+02  0.51100000000E-03 0. -1.
        -11    1    3    3    0    0 -0.24547447607E+02 -0.11079825476E+02 -0.91688745737E+00  0.26947734589E+02  0.51100000000E-03 0.  1.
         12    1    3    3    0    0  0.10427697505E+02  0.54377809743E+01  0.19966155299E+02  0.23172261319E+02  0.00000000000E+00 0. -1.
</event>
<event>
 7    1  0.2809593E-013  0.7246152E+02  0.7816164E-02  0.1226708E+00
        -11   -1    0    0    0    0  0.00000000000E+00  0.00000000000E+00  0.45593999997E+02  0.45594000000E+02  0.51100000000E-03 0.  1.
         11   -1    0    0    0    0 -0.00000000000E+00 -0.00000000000E+00 -0.45593999997E+02  0.45594000000E+02  0.51100000000E-03 0. -1.
    9900012    2    1    2    0    0  0.83654787858E+01  0.17105536682E+01 -0.16666546585E+02  0.72461521307E+02  0.69999936185E+02 0.  0.
        -12    1    1    2    0    0 -0.83654787858E+01 -0.17105536682E+01  0.16666546585E+02  0.18726478693E+02  0.00000000000E+00 0.  1.
         11    1    3    3    0    0 -0.72935157796E+01 -0.59807949416E+01  0.68242786399E+01  0.11641995524E+02  0.51100000000E-03 0. -1.
        -11    1    3    3    0    0 -0.53519883264E+01 -0.17690754991E+02  0.27643984270E+01  0.18688191194E+02  0.51100000000E-03 0.  1.
         12    1    3    3    0    0  0.21010982892E+02  0.25382103601E+02 -0.26255223652E+02  0.42131334589E+02  0.00000000000E+00 0. -1.
</event>
<event>
 7    1  0.2809593E-013  0.7246160E+02  0.7816164E-02  0.1226708E+00
        -11   -1    0    0    0    0  0.00000000000E+00  0.00000000000E+00  0.45593999997E+02  0.45594000000E+02  0.51100000000E-03 0. -1.
         11   -1    0    0    0    0 -0.00000000000E+00 -0.00000000000E+00 -0.45593999997E+02  0.45594000000E+02  0.51100000000E-03 0.  1.
    9900012    2    1    2    0    0 -0.73495074796E+01 -0.17055852860E+02  0.24001775478E+01  0.72461595400E+02  0.70000032705E+02 0.  0.
        -12    1    1    2    0    0  0.73495074796E+01  0.17055852860E+02 -0.24001775478E+01  0.18726404600E+02  0.00000000000E+00 0.  1.
         11    1    3    3    0    0 -0.64338545543E+01 -0.11039870005E+02 -0.40021873689E+01  0.13389948400E+02  0.51100000000E-03 0. -1.
        -11    1    3    3    0    0  0.18448695089E+02 -0.25349985818E+02  0.38845789323E+01  0.31592183926E+02  0.51100000000E-03 0.  1.
        -12    1    3    3    0    0 -0.19364348014E+02  0.19334002963E+02  0.25177859845E+01  0.27479463075E+02  0.00000000000E+00 0.  1.
</event>
<event>
 7    1  0.2809593E-013  0.7246159E+02  0.7816164E-02  0.1226708E+00
        -11   -1    0    0    0    0  0.00000000000E+00  0.00000000000E+00  0.45593999997E+02  0.45594000000E+02  0.51100000000E-03 0.  1.
         11   -1    0    0    0    0 -0.00000000000E+00 -0.00000000000E+00 -0.45593999997E+02  0.45594000000E+02  0.51100000000E-03 0. -1.
    9900012    2    1    2    0    0 -0.16966443398E+02  0.63334874870E+01 -0.47650105369E+01  0.72461585748E+02  0.70000020131E+02 0.  0.
        -12    1    1    2    0    0  0.16966443398E+02 -0.63334874870E+01  0.47650105369E+01  0.18726414252E+02  0.00000000000E+00 0.  1.
         11    1    3    3    0    0 -0.13866697365E+02  0.41273270146E+00  0.60954830521E+01  0.15152905926E+02  0.51100000000E-03 0. -1.
        -11    1    3    3    0    0  0.72577979235E+01  0.24783843475E+02  0.96611073217E+01  0.27572658977E+02  0.51100000000E-03 0.  1.
         12    1    3    3    0    0 -0.10357543956E+02 -0.18863088690E+02 -0.20521600911E+02  0.29736020845E+02  0.00000000000E+00 0. -1.
</event>
<event>
 7    1  0.2809593E-013  0.7246159E+02  0.7816164E-02  0.1226708E+00
        -11   -1    0    0    0    0  0.00000000000E+00  0.00000000000E+00  0.45593999997E+02  0.45594000000E+02  0.51100000000E-03 0.  1.
         11   -1    0    0    0    0 -0.00000000000E+00 -0.00000000000E+00 -0.45593999997E+02  0.45594000000E+02  0.51100000000E-03 0. -1.
    9900012    2    1    2    0    0  0.16406689873E+02  0.83218359637E+01  0.34994072778E+01  0.72461594106E+02  0.70000031019E+02 0.  0.
        -12    1    1    2    0    0 -0.16406689873E+02 -0.83218359637E+01 -0.34994072778E+01  0.18726405894E+02  0.00000000000E+00 0.  1.
         11    1    3    3    0    0 -0.10194364882E+02  0.13648719420E+02 -0.98261689951E+01  0.19666372683E+02  0.51100000000E-03 0. -1.
        -11    1    3    3    0    0  0.17665050462E+02  0.13403569800E+02 -0.74866087231E+01  0.23404251786E+02  0.51100000000E-03 0.  1.
        -12    1    3    3    0    0  0.89360042927E+01 -0.18730453256E+02  0.20812184996E+02  0.29390969637E+02  0.00000000000E+00 0.  1.
</event>
<event>
 7    1  0.2809593E-013  0.7246159E+02  0.7816164E-02  0.1226708E+00
        -11   -1    0    0    0    0  0.00000000000E+00  0.00000000000E+00  0.45593999997E+02  0.45594000000E+02  0.51100000000E-03 0. -1.
         11   -1    0    0    0    0 -0.00000000000E+00 -0.00000000000E+00 -0.45593999997E+02  0.45594000000E+02  0.51100000000E-03 0.  1.
    9900012    2    1    2    0    0  0.60678765362E+01 -0.12030785906E+02  0.13004601633E+02  0.72461585533E+02  0.70000019851E+02 0.  0.
        -12    1    1    2    0    0 -0.60678765362E+01  0.12030785906E+02 -0.13004601633E+02  0.18726414467E+02  0.00000000000E+00 0.  1.
         11    1    3    3    0    0  0.11833809844E+02  0.92698967390E+01  0.20477325034E+02  0.25402576282E+02  0.51100000000E-03 0. -1.
        -11    1    3    3    0    0  0.45191468864E+01  0.94981588350E+01  0.57636147300E+01  0.11994038721E+02  0.51100000000E-03 0.  1.
        -12    1    3    3    0    0 -0.10285080194E+02 -0.30798841480E+02 -0.13236338131E+02  0.35064970529E+02  0.00000000000E+00 0.  1.
</event>
<event>
 7    1  0.2809593E-013  0.7246156E+02  0.7816164E-02  0.1226708E+00
        -11   -1    0    0    0    0  0.00000000000E+00  0.00000000000E+00  0.45593999997E+02  0.45594000000E+02  0.51100000000E-03 0.  1.
         11   -1    0    0    0    0 -0.00000000000E+00 -0.00000000000E+00 -0.45593999997E+02  0.45594000000E+02  0.51100000000E-03 0. -1.
    9900012    2    1    2    0    0  0.53255325797E+01  0.17953079948E+02  0.72336964350E-01  0.72461558546E+02  0.69999984696E+02 0.  0.
        -12    1    1    2    0    0 -0.53255325797E+01 -0.17953079948E+02 -0.72336964350E-01  0.18726441454E+02  0.00000000000E+00 0.  1.
         11    1    3    3    0    0 -0.17629019399E+01  0.10397008518E+01  0.83401716201E+00  0.22100647046E+01  0.51100000000E-03 0. -1.
        -11    1    3    3    0    0 -0.28353277469E+02  0.17596636072E+01  0.10190491092E+02  0.30180305966E+02  0.51100000000E-03 0.  1.
         12    1    3    3    0    0  0.35441711988E+02  0.15153715489E+02 -0.10952171290E+02  0.40071187876E+02  0.00000000000E+00 0. -1.
</event>
<event>
 7    1  0.2809593E-013  0.7246156E+02  0.7816164E-02  0.1226708E+00
        -11   -1    0    0    0    0  0.00000000000E+00  0.00000000000E+00  0.45593999997E+02  0.45594000000E+02  0.51100000000E-03 0.  1.
         11   -1    0    0    0    0 -0.00000000000E+00 -0.00000000000E+00 -0.45593999997E+02  0.45594000000E+02  0.51100000000E-03 0. -1.
    9900012    2    1    2    0    0 -0.12952287917E+01 -0.18431001795E+02  0.30495963628E+01  0.72461561930E+02  0.69999989104E+02 0.  0.
        -12    1    1    2    0    0  0.12952287917E+01  0.18431001795E+02 -0.30495963628E+01  0.18726438070E+02  0.00000000000E+00 0.  1.
         11    1    3    3    0    0 -0.22495539199E+02  0.10928870390E+02 -0.16652513613E+02  0.30046558900E+02  0.51100000000E-03 0. -1.
        -11    1    3    3    0    0  0.23415760434E+01 -0.71036523097E+01  0.51181666173E+00  0.74971201844E+01  0.51100000000E-03 0.  1.
        -12    1    3    3    0    0  0.18858734363E+02 -0.22256219876E+02  0.19190293314E+02  0.34917882846E+02  0.00000000000E+00 0.  1.
</event>
<event>
 7    1  0.2809593E-013  0.7246186E+02  0.7816164E-02  0.1226707E+00
        -11   -1    0    0    0    0  0.00000000000E+00  0.00000000000E+00  0.45593999997E+02  0.45594000000E+02  0.51100000000E-03 0.  1.
         11   -1    0    0    0    0 -0.00000000000E+00 -0.00000000000E+00 -0.45593999997E+02  0.45594000000E+02  0.51100000000E-03 0. -1.
    9900012    2    1    2    0    0  0.15979942771E+02  0.80489239271E+01 -0.55248965202E+01  0.72461862414E+02  0.70000380539E+02 0.  0.
        -12    1    1    2    0    0 -0.15979942771E+02 -0.80489239271E+01  0.55248965202E+01  0.18726137586E+02  0.00000000000E+00 0.  1.
         11    1    3    3    0    0 -0.15643499609E+01 -0.46111312134E+01 -0.73842399949E+01  0.88451524820E+01  0.51100000000E-03 0. -1.
        -11    1    3    3    0    0 -0.16643320651E+02  0.83742510968E+01  0.17696369849E+02  0.25696103008E+02  0.51100000000E-03 0.  1.
         12    1    3    3    0    0  0.34187613382E+02  0.42858040437E+01 -0.15837026374E+02  0.37920606924E+02  0.00000000000E+00 0. -1.
</event>
<event>
 7    1  0.2809593E-013  0.7246157E+02  0.7816164E-02  0.1226708E+00
        -11   -1    0    0    0    0  0.00000000000E+00  0.00000000000E+00  0.45593999997E+02  0.45594000000E+02  0.51100000000E-03 0. -1.
         11   -1    0    0    0    0 -0.00000000000E+00 -0.00000000000E+00 -0.45593999997E+02  0.45594000000E+02  0.51100000000E-03 0.  1.
    9900012    2    1    2    0    0  0.10336356115E+02 -0.26874884595E+01  0.15382336974E+02  0.72461571009E+02  0.70000000932E+02 0.  0.
        -12    1    1    2    0    0 -0.10336356115E+02  0.26874884595E+01 -0.15382336974E+02  0.18726428991E+02  0.00000000000E+00 0.  1.
         11    1    3    3    0    0  0.27561516628E+01 -0.10225055681E+02 -0.15152461068E+01  0.10697855238E+02  0.51100000000E-03 0. -1.
        -11    1    3    3    0    0 -0.50557288568E+01  0.66183241784E+01 -0.20580683707E+02  0.22201962780E+02  0.51100000000E-03 0.  1.
        -12    1    3    3    0    0  0.12635933309E+02  0.91924304317E+00  0.37478266787E+02  0.39561752991E+02  0.00000000000E+00 0.  1.
</event>
<event>
 7    1  0.2809593E-013  0.7246144E+02  0.7816164E-02  0.1226708E+00
        -11   -1    0    0    0    0  0.00000000000E+00  0.00000000000E+00  0.45593999997E+02  0.45594000000E+02  0.51100000000E-03 0.  1.
         11   -1    0    0    0    0 -0.00000000000E+00 -0.00000000000E+00 -0.45593999997E+02  0.45594000000E+02  0.51100000000E-03 0. -1.
    9900012    2    1    2    0    0  0.70943218282E+01 -0.42683411658E+01 -0.16796900151E+02  0.72461441502E+02  0.69999832224E+02 0.  0.
        -12    1    1    2    0    0 -0.70943218282E+01  0.42683411658E+01  0.16796900151E+02  0.18726558498E+02  0.00000000000E+00 0.  1.
         11    1    3    3    0    0  0.10547628155E+02  0.11326157906E+02 -0.63559786322E+01  0.16731191746E+02  0.51100000000E-03 0. -1.
        -11    1    3    3    0    0  0.22345547915E+02 -0.13118509771E+02  0.37506310791E+01  0.26181788403E+02  0.51100000000E-03 0.  1.
         12    1    3    3    0    0 -0.25798854242E+02 -0.24759893011E+01 -0.14191552597E+02  0.29548461353E+02  0.00000000000E+00 0. -1.
</event>
<event>
 7    1  0.2809593E-013  0.7246156E+02  0.7816164E-02  0.1226708E+00
        -11   -1    0    0    0    0  0.00000000000E+00  0.00000000000E+00  0.45593999997E+02  0.45594000000E+02  0.51100000000E-03 0.  1.
         11   -1    0    0    0    0 -0.00000000000E+00 -0.00000000000E+00 -0.45593999997E+02  0.45594000000E+02  0.51100000000E-03 0. -1.
    9900012    2    1    2    0    0  0.14907283688E+02  0.34929662032E+01 -0.10782001609E+02  0.72461562043E+02  0.69999989251E+02 0.  0.
        -12    1    1    2    0    0 -0.14907283688E+02 -0.34929662032E+01  0.10782001609E+02  0.18726437957E+02  0.00000000000E+00 0.  1.
         11    1    3    3    0    0 -0.92665740436E+01  0.12544564503E+02 -0.97342385421E+01  0.18384528641E+02  0.51100000000E-03 0. -1.
        -11    1    3    3    0    0  0.27056843824E+01  0.17044457602E+02  0.81068520942E+01  0.19067126528E+02  0.51100000000E-03 0.  1.
        -12    1    3    3    0    0  0.21468173349E+02 -0.26096055902E+02 -0.91546151609E+01  0.35009906874E+02  0.00000000000E+00 0.  1.
</event>
<event>
 7    1  0.2809593E-013  0.7246156E+02  0.7816164E-02  0.1226708E+00
        -11   -1    0    0    0    0  0.00000000000E+00  0.00000000000E+00  0.45593999997E+02  0.45594000000E+02  0.51100000000E-03 0. -1.
         11   -1    0    0    0    0 -0.00000000000E+00 -0.00000000000E+00 -0.45593999997E+02  0.45594000000E+02  0.51100000000E-03 0.  1.
    9900012    2    1    2    0    0 -0.35076516027E+01  0.28367298301E+01  0.18174949843E+02  0.72461562600E+02  0.69999989977E+02 0.  0.
        -12    1    1    2    0    0  0.35076516027E+01 -0.28367298301E+01 -0.18174949843E+02  0.18726437400E+02  0.00000000000E+00 0.  1.
         11    1    3    3    0    0  0.93673739583E+00  0.14124403431E+01  0.16498432020E+02  0.16585256225E+02  0.51100000000E-03 0. -1.
        -11    1    3    3    0    0  0.15182006020E+02  0.22365608412E+02  0.26326573041E+01  0.27159613973E+02  0.51100000000E-03 0.  1.
         12    1    3    3    0    0 -0.19626395018E+02 -0.20941318925E+02 -0.95613948121E+00  0.28716692401E+02  0.00000000000E+00 0. -1.
</event>
<event>
 7    1  0.2809593E-013  0.7246155E+02  0.7816164E-02  0.1226708E+00
        -11   -1    0    0    0    0  0.00000000000E+00  0.00000000000E+00  0.45593999997E+02  0.45594000000E+02  0.51100000000E-03 0.  1.
         11   -1    0    0    0    0 -0.00000000000E+00 -0.00000000000E+00 -0.45593999997E+02  0.45594000000E+02  0.51100000000E-03 0. -1.
    9900012    2    1    2    0    0  0.31970037458E+01  0.18451336720E+02 -0.85603925345E-01  0.72461548448E+02  0.69999971541E+02 0.  0.
        -12    1    1    2    0    0 -0.31970037458E+01 -0.18451336720E+02  0.85603925345E-01  0.18726451552E+02  0.00000000000E+00 0.  1.
         11    1    3    3    0    0  0.93587712084E+01 -0.13269439242E+02 -0.12976707824E+02  0.20786042493E+02  0.51100000000E-03 0. -1.
        -11    1    3    3    0    0 -0.10064094163E+02  0.54319260359E+01 -0.11051935512E+02  0.15903996057E+02  0.51100000000E-03 0.  1.
        -12    1    3    3    0    0  0.39023266999E+01  0.26288849926E+02  0.23943039410E+02  0.35771509897E+02  0.00000000000E+00 0.  1.
</event>
<event>
 7    1  0.2809593E-013  0.7246158E+02  0.7816164E-02  0.1226708E+00
        -11   -1    0    0    0    0  0.00000000000E+00  0.00000000000E+00  0.45593999997E+02  0.45594000000E+02  0.51100000000E-03 0.  1.
         11   -1    0    0    0    0 -0.00000000000E+00 -0.00000000000E+00 -0.45593999997E+02  0.45594000000E+02  0.51100000000E-03 0. -1.
    9900012    2    1    2    0    0 -0.12549076022E+02 -0.46909913996E+01 -0.13084111323E+02  0.72461583407E+02  0.70000017081E+02 0.  0.
        -12    1    1    2    0    0  0.12549076022E+02  0.46909913996E+01  0.13084111323E+02  0.18726416593E+02  0.00000000000E+00 0.  1.
         11    1    3    3    0    0 -0.92572235050E+00  0.11518451413E+01  0.12677495034E+00  0.14831659546E+01  0.51100000000E-03 0. -1.
        -11    1    3    3    0    0  0.13782902530E+02  0.21065249045E+02 -0.21441218051E+02  0.33067188439E+02  0.51100000000E-03 0.  1.
         12    1    3    3    0    0 -0.25406256201E+02 -0.26908085586E+02  0.82303317776E+01  0.37911229013E+02  0.00000000000E+00 0. -1.
</event>
<event>
 7    1  0.2809593E-013  0.7246159E+02  0.7816164E-02  0.1226708E+00
        -11   -1    0    0    0    0  0.00000000000E+00  0.00000000000E+00  0.45593999997E+02  0.45594000000E+02  0.51100000000E-03 0.  1.
         11   -1    0    0    0    0 -0.00000000000E+00 -0.00000000000E+00 -0.45593999997E+02  0.45594000000E+02  0.51100000000E-03 0. -1.
    9900012    2    1    2    0    0 -0.11798969473E+02  0.85023425764E+01 -0.11797152165E+02  0.72461593267E+02  0.70000029926E+02 0.  0.
        -12    1    1    2    0    0  0.11798969473E+02 -0.85023425764E+01  0.11797152165E+02  0.18726406733E+02  0.00000000000E+00 0.  1.
         11    1    3    3    0    0 -0.11921521661E+02 -0.38577132456E+01 -0.27630504568E+02  0.30338909228E+02  0.51100000000E-03 0. -1.
        -11    1    3    3    0    0 -0.24446082934E+01  0.18293867610E+02 -0.59565275776E+01  0.19393863021E+02  0.51100000000E-03 0.  1.
        -12    1    3    3    0    0  0.25671604812E+01 -0.59338117883E+01  0.21789879981E+02  0.22728821018E+02  0.00000000000E+00 0.  1.
</event>
<event>
 7    1  0.2809593E-013  0.7246160E+02  0.7816164E-02  0.1226708E+00
        -11   -1    0    0    0    0  0.00000000000E+00  0.00000000000E+00  0.45593999997E+02  0.45594000000E+02  0.51100000000E-03 0.  1.
         11   -1    0    0    0    0 -0.00000000000E+00 -0.00000000000E+00 -0.45593999997E+02  0.45594000000E+02  0.51100000000E-03 0. -1.
    9900012    2    1    2    0    0  0.16637363705E+02  0.18465457629E+01 -0.83944300827E+01  0.72461599953E+02  0.70000038636E+02 0.  0.
        -12    1    1    2    0    0 -0.16637363705E+02 -0.18465457629E+01  0.83944300827E+01  0.18726400047E+02  0.00000000000E+00 0.  1.
         11    1    3    3    0    0  0.23346595864E+02 -0.88673927519E+01 -0.10841041533E+02  0.27225399436E+02  0.51100000000E-03 0. -1.
        -11    1    3    3    0    0  0.90599831735E+01  0.60460320248E+01  0.19001038874E+02  0.21901535948E+02  0.51100000000E-03 0.  1.
        -12    1    3    3    0    0 -0.15769215332E+02  0.46679064900E+01 -0.16554427423E+02  0.23334664568E+02  0.00000000000E+00 0.  1.
</event>
<event>
 7    1  0.2809593E-013  0.7246164E+02  0.7816164E-02  0.1226708E+00
        -11   -1    0    0    0    0  0.00000000000E+00  0.00000000000E+00  0.45593999997E+02  0.45594000000E+02  0.51100000000E-03 0.  1.
         11   -1    0    0    0    0 -0.00000000000E+00 -0.00000000000E+00 -0.45593999997E+02  0.45594000000E+02  0.51100000000E-03 0. -1.
    9900012    2    1    2    0    0 -0.18522614197E+02  0.99515304698E+00  0.25688175879E+01  0.72461644506E+02  0.70000096674E+02 0.  0.
        -12    1    1    2    0    0  0.18522614197E+02 -0.99515304698E+00 -0.25688175879E+01  0.18726355494E+02  0.00000000000E+00 0.  1.
         11    1    3    3    0    0 -0.43691210511E+01  0.25845503466E+02 -0.27959894321E+01  0.26360895761E+02  0.51100000000E-03 0. -1.
        -11    1    3    3    0    0  0.57253574727E+01 -0.14948776803E+02 -0.10199954929E+02  0.18981167691E+02  0.51100000000E-03 0.  1.
         12    1    3    3    0    0 -0.19878850619E+02 -0.99015736152E+01  0.15564761949E+02  0.27119581054E+02  0.00000000000E+00 0. -1.
</event>
<event>
 7    1  0.2809593E-013  0.7246172E+02  0.7816164E-02  0.1226708E+00
        -11   -1    0    0    0    0  0.00000000000E+00  0.00000000000E+00  0.45593999997E+02  0.45594000000E+02  0.51100000000E-03 0.  1.
         11   -1    0    0    0    0 -0.00000000000E+00 -0.00000000000E+00 -0.45593999997E+02  0.45594000000E+02  0.51100000000E-03 0. -1.
    9900012    2    1    2    0    0  0.11172531173E+02 -0.72517469962E+01 -0.13162842360E+02  0.72461716164E+02  0.70000190021E+02 0.  0.
        -12    1    1    2    0    0 -0.11172531173E+02  0.72517469962E+01  0.13162842360E+02  0.18726283836E+02  0.00000000000E+00 0.  1.
         11    1    3    3    0    0 -0.82230600557E+01 -0.39584666766E+01 -0.26771369249E+01  0.95107958387E+01  0.51100000000E-03 0. -1.
        -11    1    3    3    0    0 -0.17562846736E+02  0.99432221238E+01 -0.12329638017E+02  0.23650395886E+02  0.51100000000E-03 0.  1.
         12    1    3    3    0    0  0.36958437965E+02 -0.13236502443E+02  0.18439325812E+01  0.39300524439E+02  0.00000000000E+00 0. -1.
</event>
<event>
 7    1  0.2809593E-013  0.7246151E+02  0.7816164E-02  0.1226708E+00
        -11   -1    0    0    0    0  0.00000000000E+00  0.00000000000E+00  0.45593999997E+02  0.45594000000E+02  0.51100000000E-03 0. -1.
         11   -1    0    0    0    0 -0.00000000000E+00 -0.00000000000E+00 -0.45593999997E+02  0.45594000000E+02  0.51100000000E-03 0.  1.
    9900012    2    1    2    0    0 -0.98260209769E+01  0.15751903266E+02 -0.24512169213E+01  0.72461505156E+02  0.69999915146E+02 0.  0.
        -12    1    1    2    0    0  0.98260209769E+01 -0.15751903266E+02  0.24512169213E+01  0.18726494844E+02  0.00000000000E+00 0.  1.
         11    1    3    3    0    0 -0.21040611612E+02  0.17535583028E+02  0.28558808031E+01  0.27538338086E+02  0.51100000000E-03 0. -1.
        -11    1    3    3    0    0  0.61568411412E+01 -0.20124867657E+02  0.70981699048E+01  0.22210380621E+02  0.51100000000E-03 0.  1.
         12    1    3    3    0    0  0.50577494936E+01  0.18341187896E+02 -0.12405267629E+02  0.22712786450E+02  0.00000000000E+00 0. -1.
</event>
<event>
 7    1  0.2809593E-013  0.7246170E+02  0.7816164E-02  0.1226708E+00
        -11   -1    0    0    0    0  0.00000000000E+00  0.00000000000E+00  0.45593999997E+02  0.45594000000E+02  0.51100000000E-03 0.  1.
         11   -1    0    0    0    0 -0.00000000000E+00 -0.00000000000E+00 -0.45593999997E+02  0.45594000000E+02  0.51100000000E-03 0. -1.
    9900012    2    1    2    0    0  0.67433428755E+01  0.27864819513E+00 -0.17467795640E+02  0.72461702916E+02  0.70000172765E+02 0.  0.
        -12    1    1    2    0    0 -0.67433428755E+01 -0.27864819513E+00  0.17467795640E+02  0.18726297084E+02  0.00000000000E+00 0.  1.
         11    1    3    3    0    0  0.12105132236E+02  0.20481432142E+01 -0.32015942365E+01  0.12687762726E+02  0.51100000000E-03 0. -1.
        -11    1    3    3    0    0  0.48476307445E+00 -0.10025377534E+02  0.20898040325E+02  0.23183426831E+02  0.51100000000E-03 0.  1.
         12    1    3    3    0    0 -0.58465524351E+01  0.82558825152E+01 -0.35164241729E+02  0.36590513359E+02  0.00000000000E+00 0. -1.
</event>
<event>
 7    1  0.2809593E-013  0.7246157E+02  0.7816164E-02  0.1226708E+00
        -11   -1    0    0    0    0  0.00000000000E+00  0.00000000000E+00  0.45593999997E+02  0.45594000000E+02  0.51100000000E-03 0.  1.
         11   -1    0    0    0    0 -0.00000000000E+00 -0.00000000000E+00 -0.45593999997E+02  0.45594000000E+02  0.51100000000E-03 0. -1.
    9900012    2    1    2    0    0  0.12530851859E+02 -0.98394364909E+01 -0.98408615489E+01  0.72461566415E+02  0.69999994947E+02 0.  0.
        -12    1    1    2    0    0 -0.12530851859E+02  0.98394364909E+01  0.98408615489E+01  0.18726433585E+02  0.00000000000E+00 0.  1.
         11    1    3    3    0    0 -0.87670032473E+01 -0.25734705674E+02  0.32543405173E+01  0.27381127707E+02  0.51100000000E-03 0. -1.
        -11    1    3    3    0    0  0.34558476454E+01 -0.49570729921E+01  0.83109309470E+01  0.10275554927E+02  0.51100000000E-03 0.  1.
        -12    1    3    3    0    0  0.17842007461E+02  0.20852342175E+02 -0.21406133013E+02  0.34804883781E+02  0.00000000000E+00 0.  1.
</event>
<event>
 7    1  0.2809593E-013  0.7246149E+02  0.7816164E-02  0.1226708E+00
        -11   -1    0    0    0    0  0.00000000000E+00  0.00000000000E+00  0.45593999997E+02  0.45594000000E+02  0.51100000000E-03 0.  1.
         11   -1    0    0    0    0 -0.00000000000E+00 -0.00000000000E+00 -0.45593999997E+02  0.45594000000E+02  0.51100000000E-03 0. -1.
    9900012    2    1    2    0    0 -0.13806463391E+02 -0.24923254337E-01 -0.12651599147E+02  0.72461494359E+02  0.69999901080E+02 0.  0.
        -12    1    1    2    0    0  0.13806463391E+02  0.24923254337E-01  0.12651599147E+02  0.18726505641E+02  0.00000000000E+00 0.  1.
         11    1    3    3    0    0 -0.19629321929E+02 -0.98948929894E+01 -0.14653204954E+02  0.26418470856E+02  0.51100000000E-03 0. -1.
        -11    1    3    3    0    0 -0.31229138619E+01 -0.17078328647E+02 -0.15353184865E+01  0.17429259981E+02  0.51100000000E-03 0.  1.
        -12    1    3    3    0    0  0.89457723995E+01  0.26948298382E+02  0.35369242939E+01  0.28613763523E+02  0.00000000000E+00 0.  1.
</event>
<event>
 7    1  0.2809593E-013  0.7246157E+02  0.7816164E-02  0.1226708E+00
        -11   -1    0    0    0    0  0.00000000000E+00  0.00000000000E+00  0.45593999997E+02  0.45594000000E+02  0.51100000000E-03 0.  1.
         11   -1    0    0    0    0 -0.00000000000E+00 -0.00000000000E+00 -0.45593999997E+02  0.45594000000E+02  0.51100000000E-03 0. -1.
    9900012    2    1    2    0    0 -0.28644933938E+01  0.17619454005E+02 -0.56593743923E+01  0.72461574812E+02  0.70000005885E+02 0.  0.
        -12    1    1    2    0    0  0.28644933938E+01 -0.17619454005E+02  0.56593743923E+01  0.18726425188E+02  0.00000000000E+00 0.  1.
         11    1    3    3    0    0 -0.15880920672E+02 -0.12868478259E+02 -0.13614702080E+02  0.24559346226E+02  0.51100000000E-03 0. -1.
        -11    1    3    3    0    0 -0.72362332650E+01 -0.23173774508E+01 -0.24251585302E+01  0.79758826642E+01  0.51100000000E-03 0.  1.
        -12    1    3    3    0    0  0.20252660543E+02  0.32805309714E+02  0.10380486217E+02  0.39926345921E+02  0.00000000000E+00 0.  1.
</event>
<event>
 7    1  0.2809593E-013  0.7246166E+02  0.7816164E-02  0.1226708E+00
        -11   -1    0    0    0    0  0.00000000000E+00  0.00000000000E+00  0.45593999997E+02  0.45594000000E+02  0.51100000000E-03 0.  1.
         11   -1    0    0    0    0 -0.00000000000E+00 -0.00000000000E+00 -0.45593999997E+02  0.45594000000E+02  0.51100000000E-03 0. -1.
    9900012    2    1    2    0    0  0.14098582332E+01 -0.92198353594E+01 -0.16238316341E+02  0.72461655406E+02  0.70000110873E+02 0.  0.
        -12    1    1    2    0    0 -0.14098582332E+01  0.92198353594E+01  0.16238316341E+02  0.18726344594E+02  0.00000000000E+00 0.  1.
         11    1    3    3    0    0  0.17717986913E+02 -0.95901886636E-01 -0.23834338479E+02  0.29698685971E+02  0.51100000000E-03 0. -1.
        -11    1    3    3    0    0 -0.12751366949E+02 -0.18443208983E+02 -0.83731145450E+01  0.23934459762E+02  0.51100000000E-03 0.  1.
        -12    1    3    3    0    0 -0.35567617308E+01  0.93192755106E+01  0.15969136683E+02  0.18828509672E+02  0.00000000000E+00 0.  1.
</event>
<event>
 7    1  0.2809593E-013  0.7246160E+02  0.7816164E-02  0.1226708E+00
        -11   -1    0    0    0    0  0.00000000000E+00  0.00000000000E+00  0.45593999997E+02  0.45594000000E+02  0.51100000000E-03 0.  1.
         11   -1    0    0    0    0 -0.00000000000E+00 -0.00000000000E+00 -0.45593999997E+02  0.45594000000E+02  0.51100000000E-03 0. -1.
    9900012    2    1    2    0    0  0.13916897716E+01 -0.12026966472E+02 -0.14286123994E+02  0.72461599873E+02  0.70000038532E+02 0.  0.
        -12    1    1    2    0    0 -0.13916897716E+01  0.12026966472E+02  0.14286123994E+02  0.18726400127E+02  0.00000000000E+00 0.  1.
         11    1    3    3    0    0 -0.54751658811E+01 -0.54454331163E+01 -0.20543978423E+02  0.21947328606E+02  0.51100000000E-03 0. -1.
        -11    1    3    3    0    0 -0.69344932597E+01 -0.38163700876E+01 -0.19564379191E+02  0.21104900161E+02  0.51100000000E-03 0.  1.
        -12    1    3    3    0    0  0.13801348912E+02 -0.27651632684E+01  0.25822233620E+02  0.29409371106E+02  0.00000000000E+00 0.  1.
</event>
<event>
 7    1  0.2809593E-013  0.7246179E+02  0.7816164E-02  0.1226707E+00
        -11   -1    0    0    0    0  0.00000000000E+00  0.00000000000E+00  0.45593999997E+02  0.45594000000E+02  0.51100000000E-03 0.  1.
         11   -1    0    0    0    0 -0.00000000000E+00 -0.00000000000E+00 -0.45593999997E+02  0.45594000000E+02  0.51100000000E-03 0. -1.
    9900012    2    1    2    0    0 -0.42084613808E+01  0.95620014690E-01 -0.18246938401E+02  0.72461787052E+02  0.70000282366E+02 0.  0.
        -12    1    1    2    0    0  0.42084613808E+01 -0.95620014690E-01  0.18246938401E+02  0.18726212948E+02  0.00000000000E+00 0.  1.
         11    1    3    3    0    0 -0.15180474634E+02 -0.89700878823E+01 -0.61503153768E+01  0.18674465621E+02  0.51100000000E-03 0. -1.
        -11    1    3    3    0    0 -0.14540971216E+02  0.18275429295E+02  0.15841561483E+01  0.23408133432E+02  0.51100000000E-03 0.  1.
         12    1    3    3    0    0  0.25512984469E+02 -0.92097213983E+01 -0.13680779172E+02  0.30379187999E+02  0.00000000000E+00 0. -1.
</event>
<event>
 7    1  0.2809593E-013  0.7246129E+02  0.7816164E-02  0.1226709E+00
        -11   -1    0    0    0    0  0.00000000000E+00  0.00000000000E+00  0.45593999997E+02  0.45594000000E+02  0.51100000000E-03 0. -1.
         11   -1    0    0    0    0 -0.00000000000E+00 -0.00000000000E+00 -0.45593999997E+02  0.45594000000E+02  0.51100000000E-03 0.  1.
    9900012    2    1    2    0    0  0.12804787340E+01  0.10623697479E+02  0.15368377919E+02  0.72461291433E+02  0.69999636730E+02 0.  0.
        -12    1    1    2    0    0 -0.12804787340E+01 -0.10623697479E+02 -0.15368377919E+02  0.18726708567E+02  0.00000000000E+00 0.  1.
         11    1    3    3    0    0  0.54309385789E+01  0.11897722600E+02 -0.14084869309E+02  0.19220677424E+02  0.51100000000E-03 0. -1.
        -11    1    3    3    0    0  0.63745471447E+01 -0.76770914186E+01 -0.86433767505E+01  0.13201535739E+02  0.51100000000E-03 0.  1.
         12    1    3    3    0    0 -0.10525006990E+02  0.64030662972E+01  0.38096623979E+02  0.40039078270E+02  0.00000000000E+00 0. -1.
</event>
<event>
 7    1  0.2809593E-013  0.7246158E+02  0.7816164E-02  0.1226708E+00
        -11   -1    0    0    0    0  0.00000000000E+00  0.00000000000E+00  0.45593999997E+02  0.45594000000E+02  0.51100000000E-03 0. -1.
         11   -1    0    0    0    0 -0.00000000000E+00 -0.00000000000E+00 -0.45593999997E+02  0.45594000000E+02  0.51100000000E-03 0.  1.
    9900012    2    1    2    0    0 -0.89961304905E+01  0.15373530440E+02  0.57795450631E+01  0.72461576339E+02  0.70000007874E+02 0.  0.
        -12    1    1    2    0    0  0.89961304905E+01 -0.15373530440E+02 -0.57795450631E+01  0.18726423661E+02  0.00000000000E+00 0.  1.
         11    1    3    3    0    0 -0.20677034415E+00 -0.17336477865E+00 -0.24767772175E+01  0.24914323126E+01  0.51100000000E-03 0. -1.
        -11    1    3    3    0    0  0.23851803265E+01  0.10939843126E+02 -0.28849067358E+02  0.30945725722E+02  0.51100000000E-03 0.  1.
         12    1    3    3    0    0 -0.11174540473E+02  0.46070520930E+01  0.37105389638E+02  0.39024418304E+02  0.00000000000E+00 0. -1.
</event>
<event>
 7    1  0.2809593E-013  0.7246149E+02  0.7816164E-02  0.1226708E+00
        -11   -1    0    0    0    0  0.00000000000E+00  0.00000000000E+00  0.45593999997E+02  0.45594000000E+02  0.51100000000E-03 0. -1.
         11   -1    0    0    0    0 -0.00000000000E+00 -0.00000000000E+00 -0.45593999997E+02  0.45594000000E+02  0.51100000000E-03 0.  1.
    9900012    2    1    2    0    0  0.16558266739E+01  0.11471105315E+02  0.14708986018E+02  0.72461487009E+02  0.69999891505E+02 0.  0.
        -12    1    1    2    0    0 -0.16558266739E+01 -0.11471105315E+02 -0.14708986018E+02  0.18726512991E+02  0.00000000000E+00 0.  1.
         11    1    3    3    0    0 -0.53399335210E+01 -0.31800223713E+01 -0.31471548275E+01  0.69664923785E+01  0.51100000000E-03 0. -1.
        -11    1    3    3    0    0 -0.16919663457E+02 -0.52296886073E+01 -0.12780499618E+02  0.21839547275E+02  0.51100000000E-03 0.  1.
         12    1    3    3    0    0  0.23915423652E+02  0.19880816294E+02  0.30636640463E+02  0.43655447356E+02  0.00000000000E+00 0. -1.
</event>
<event>
 7    1  0.2809593E-013  0.7246159E+02  0.7816164E-02  0.1226708E+00
        -11   -1    0    0    0    0  0.00000000000E+00  0.00000000000E+00  0.45593999997E+02  0.45594000000E+02  0.51100000000E-03 0.  1.
         11   -1    0    0    0    0 -0.00000000000E+00 -0.00000000000E+00 -0.45593999997E+02  0.45594000000E+02  0.51100000000E-03 0. -1.
    9900012    2    1    2    0    0  0.41702531451E+01 -0.77273479506E+01 -0.16540114478E+02  0.72461593388E+02  0.70000030084E+02 0.  0.
        -12    1    1    2    0    0 -0.41702531451E+01  0.77273479506E+01  0.16540114478E+02  0.18726406612E+02  0.00000000000E+00 0.  1.
         11    1    3    3    0    0  0.11620768904E+02  0.18747274653E+02 -0.26518594469E+02  0.34492585141E+02  0.51100000000E-03 0. -1.
        -11    1    3    3    0    0 -0.49556502366E+01 -0.47359082647E+01 -0.73550129199E+01  0.10054029624E+02  0.51100000000E-03 0.  1.
        -12    1    3    3    0    0 -0.24948655220E+01 -0.21738714338E+02  0.17333492911E+02  0.27914978624E+02  0.00000000000E+00 0.  1.
</event>
<event>
 7    1  0.2809593E-013  0.7246142E+02  0.7816164E-02  0.1226708E+00
        -11   -1    0    0    0    0  0.00000000000E+00  0.00000000000E+00  0.45593999997E+02  0.45594000000E+02  0.51100000000E-03 0.  1.
         11   -1    0    0    0    0 -0.00000000000E+00 -0.00000000000E+00 -0.45593999997E+02  0.45594000000E+02  0.51100000000E-03 0. -1.
    9900012    2    1    2    0    0  0.12725966243E+02 -0.10762595957E+02 -0.85382186170E+01  0.72461418205E+02  0.69999801875E+02 0.  0.
        -12    1    1    2    0    0 -0.12725966243E+02  0.10762595957E+02  0.85382186170E+01  0.18726581795E+02  0.00000000000E+00 0.  1.
         11    1    3    3    0    0 -0.40065363916E+01 -0.94447586567E+00  0.21202193416E+01  0.46303022402E+01  0.51100000000E-03 0. -1.
        -11    1    3    3    0    0  0.19478520973E+02 -0.30494175079E+02  0.10943557139E+02  0.37803028135E+02  0.51100000000E-03 0.  1.
         12    1    3    3    0    0 -0.27460183377E+01  0.20676054988E+02 -0.21601995097E+02  0.30028087830E+02  0.00000000000E+00 0. -1.
</event>
<event>
 7    1  0.2809593E-013  0.7246156E+02  0.7816164E-02  0.1226708E+00
        -11   -1    0    0    0    0  0.00000000000E+00  0.00000000000E+00  0.45593999997E+02  0.45594000000E+02  0.51100000000E-03 0.  1.
         11   -1    0    0    0    0 -0.00000000000E+00 -0.00000000000E+00 -0.45593999997E+02  0.45594000000E+02  0.51100000000E-03 0. -1.
    9900012    2    1    2    0    0  0.10311479721E+02 -0.92387221793E+01 -0.12609481275E+02  0.72461558278E+02  0.69999984346E+02 0.  0.
        -12    1    1    2    0    0 -0.10311479721E+02  0.92387221793E+01  0.12609481275E+02  0.18726441722E+02  0.00000000000E+00 0.  1.
         11    1    3    3    0    0  0.20820031767E+02 -0.13840014636E+02 -0.69123930496E+01  0.25938406001E+02  0.51100000000E-03 0. -1.
        -11    1    3    3    0    0  0.45234613499E+01 -0.14113061306E+02  0.99673389229E+01  0.17860236490E+02  0.51100000000E-03 0.  1.
         12    1    3    3    0    0 -0.15032013396E+02  0.18714353763E+02 -0.15664427149E+02  0.28662915787E+02  0.00000000000E+00 0. -1.
</event>
<event>
 7    1  0.2809593E-013  0.7246157E+02  0.7816164E-02  0.1226708E+00
        -11   -1    0    0    0    0  0.00000000000E+00  0.00000000000E+00  0.45593999997E+02  0.45594000000E+02  0.51100000000E-03 0.  1.
         11   -1    0    0    0    0 -0.00000000000E+00 -0.00000000000E+00 -0.45593999997E+02  0.45594000000E+02  0.51100000000E-03 0. -1.
    9900012    2    1    2    0    0 -0.45055668299E+01 -0.20373360504E+01 -0.18061787774E+02  0.72461573533E+02  0.70000004219E+02 0.  0.
        -12    1    1    2    0    0  0.45055668299E+01  0.20373360504E+01  0.18061787774E+02  0.18726426467E+02  0.00000000000E+00 0.  1.
         11    1    3    3    0    0  0.35279939646E+01 -0.20322324283E+02 -0.18508462100E+02  0.27712935161E+02  0.51100000000E-03 0. -1.
        -11    1    3    3    0    0  0.23887319730E+01 -0.12203243891E+02  0.14049490857E+01  0.12513955574E+02  0.51100000000E-03 0.  1.
         12    1    3    3    0    0 -0.10422292767E+02  0.30488232124E+02 -0.95827475973E+00  0.32234682798E+02  0.00000000000E+00 0. -1.
</event>
<event>
 7    1  0.2809593E-013  0.7246159E+02  0.7816164E-02  0.1226708E+00
        -11   -1    0    0    0    0  0.00000000000E+00  0.00000000000E+00  0.45593999997E+02  0.45594000000E+02  0.51100000000E-03 0.  1.
         11   -1    0    0    0    0 -0.00000000000E+00 -0.00000000000E+00 -0.45593999997E+02  0.45594000000E+02  0.51100000000E-03 0. -1.
    9900012    2    1    2    0    0 -0.26245986148E+01 -0.10388811912E+02 -0.15357813959E+02  0.72461591363E+02  0.70000027446E+02 0.  0.
        -12    1    1    2    0    0  0.26245986148E+01  0.10388811912E+02  0.15357813959E+02  0.18726408637E+02  0.00000000000E+00 0.  1.
         11    1    3    3    0    0  0.53995311712E+01  0.14622182920E+02 -0.17146172924E+01  0.15681297234E+02  0.51100000000E-03 0. -1.
        -11    1    3    3    0    0 -0.16094254587E+02  0.99732259375E+01 -0.74514200994E+01  0.20347332210E+02  0.51100000000E-03 0.  1.
         12    1    3    3    0    0  0.80701248006E+01 -0.34984220770E+02 -0.61917765675E+01  0.36432961919E+02  0.00000000000E+00 0. -1.
</event>
<event>
 7    1  0.2809593E-013  0.7246158E+02  0.7816164E-02  0.1226708E+00
        -11   -1    0    0    0    0  0.00000000000E+00  0.00000000000E+00  0.45593999997E+02  0.45594000000E+02  0.51100000000E-03 0. -1.
         11   -1    0    0    0    0 -0.00000000000E+00 -0.00000000000E+00 -0.45593999997E+02  0.45594000000E+02  0.51100000000E-03 0.  1.
    9900012    2    1    2    0    0  0.20015542634E+01  0.11169006871E+02  0.14897181926E+02  0.72461575800E+02  0.70000007173E+02 0.  0.
        -12    1    1    2    0    0 -0.20015542634E+01 -0.11169006871E+02 -0.14897181926E+02  0.18726424200E+02  0.00000000000E+00 0.  1.
         11    1    3    3    0    0  0.11111594077E+02  0.40924947744E+01  0.16010482228E+02  0.19913602834E+02  0.51100000000E-03 0. -1.
        -11    1    3    3    0    0 -0.83100599469E+01  0.28304418263E+02  0.60818882410E+01  0.30119537752E+02  0.51100000000E-03 0.  1.
         12    1    3    3    0    0 -0.79997986622E+00 -0.21227906166E+02 -0.71951885430E+01  0.22428435214E+02  0.00000000000E+00 0. -1.
</event>
<event>
 7    1  0.2809593E-013  0.7246155E+02  0.7816164E-02  0.1226708E+00
        -11   -1    0    0    0    0  0.00000000000E+00  0.00000000000E+00  0.45593999997E+02  0.45594000000E+02  0.51100000000E-03 0. -1.
         11   -1    0    0    0    0 -0.00000000000E+00 -0.00000000000E+00 -0.45593999997E+02  0.45594000000E+02  0.51100000000E-03 0.  1.
    9900012    2    1    2    0    0  0.42356319619E+01 -0.55006155784E+01  0.17392029926E+02  0.72461546657E+02  0.69999969207E+02 0.  0.
        -12    1    1    2    0    0 -0.42356319619E+01  0.55006155784E+01 -0.17392029926E+02  0.18726453343E+02  0.00000000000E+00 0.  1.
         11    1    3    3    0    0  0.12141317025E+02  0.47492809138E+00  0.32411361112E+02  0.34614064558E+02  0.51100000000E-03 0. -1.
        -11    1    3    3    0    0  0.63120129013E+01 -0.14229368185E+02  0.19695788257E-01  0.15566528643E+02  0.51100000000E-03 0.  1.
        -12    1    3    3    0    0 -0.14217697965E+02  0.82538245154E+01 -0.15039026974E+02  0.22280953455E+02  0.00000000000E+00 0.  1.
</event>
<event>
 7    1  0.2809593E-013  0.7246144E+02  0.7816164E-02  0.1226708E+00
        -11   -1    0    0    0    0  0.00000000000E+00  0.00000000000E+00  0.45593999997E+02  0.45594000000E+02  0.51100000000E-03 0.  1.
         11   -1    0    0    0    0 -0.00000000000E+00 -0.00000000000E+00 -0.45593999997E+02  0.45594000000E+02  0.51100000000E-03 0. -1.
    9900012    2    1    2    0    0 -0.90193645189E+01 -0.15869944834E+01 -0.16334525152E+02  0.72461435986E+02  0.69999825038E+02 0.  0.
        -12    1    1    2    0    0  0.90193645189E+01  0.15869944834E+01  0.16334525152E+02  0.18726564014E+02  0.00000000000E+00 0.  1.
         11    1    3    3    0    0  0.37872285759E+01  0.76724320824E+00 -0.10922858155E+02  0.11586224275E+02  0.51100000000E-03 0. -1.
        -11    1    3    3    0    0  0.70145877121E+01  0.57603011046E+01 -0.28186281474E+02  0.29611686429E+02  0.51100000000E-03 0.  1.
        -12    1    3    3    0    0 -0.19821180807E+02 -0.81145387962E+01  0.22774614477E+02  0.31263525281E+02  0.00000000000E+00 0.  1.
</event>
<event>
 7    1  0.2809593E-013  0.7246156E+02  0.7816164E-02  0.1226708E+00
        -11   -1    0    0    0    0  0.00000000000E+00  0.00000000000E+00  0.45593999997E+02  0.45594000000E+02  0.51100000000E-03 0.  1.
         11   -1    0    0    0    0 -0.00000000000E+00 -0.00000000000E+00 -0.45593999997E+02  0.45594000000E+02  0.51100000000E-03 0. -1.
    9900012    2    1    2    0    0  0.17063423370E+02  0.80414039012E+00  0.76728379123E+01  0.72461561457E+02  0.69999988488E+02 0.  0.
        -12    1    1    2    0    0 -0.17063423370E+02 -0.80414039012E+00 -0.76728379123E+01  0.18726438543E+02  0.00000000000E+00 0.  1.
         11    1    3    3    0    0 -0.74616057797E+01  0.19247626150E+02  0.19990111624E+02  0.28735887601E+02  0.51100000000E-03 0. -1.
        -11    1    3    3    0    0  0.44219604198E+01  0.73822031440E+00  0.80910141017E+01  0.92500385211E+01  0.51100000000E-03 0.  1.
        -12    1    3    3    0    0  0.20103068730E+02 -0.19181706074E+02 -0.20408287813E+02  0.34475635335E+02  0.00000000000E+00 0.  1.
</event>
<event>
 7    1  0.2809593E-013  0.7246155E+02  0.7816164E-02  0.1226708E+00
        -11   -1    0    0    0    0  0.00000000000E+00  0.00000000000E+00  0.45593999997E+02  0.45594000000E+02  0.51100000000E-03 0. -1.
         11   -1    0    0    0    0 -0.00000000000E+00 -0.00000000000E+00 -0.45593999997E+02  0.45594000000E+02  0.51100000000E-03 0.  1.
    9900012    2    1    2    0    0 -0.96003170107E+01 -0.19756707190E+00  0.16077150221E+02  0.72461551359E+02  0.69999975333E+02 0.  0.
        -12    1    1    2    0    0  0.96003170107E+01  0.19756707190E+00 -0.16077150221E+02  0.18726448641E+02  0.00000000000E+00 0.  1.
         11    1    3    3    0    0 -0.23040628845E+02  0.97814078592E+00  0.32910241844E+02  0.40185959681E+02  0.51100000000E-03 0. -1.
        -11    1    3    3    0    0 -0.15995120835E+01 -0.86487280905E+01 -0.43909491844E+00  0.88063466374E+01  0.51100000000E-03 0.  1.
        -12    1    3    3    0    0  0.15039823918E+02  0.74730202327E+01 -0.16393996704E+02  0.23469245041E+02  0.00000000000E+00 0.  1.
</event>
<event>
 7    1  0.2809593E-013  0.7246142E+02  0.7816164E-02  0.1226708E+00
        -11   -1    0    0    0    0  0.00000000000E+00  0.00000000000E+00  0.45593999997E+02  0.45594000000E+02  0.51100000000E-03 0. -1.
         11   -1    0    0    0    0 -0.00000000000E+00 -0.00000000000E+00 -0.45593999997E+02  0.45594000000E+02  0.51100000000E-03 0.  1.
    9900012    2    1    2    0    0  0.37953737179E+00 -0.14280201497E+02  0.12108530135E+02  0.72461422485E+02  0.69999807450E+02 0.  0.
        -12    1    1    2    0    0 -0.37953737179E+00  0.14280201497E+02 -0.12108530135E+02  0.18726577515E+02  0.00000000000E+00 0.  1.
         11    1    3    3    0    0 -0.30442358858E+01 -0.32573100865E+01 -0.33616913883E+01  0.55837631020E+01  0.51100000000E-03 0. -1.
        -11    1    3    3    0    0 -0.28752284164E+02 -0.12050379908E+02  0.33391601075E-01  0.31175416851E+02  0.51100000000E-03 0.  1.
         12    1    3    3    0    0  0.32176057421E+02  0.10274884975E+01  0.15436829922E+02  0.35702242532E+02  0.00000000000E+00 0. -1.
</event>
<event>
 7    1  0.2809593E-013  0.7246156E+02  0.7816164E-02  0.1226708E+00
        -11   -1    0    0    0    0  0.00000000000E+00  0.00000000000E+00  0.45593999997E+02  0.45594000000E+02  0.51100000000E-03 0.  1.
         11   -1    0    0    0    0 -0.00000000000E+00 -0.00000000000E+00 -0.45593999997E+02  0.45594000000E+02  0.51100000000E-03 0. -1.
    9900012    2    1    2    0    0 -0.45765488272E+01 -0.18153825160E+02  0.41624437589E+00  0.72461563433E+02  0.69999991062E+02 0.  0.
        -12    1    1    2    0    0  0.45765488272E+01  0.18153825160E+02 -0.41624437589E+00  0.18726436567E+02  0.00000000000E+00 0.  1.
         11    1    3    3    0    0 -0.58571983553E+00 -0.12700469663E+02  0.25979262972E+01  0.12976679802E+02  0.51100000000E-03 0. -1.
        -11    1    3    3    0    0 -0.16439497320E+02 -0.19081967417E+02  0.18881462367E+02  0.31478376293E+02  0.51100000000E-03 0.  1.
         12    1    3    3    0    0  0.12448668329E+02  0.13628611920E+02 -0.21063144288E+02  0.28006507339E+02  0.00000000000E+00 0. -1.
</event>
<event>
 7    1  0.2809593E-013  0.7246158E+02  0.7816164E-02  0.1226708E+00
        -11   -1    0    0    0    0  0.00000000000E+00  0.00000000000E+00  0.45593999997E+02  0.45594000000E+02  0.51100000000E-03 0. -1.
         11   -1    0    0    0    0 -0.00000000000E+00 -0.00000000000E+00 -0.45593999997E+02  0.45594000000E+02  0.51100000000E-03 0.  1.
    9900012    2    1    2    0    0 -0.43840275430E+01 -0.30894941794E+01  0.17941967102E+02  0.72461578685E+02  0.70000010931E+02 0.  0.
        -12    1    1    2    0    0  0.43840275430E+01  0.30894941794E+01 -0.17941967102E+02  0.18726421315E+02  0.00000000000E+00 0.  1.
         11    1    3    3    0    0 -0.94216460601E+01  0.14863045786E+02 -0.79744715123E+01  0.19320189976E+02  0.51100000000E-03 0. -1.
        -11    1    3    3    0    0 -0.54256703714E+01  0.52454580725E+01  0.26634215456E+02  0.27682741241E+02  0.51100000000E-03 0.  1.
        -12    1    3    3    0    0  0.10463288888E+02 -0.23197998038E+02 -0.71777684248E+00  0.25458647469E+02  0.00000000000E+00 0.  1.
</event>
<event>
 7    1  0.2809593E-013  0.7246156E+02  0.7816164E-02  0.1226708E+00
        -11   -1    0    0    0    0  0.00000000000E+00  0.00000000000E+00  0.45593999997E+02  0.45594000000E+02  0.51100000000E-03 0.  1.
         11   -1    0    0    0    0 -0.00000000000E+00 -0.00000000000E+00 -0.45593999997E+02  0.45594000000E+02  0.51100000000E-03 0. -1.
    9900012    2    1    2    0    0 -0.95226184854E+01  0.15974443879E+02  0.21946757830E+01  0.72461555547E+02  0.69999980789E+02 0.  0.
        -12    1    1    2    0    0  0.95226184854E+01 -0.15974443879E+02 -0.21946757830E+01  0.18726444453E+02  0.00000000000E+00 0.  1.
         11    1    3    3    0    0  0.14944280595E+02  0.48097660141E+01 -0.20172403996E+02  0.25561519025E+02  0.51100000000E-03 0. -1.
        -11    1    3    3    0    0 -0.28956257729E+01  0.87649176941E+01 -0.61284638987E+01  0.11080004550E+02  0.51100000000E-03 0.  1.
        -12    1    3    3    0    0 -0.21571273307E+02  0.23997601709E+01  0.28495543678E+02  0.35820031972E+02  0.00000000000E+00 0.  1.
</event>
<event>
 7    1  0.2809593E-013  0.7246094E+02  0.7816164E-02  0.1226710E+00
        -11   -1    0    0    0    0  0.00000000000E+00  0.00000000000E+00  0.45593999997E+02  0.45594000000E+02  0.51100000000E-03 0.  1.
         11   -1    0    0    0    0 -0.00000000000E+00 -0.00000000000E+00 -0.45593999997E+02  0.45594000000E+02  0.51100000000E-03 0. -1.
    9900012    2    1    2    0    0 -0.22832380581E+01 -0.15232985477E+02  0.10651091576E+02  0.72460940051E+02  0.69999178986E+02 0.  0.
        -12    1    1    2    0    0  0.22832380581E+01  0.15232985477E+02 -0.10651091576E+02  0.18727059949E+02  0.00000000000E+00 0.  1.
         11    1    3    3    0    0 -0.30854788071E+02  0.26324806925E+01  0.14634771094E+02  0.34250904028E+02  0.51100000000E-03 0. -1.
        -11    1    3    3    0    0  0.45154587658E+01  0.26785460982E+01  0.26595910963E+01  0.58853548854E+01  0.51100000000E-03 0.  1.
         12    1    3    3    0    0  0.24056091247E+02 -0.20544012268E+02 -0.66432706139E+01  0.32324681137E+02  0.00000000000E+00 0. -1.
</event>
<event>
 7    1  0.2809593E-013  0.7246157E+02  0.7816164E-02  0.1226708E+00
        -11   -1    0    0    0    0  0.00000000000E+00  0.00000000000E+00  0.45593999997E+02  0.45594000000E+02  0.51100000000E-03 0. -1.
         11   -1    0    0    0    0 -0.00000000000E+00 -0.00000000000E+00 -0.45593999997E+02  0.45594000000E+02  0.51100000000E-03 0.  1.
    9900012    2    1    2    0    0  0.16554343408E+02  0.55453151787E+01  0.67736539286E+01  0.72461569650E+02  0.69999999161E+02 0.  0.
        -12    1    1    2    0    0 -0.16554343408E+02 -0.55453151787E+01 -0.67736539286E+01  0.18726430350E+02  0.00000000000E+00 0.  1.
         11    1    3    3    0    0 -0.46222732599E+01 -0.28958692920E+01  0.19613066658E+02  0.20357402905E+02  0.51100000000E-03 0. -1.
        -11    1    3    3    0    0  0.23725643930E+01 -0.17456270179E+02 -0.92548751850E+01  0.19899827771E+02  0.51100000000E-03 0.  1.
        -12    1    3    3    0    0  0.18804052275E+02  0.25897454650E+02 -0.35845375447E+01  0.32204338974E+02  0.00000000000E+00 0.  1.
</event>
<event>
 7    1  0.2809593E-013  0.7246155E+02  0.7816164E-02  0.1226708E+00
        -11   -1    0    0    0    0  0.00000000000E+00  0.00000000000E+00  0.45593999997E+02  0.45594000000E+02  0.51100000000E-03 0.  1.
         11   -1    0    0    0    0 -0.00000000000E+00 -0.00000000000E+00 -0.45593999997E+02  0.45594000000E+02  0.51100000000E-03 0. -1.
    9900012    2    1    2    0    0  0.15138813962E+02  0.29226086170E+01  0.10628002778E+02  0.72461554199E+02  0.69999979032E+02 0.  0.
        -12    1    1    2    0    0 -0.15138813962E+02 -0.29226086170E+01 -0.10628002778E+02  0.18726445801E+02  0.00000000000E+00 0.  1.
         11    1    3    3    0    0 -0.99950602734E+00  0.41448091709E+01 -0.36901388102E+01  0.56387569607E+01  0.51100000000E-03 0. -1.
        -11    1    3    3    0    0  0.14856698070E+02 -0.24617110415E+01 -0.24070300729E+02  0.28392972303E+02  0.51100000000E-03 0.  1.
        -12    1    3    3    0    0  0.12816219192E+01  0.12395104876E+01  0.38388442317E+02  0.38429824935E+02  0.00000000000E+00 0.  1.
</event>
<event>
 7    1  0.2809593E-013  0.7246153E+02  0.7816164E-02  0.1226708E+00
        -11   -1    0    0    0    0  0.00000000000E+00  0.00000000000E+00  0.45593999997E+02  0.45594000000E+02  0.51100000000E-03 0. -1.
         11   -1    0    0    0    0 -0.00000000000E+00 -0.00000000000E+00 -0.45593999997E+02  0.45594000000E+02  0.51100000000E-03 0.  1.
    9900012    2    1    2    0    0  0.17537052849E+02  0.22385344123E+01  0.61742487511E+01  0.72461531924E+02  0.69999950016E+02 0.  0.
        -12    1    1    2    0    0 -0.17537052849E+02 -0.22385344123E+01 -0.61742487511E+01  0.18726468076E+02  0.00000000000E+00 0.  1.
         11    1    3    3    0    0 -0.11409759957E+02 -0.12761545316E+02  0.10319688983E+01  0.17149478744E+02  0.51100000000E-03 0. -1.
        -11    1    3    3    0    0 -0.51450757365E+01 -0.69579518483E+01  0.11366575418E+02  0.14285794876E+02  0.51100000000E-03 0.  1.
        -12    1    3    3    0    0  0.34091888543E+02  0.21958031576E+02 -0.62242955649E+01  0.41026258304E+02  0.00000000000E+00 0.  1.
</event>
<event>
 7    1  0.2809593E-013  0.7246169E+02  0.7816164E-02  0.1226708E+00
        -11   -1    0    0    0    0  0.00000000000E+00  0.00000000000E+00  0.45593999997E+02  0.45594000000E+02  0.51100000000E-03 0.  1.
         11   -1    0    0    0    0 -0.00000000000E+00 -0.00000000000E+00 -0.45593999997E+02  0.45594000000E+02  0.51100000000E-03 0. -1.
    9900012    2    1    2    0    0  0.11303230154E+02 -0.36476606839E+01 -0.14477790277E+02  0.72461685582E+02  0.70000150184E+02 0.  0.
        -12    1    1    2    0    0 -0.11303230154E+02  0.36476606839E+01  0.14477790277E+02  0.18726314418E+02  0.00000000000E+00 0.  1.
         11    1    3    3    0    0  0.17026603070E+02  0.61835148115E+01 -0.65301661558E+01  0.19255755966E+02  0.51100000000E-03 0. -1.
        -11    1    3    3    0    0 -0.23206058762E+01 -0.30401172533E+02 -0.10395704718E+02  0.32213152281E+02  0.51100000000E-03 0.  1.
        -12    1    3    3    0    0 -0.34027670399E+01  0.20569997038E+02  0.24480805976E+01  0.20992777336E+02  0.00000000000E+00 0.  1.
</event>
<event>
 7    1  0.2809593E-013  0.7246159E+02  0.7816164E-02  0.1226708E+00
        -11   -1    0    0    0    0  0.00000000000E+00  0.00000000000E+00  0.45593999997E+02  0.45594000000E+02  0.51100000000E-03 0. -1.
         11   -1    0    0    0    0 -0.00000000000E+00 -0.00000000000E+00 -0.45593999997E+02  0.45594000000E+02  0.51100000000E-03 0.  1.
    9900012    2    1    2    0    0 -0.16244097133E+02  0.28698714510E+01  0.88640635361E+01  0.72461588806E+02  0.70000024115E+02 0.  0.
        -12    1    1    2    0    0  0.16244097133E+02 -0.28698714510E+01 -0.88640635361E+01  0.18726411194E+02  0.00000000000E+00 0.  1.
         11    1    3    3    0    0 -0.25863105767E+02  0.11548880673E+02  0.12739740287E+02  0.31057653929E+02  0.51100000000E-03 0. -1.
        -11    1    3    3    0    0  0.47514150398E+01 -0.97888869179E+01  0.16865166472E+02  0.20070677426E+02  0.51100000000E-03 0.  1.
        -12    1    3    3    0    0  0.48675935942E+01  0.11098776955E+01 -0.20740843222E+02  0.21333257451E+02  0.00000000000E+00 0.  1.
</event>
<event>
 7    1  0.2809593E-013  0.7246137E+02  0.7816164E-02  0.1226709E+00
        -11   -1    0    0    0    0  0.00000000000E+00  0.00000000000E+00  0.45593999997E+02  0.45594000000E+02  0.51100000000E-03 0. -1.
         11   -1    0    0    0    0 -0.00000000000E+00 -0.00000000000E+00 -0.45593999997E+02  0.45594000000E+02  0.51100000000E-03 0.  1.
    9900012    2    1    2    0    0 -0.41887046119E+01  0.17505369196E+02 -0.51675269221E+01  0.72461373728E+02  0.69999743936E+02 0.  0.
        -12    1    1    2    0    0  0.41887046119E+01 -0.17505369196E+02  0.51675269221E+01  0.18726626272E+02  0.00000000000E+00 0.  1.
         11    1    3    3    0    0  0.17594419890E+02  0.14550019342E+02 -0.92627780209E+01  0.24638703924E+02  0.51100000000E-03 0. -1.
        -11    1    3    3    0    0 -0.33981822653E+01 -0.18580034327E+02 -0.15427361050E+01  0.18951130659E+02  0.51100000000E-03 0.  1.
         12    1    3    3    0    0 -0.18384942237E+02  0.21535384182E+02  0.56379872038E+01  0.28871539145E+02  0.00000000000E+00 0. -1.
</event>
<event>
 7    1  0.2809593E-013  0.7246150E+02  0.7816164E-02  0.1226708E+00
        -11   -1    0    0    0    0  0.00000000000E+00  0.00000000000E+00  0.45593999997E+02  0.45594000000E+02  0.51100000000E-03 0. -1.
         11   -1    0    0    0    0 -0.00000000000E+00 -0.00000000000E+00 -0.45593999997E+02  0.45594000000E+02  0.51100000000E-03 0.  1.
    9900012    2    1    2    0    0  0.47542905489E+01 -0.11905019757E+01  0.18073772918E+02  0.72461498964E+02  0.69999907078E+02 0.  0.
        -12    1    1    2    0    0 -0.47542905489E+01  0.11905019757E+01 -0.18073772918E+02  0.18726501036E+02  0.00000000000E+00 0.  1.
         11    1    3    3    0    0  0.19202252409E+02  0.30958950026E+01  0.46381005352E+01  0.19995575517E+02  0.51100000000E-03 0. -1.
        -11    1    3    3    0    0  0.10954810676E+02 -0.66909243932E+01 -0.11171809714E+02  0.17017217127E+02  0.51100000000E-03 0.  1.
         12    1    3    3    0    0 -0.25402772536E+02  0.24045274149E+01  0.24607482097E+02  0.35448706320E+02  0.00000000000E+00 0. -1.
</event>
<event>
 7    1  0.2809593E-013  0.7246157E+02  0.7816164E-02  0.1226708E+00
        -11   -1    0    0    0    0  0.00000000000E+00  0.00000000000E+00  0.45593999997E+02  0.45594000000E+02  0.51100000000E-03 0. -1.
         11   -1    0    0    0    0 -0.00000000000E+00 -0.00000000000E+00 -0.45593999997E+02  0.45594000000E+02  0.51100000000E-03 0.  1.
    9900012    2    1    2    0    0 -0.17984510023E+02  0.34415632986E+01  0.39232693041E+01  0.72461574801E+02  0.70000005871E+02 0.  0.
        -12    1    1    2    0    0  0.17984510023E+02 -0.34415632986E+01 -0.39232693041E+01  0.18726425199E+02  0.00000000000E+00 0.  1.
         11    1    3    3    0    0  0.24101544141E+01 -0.78884126063E+01 -0.18813430889E+02  0.20542178069E+02  0.51100000000E-03 0. -1.
        -11    1    3    3    0    0 -0.12233503739E+02  0.25864156051E+00 -0.10389010731E+02  0.16051699394E+02  0.51100000000E-03 0.  1.
         12    1    3    3    0    0 -0.81611606975E+01  0.11071334344E+02  0.33125710924E+02  0.35867697338E+02  0.00000000000E+00 0. -1.
</event>
<event>
 7    1  0.2809593E-013  0.7246156E+02  0.7816164E-02  0.1226708E+00
        -11   -1    0    0    0    0  0.00000000000E+00  0.00000000000E+00  0.45593999997E+02  0.45594000000E+02  0.51100000000E-03 0. -1.
         11   -1    0    0    0    0 -0.00000000000E+00 -0.00000000000E+00 -0.45593999997E+02  0.45594000000E+02  0.51100000000E-03 0.  1.
    9900012    2    1    2    0    0  0.10816115318E+02  0.38290387691E+00  0.15282164509E+02  0.72461560989E+02  0.69999987879E+02 0.  0.
        -12    1    1    2    0    0 -0.10816115318E+02 -0.38290387691E+00 -0.15282164509E+02  0.18726439011E+02  0.00000000000E+00 0.  1.
         11    1    3    3    0    0  0.42275507547E+01 -0.25550920018E+01 -0.79273627902E+01  0.93404369057E+01  0.51100000000E-03 0. -1.
        -11    1    3    3    0    0  0.71859445072E+01 -0.27357761249E+02  0.13152499287E+02  0.31194120228E+02  0.51100000000E-03 0.  1.
         12    1    3    3    0    0 -0.59737994424E+00  0.30295757128E+02  0.10057028012E+02  0.31927003856E+02  0.00000000000E+00 0. -1.
</event>
<event>
 7    1  0.2809593E-013  0.7246163E+02  0.7816164E-02  0.1226708E+00
        -11   -1    0    0    0    0  0.00000000000E+00  0.00000000000E+00  0.45593999997E+02  0.45594000000E+02  0.51100000000E-03 0.  1.
         11   -1    0    0    0    0 -0.00000000000E+00 -0.00000000000E+00 -0.45593999997E+02  0.45594000000E+02  0.51100000000E-03 0. -1.
    9900012    2    1    2    0    0 -0.81189289662E+01  0.64682117441E+01 -0.15585966102E+02  0.72461625283E+02  0.70000071633E+02 0.  0.
        -12    1    1    2    0    0  0.81189289662E+01 -0.64682117441E+01  0.15585966102E+02  0.18726374717E+02  0.00000000000E+00 0.  1.
         11    1    3    3    0    0 -0.35682290596E+01 -0.48340730583E+01  0.79073845902E+01  0.99311254283E+01  0.51100000000E-03 0. -1.
        -11    1    3    3    0    0 -0.14434520996E+02 -0.14861647300E+02  0.63116160376E+01  0.21657803538E+02  0.51100000000E-03 0.  1.
         12    1    3    3    0    0  0.98838210890E+01  0.26163932102E+02 -0.29804966730E+02  0.40872696316E+02  0.00000000000E+00 0. -1.
</event>
<event>
 7    1  0.2809593E-013  0.7246159E+02  0.7816164E-02  0.1226708E+00
        -11   -1    0    0    0    0  0.00000000000E+00  0.00000000000E+00  0.45593999997E+02  0.45594000000E+02  0.51100000000E-03 0. -1.
         11   -1    0    0    0    0 -0.00000000000E+00 -0.00000000000E+00 -0.45593999997E+02  0.45594000000E+02  0.51100000000E-03 0.  1.
    9900012    2    1    2    0    0  0.71086519256E+01 -0.96750720676E+01  0.14371446924E+02  0.72461589816E+02  0.70000025430E+02 0.  0.
        -12    1    1    2    0    0 -0.71086519256E+01  0.96750720676E+01 -0.14371446924E+02  0.18726410184E+02  0.00000000000E+00 0.  1.
         11    1    3    3    0    0 -0.33047060881E+01 -0.12109678019E+02 -0.17378198282E+02  0.21437517577E+02  0.51100000000E-03 0. -1.
        -11    1    3    3    0    0 -0.18038332675E+01  0.71285375024E+01 -0.69825978197E+01  0.10140341905E+02  0.51100000000E-03 0.  1.
         12    1    3    3    0    0  0.12217191281E+02 -0.46939315512E+01  0.38732243026E+02  0.40883730334E+02  0.00000000000E+00 0. -1.
</event>
<event>
 7    1  0.2809593E-013  0.7246105E+02  0.7816164E-02  0.1226709E+00
        -11   -1    0    0    0    0  0.00000000000E+00  0.00000000000E+00  0.45593999997E+02  0.45594000000E+02  0.51100000000E-03 0.  1.
         11   -1    0    0    0    0 -0.00000000000E+00 -0.00000000000E+00 -0.45593999997E+02  0.45594000000E+02  0.51100000000E-03 0. -1.
    9900012    2    1    2    0    0 -0.61612781827E+01  0.16120252429E+02  0.72715077770E+01  0.72461048497E+02  0.69999320259E+02 0.  0.
        -12    1    1    2    0    0  0.61612781827E+01 -0.16120252429E+02 -0.72715077770E+01  0.18726951503E+02  0.00000000000E+00 0.  1.
         11    1    3    3    0    0 -0.22476403731E+02  0.19072403790E+02 -0.26046871040E+01  0.29592730630E+02  0.51100000000E-03 0. -1.
        -11    1    3    3    0    0 -0.82784216814E+01 -0.10485665546E+02 -0.35918523740E+01  0.13834119098E+02  0.51100000000E-03 0.  1.
         12    1    3    3    0    0  0.24593547229E+02  0.75335141859E+01  0.13468047255E+02  0.29034198769E+02  0.00000000000E+00 0. -1.
</event>
<event>
 7    1  0.2809593E-013  0.7246156E+02  0.7816164E-02  0.1226708E+00
        -11   -1    0    0    0    0  0.00000000000E+00  0.00000000000E+00  0.45593999997E+02  0.45594000000E+02  0.51100000000E-03 0.  1.
         11   -1    0    0    0    0 -0.00000000000E+00 -0.00000000000E+00 -0.45593999997E+02  0.45594000000E+02  0.51100000000E-03 0. -1.
    9900012    2    1    2    0    0 -0.11505230701E+02 -0.56765113538E+01 -0.13641346813E+02  0.72461562606E+02  0.69999989984E+02 0.  0.
        -12    1    1    2    0    0  0.11505230701E+02  0.56765113538E+01  0.13641346813E+02  0.18726437394E+02  0.00000000000E+00 0.  1.
         11    1    3    3    0    0 -0.19108873511E+02  0.18703927512E+02 -0.10732550386E+01  0.26760751631E+02  0.51100000000E-03 0. -1.
        -11    1    3    3    0    0  0.14395643699E+02  0.28718475787E+01  0.57765023619E+00  0.14690668673E+02  0.51100000000E-03 0.  1.
        -12    1    3    3    0    0 -0.67920008883E+01 -0.27252286444E+02 -0.13145742010E+02  0.31010142301E+02  0.00000000000E+00 0.  1.
</event>
<event>
 7    1  0.2809593E-013  0.7246160E+02  0.7816164E-02  0.1226708E+00
        -11   -1    0    0    0    0  0.00000000000E+00  0.00000000000E+00  0.45593999997E+02  0.45594000000E+02  0.51100000000E-03 0.  1.
         11   -1    0    0    0    0 -0.00000000000E+00 -0.00000000000E+00 -0.45593999997E+02  0.45594000000E+02  0.51100000000E-03 0. -1.
    9900012    2    1    2    0    0  0.86588299647E+01  0.84270421870E+01 -0.14306912595E+02  0.72461598200E+02  0.70000036352E+02 0.  0.
        -12    1    1    2    0    0 -0.86588299647E+01 -0.84270421870E+01  0.14306912595E+02  0.18726401800E+02  0.00000000000E+00 0.  1.
         11    1    3    3    0    0  0.38872277766E+01  0.31608040656E+02 -0.93009330530E+01  0.33176590088E+02  0.51100000000E-03 0. -1.
        -11    1    3    3    0    0 -0.10233148267E+02 -0.20580603218E+01  0.49192838240E+01  0.11539163286E+02  0.51100000000E-03 0.  1.
        -12    1    3    3    0    0  0.15004750455E+02 -0.21122938148E+02 -0.99252633658E+01  0.27745844826E+02  0.00000000000E+00 0.  1.
</event>
<event>
 7    1  0.2809593E-013  0.7246159E+02  0.7816164E-02  0.1226708E+00
        -11   -1    0    0    0    0  0.00000000000E+00  0.00000000000E+00  0.45593999997E+02  0.45594000000E+02  0.51100000000E-03 0.  1.
         11   -1    0    0    0    0 -0.00000000000E+00 -0.00000000000E+00 -0.45593999997E+02  0.45594000000E+02  0.51100000000E-03 0. -1.
    9900012    2    1    2    0    0 -0.49389439672E+01  0.16167390641E+02 -0.80561057331E+01  0.72461587443E+02  0.70000022340E+02 0.  0.
        -12    1    1    2    0    0  0.49389439672E+01 -0.16167390641E+02  0.80561057331E+01  0.18726412557E+02  0.00000000000E+00 0.  1.
         11    1    3    3    0    0 -0.82430538174E+01  0.18214944279E+02 -0.35751584649E+01  0.20310437948E+02  0.51100000000E-03 0. -1.
        -11    1    3    3    0    0  0.27178761337E+02  0.97569458147E+00 -0.66217923549E+01  0.27990805312E+02  0.51100000000E-03 0.  1.
         12    1    3    3    0    0 -0.23874651487E+02 -0.30232482189E+01  0.21408450867E+01  0.24160344184E+02  0.00000000000E+00 0. -1.
</event>
<event>
 7    1  0.2809593E-013  0.7246154E+02  0.7816164E-02  0.1226708E+00
        -11   -1    0    0    0    0  0.00000000000E+00  0.00000000000E+00  0.45593999997E+02  0.45594000000E+02  0.51100000000E-03 0.  1.
         11   -1    0    0    0    0 -0.00000000000E+00 -0.00000000000E+00 -0.45593999997E+02  0.45594000000E+02  0.51100000000E-03 0. -1.
    9900012    2    1    2    0    0 -0.35826723888E+01  0.17697830853E+02  0.49630008497E+01  0.72461544495E+02  0.69999966392E+02 0.  0.
        -12    1    1    2    0    0  0.35826723888E+01 -0.17697830853E+02 -0.49630008497E+01  0.18726455505E+02  0.00000000000E+00 0.  1.
         11    1    3    3    0    0  0.49505599654E+01  0.76306518688E+01 -0.23530729412E+01  0.93953097044E+01  0.51100000000E-03 0. -1.
        -11    1    3    3    0    0  0.59364567659E+01  0.85371933229E+01  0.32421993696E+02  0.34048654367E+02  0.51100000000E-03 0.  1.
         12    1    3    3    0    0 -0.14469689120E+02  0.15299856610E+01 -0.25105919905E+02  0.29017580423E+02  0.00000000000E+00 0. -1.
</event>
<event>
 7    1  0.2809593E-013  0.7246154E+02  0.7816164E-02  0.1226708E+00
        -11   -1    0    0    0    0  0.00000000000E+00  0.00000000000E+00  0.45593999997E+02  0.45594000000E+02  0.51100000000E-03 0.  1.
         11   -1    0    0    0    0 -0.00000000000E+00 -0.00000000000E+00 -0.45593999997E+02  0.45594000000E+02  0.51100000000E-03 0. -1.
    9900012    2    1    2    0    0  0.37824255019E+01  0.59005874717E+01 -0.17365381746E+02  0.72461543892E+02  0.69999965606E+02 0.  0.
        -12    1    1    2    0    0 -0.37824255019E+01 -0.59005874717E+01  0.17365381746E+02  0.18726456108E+02  0.00000000000E+00 0.  1.
         11    1    3    3    0    0  0.99205771872E+01 -0.20700642129E+01 -0.16605235532E+02  0.19453453804E+02  0.51100000000E-03 0. -1.
        -11    1    3    3    0    0  0.10932105076E+02 -0.52651654859E+01 -0.20450842614E+02  0.23779610024E+02  0.51100000000E-03 0.  1.
        -12    1    3    3    0    0 -0.17070256762E+02  0.13235817170E+02  0.19690696401E+02  0.29228480064E+02  0.00000000000E+00 0.  1.
</event>
<event>
 7    1  0.2809593E-013  0.7246157E+02  0.7816164E-02  0.1226708E+00
        -11   -1    0    0    0    0  0.00000000000E+00  0.00000000000E+00  0.45593999997E+02  0.45594000000E+02  0.51100000000E-03 0. -1.
         11   -1    0    0    0    0 -0.00000000000E+00 -0.00000000000E+00 -0.45593999997E+02  0.45594000000E+02  0.51100000000E-03 0.  1.
    9900012    2    1    2    0    0 -0.27411017466E+01  0.17394603960E+02  0.63712923339E+01  0.72461568100E+02  0.69999997141E+02 0.  0.
        -12    1    1    2    0    0  0.27411017466E+01 -0.17394603960E+02 -0.63712923339E+01  0.18726431900E+02  0.00000000000E+00 0.  1.
         11    1    3    3    0    0  0.26069361616E+01  0.51238514618E+01 -0.60300793744E+01  0.83313760854E+01  0.51100000000E-03 0. -1.
        -11    1    3    3    0    0 -0.19882395396E+02 -0.18673100885E+02 -0.12816613952E+01  0.27306354563E+02  0.51100000000E-03 0.  1.
         12    1    3    3    0    0  0.14534357487E+02  0.30943853383E+02  0.13683033103E+02  0.36823837452E+02  0.00000000000E+00 0. -1.
</event>
<event>
 7    1  0.2809593E-013  0.7246159E+02  0.7816164E-02  0.1226708E+00
        -11   -1    0    0    0    0  0.00000000000E+00  0.00000000000E+00  0.45593999997E+02  0.45594000000E+02  0.51100000000E-03 0. -1.
         11   -1    0    0    0    0 -0.00000000000E+00 -0.00000000000E+00 -0.45593999997E+02  0.45594000000E+02  0.51100000000E-03 0.  1.
    9900012    2    1    2    0    0  0.68793200176E+00 -0.41315874840E+01  0.18251990336E+02  0.72461590392E+02  0.70000026181E+02 0.  0.
        -12    1    1    2    0    0 -0.68793200176E+00  0.41315874840E+01 -0.18251990336E+02  0.18726409608E+02  0.00000000000E+00 0.  1.
         11    1    3    3    0    0  0.17045401768E+02 -0.10624348003E+02  0.36069190421E+02  0.41284488490E+02  0.51100000000E-03 0. -1.
        -11    1    3    3    0    0  0.60958355655E+00 -0.48761509135E+01 -0.52765515621E+01  0.72104394105E+01  0.51100000000E-03 0.  1.
        -12    1    3    3    0    0 -0.16967053323E+02  0.11368911433E+02 -0.12540648523E+02  0.23966662492E+02  0.00000000000E+00 0.  1.
</event>
<event>
 7    1  0.2809593E-013  0.7246165E+02  0.7816164E-02  0.1226708E+00
        -11   -1    0    0    0    0  0.00000000000E+00  0.00000000000E+00  0.45593999997E+02  0.45594000000E+02  0.51100000000E-03 0.  1.
         11   -1    0    0    0    0 -0.00000000000E+00 -0.00000000000E+00 -0.45593999997E+02  0.45594000000E+02  0.51100000000E-03 0. -1.
    9900012    2    1    2    0    0 -0.10989005540E+02  0.15048964503E+02 -0.18565038693E+01  0.72461650062E+02  0.70000103912E+02 0.  0.
        -12    1    1    2    0    0  0.10989005540E+02 -0.15048964503E+02  0.18565038693E+01  0.18726349938E+02  0.00000000000E+00 0.  1.
         11    1    3    3    0    0 -0.58564619074E+01  0.10266454127E+02  0.50846862871E+01  0.12866711364E+02  0.51100000000E-03 0. -1.
        -11    1    3    3    0    0 -0.43190380663E+01  0.31289713440E+02  0.18916004366E+01  0.31642983574E+02  0.51100000000E-03 0.  1.
         12    1    3    3    0    0 -0.81350556623E+00 -0.26507203064E+02 -0.88327905930E+01  0.27951955124E+02  0.00000000000E+00 0. -1.
</event>
<event>
 7    1  0.2809593E-013  0.7246155E+02  0.7816164E-02  0.1226708E+00
        -11   -1    0    0    0    0  0.00000000000E+00  0.00000000000E+00  0.45593999997E+02  0.45594000000E+02  0.51100000000E-03 0.  1.
         11   -1    0    0    0    0 -0.00000000000E+00 -0.00000000000E+00 -0.45593999997E+02  0.45594000000E+02  0.51100000000E-03 0. -1.
    9900012    2    1    2    0    0 -0.12611526285E+02 -0.28946929574E+01 -0.13536995933E+02  0.72461545412E+02  0.69999967586E+02 0.  0.
        -12    1    1    2    0    0  0.12611526285E+02  0.28946929574E+01  0.13536995933E+02  0.18726454588E+02  0.00000000000E+00 0.  1.
         11    1    3    3    0    0 -0.20473457720E+02  0.57121535824E+01 -0.78048179026E+01  0.22643019946E+02  0.51100000000E-03 0. -1.
        -11    1    3    3    0    0 -0.25018438575E+01  0.12948757695E+02  0.13689377137E+02  0.19008645275E+02  0.51100000000E-03 0.  1.
        -12    1    3    3    0    0  0.10363775293E+02 -0.21555604235E+02 -0.19421555167E+02  0.30809880191E+02  0.00000000000E+00 0.  1.
</event>
<event>
 7    1  0.2809593E-013  0.7246124E+02  0.7816164E-02  0.1226709E+00
        -11   -1    0    0    0    0  0.00000000000E+00  0.00000000000E+00  0.45593999997E+02  0.45594000000E+02  0.51100000000E-03 0.  1.
         11   -1    0    0    0    0 -0.00000000000E+00 -0.00000000000E+00 -0.45593999997E+02  0.45594000000E+02  0.51100000000E-03 0. -1.
    9900012    2    1    2    0    0  0.16999239220E+02  0.78000887220E+01  0.93604903814E+00  0.72461235573E+02  0.69999563961E+02 0.  0.
        -12    1    1    2    0    0 -0.16999239220E+02 -0.78000887220E+01 -0.93604903814E+00  0.18726764427E+02  0.00000000000E+00 0.  1.
         11    1    3    3    0    0 -0.17945118739E+01 -0.13812387163E+00 -0.37399393536E+01  0.41504816226E+01  0.51100000000E-03 0. -1.
        -11    1    3    3    0    0 -0.15182851869E+02 -0.16545460376E+02 -0.90916959200E+01  0.24226642047E+02  0.51100000000E-03 0.  1.
         12    1    3    3    0    0  0.33976602962E+02  0.24483672969E+02  0.13767684312E+02  0.44084111903E+02  0.00000000000E+00 0. -1.
</event>
<event>
 7    1  0.2809593E-013  0.7246160E+02  0.7816164E-02  0.1226708E+00
        -11   -1    0    0    0    0  0.00000000000E+00  0.00000000000E+00  0.45593999997E+02  0.45594000000E+02  0.51100000000E-03 0.  1.
         11   -1    0    0    0    0 -0.00000000000E+00 -0.00000000000E+00 -0.45593999997E+02  0.45594000000E+02  0.51100000000E-03 0. -1.
    9900012    2    1    2    0    0  0.57479662609E+01  0.12214999649E+02 -0.12978162530E+02  0.72461600581E+02  0.70000039454E+02 0.  0.
        -12    1    1    2    0    0 -0.57479662609E+01 -0.12214999649E+02  0.12978162530E+02  0.18726399419E+02  0.00000000000E+00 0.  1.
         11    1    3    3    0    0  0.13968564649E+00  0.24601133043E+01 -0.29751427086E+02  0.29853292674E+02  0.51100000000E-03 0. -1.
        -11    1    3    3    0    0 -0.86535373856E+01 -0.83704072176E+01 -0.27976931838E+01  0.12360198772E+02  0.51100000000E-03 0.  1.
        -12    1    3    3    0    0  0.14261818000E+02  0.18125293562E+02  0.19570957740E+02  0.30248109135E+02  0.00000000000E+00 0.  1.
</event>
<event>
 7    1  0.2809593E-013  0.7246170E+02  0.7816164E-02  0.1226708E+00
        -11   -1    0    0    0    0  0.00000000000E+00  0.00000000000E+00  0.45593999997E+02  0.45594000000E+02  0.51100000000E-03 0.  1.
         11   -1    0    0    0    0 -0.00000000000E+00 -0.00000000000E+00 -0.45593999997E+02  0.45594000000E+02  0.51100000000E-03 0. -1.
    9900012    2    1    2    0    0  0.47572253950E+01  0.13571643465E+02 -0.11993904942E+02  0.72461696159E+02  0.70000163961E+02 0.  0.
        -12    1    1    2    0    0 -0.47572253950E+01 -0.13571643465E+02  0.11993904942E+02  0.18726303841E+02  0.00000000000E+00 0.  1.
         11    1    3    3    0    0 -0.12168914140E+02 -0.28261526798E+01 -0.53124580381E+01  0.13575412369E+02  0.51100000000E-03 0. -1.
        -11    1    3    3    0    0 -0.73826516644E+01 -0.15552510814E+02  0.32728214022E+01  0.17524140447E+02  0.51100000000E-03 0.  1.
        -12    1    3    3    0    0  0.24308791199E+02  0.31950306959E+02 -0.99542683065E+01  0.41362143342E+02  0.00000000000E+00 0.  1.
</event>
<event>
 7    1  0.2809593E-013  0.7246157E+02  0.7816164E-02  0.1226708E+00
        -11   -1    0    0    0    0  0.00000000000E+00  0.00000000000E+00  0.45593999997E+02  0.45594000000E+02  0.51100000000E-03 0.  1.
         11   -1    0    0    0    0 -0.00000000000E+00 -0.00000000000E+00 -0.45593999997E+02  0.45594000000E+02  0.51100000000E-03 0. -1.
    9900012    2    1    2    0    0  0.16966730539E+02  0.44743934833E+01 -0.65413282341E+01  0.72461571689E+02  0.70000001816E+02 0.  0.
        -12    1    1    2    0    0 -0.16966730539E+02 -0.44743934833E+01  0.65413282341E+01  0.18726428311E+02  0.00000000000E+00 0.  1.
         11    1    3    3    0    0  0.22100097926E+02 -0.13345265228E+02 -0.25546145767E+02  0.36319636509E+02  0.51100000000E-03 0. -1.
        -11    1    3    3    0    0  0.10297581885E+01 -0.58321926034E+01  0.15942313269E+01  0.61332247859E+01  0.51100000000E-03 0.  1.
        -12    1    3    3    0    0 -0.61631255754E+01  0.23651851315E+02  0.17410586206E+02  0.30008710394E+02  0.00000000000E+00 0.  1.
</event>
<event>
 7    1  0.2809593E-013  0.7246156E+02  0.7816164E-02  0.1226708E+00
        -11   -1    0    0    0    0  0.00000000000E+00  0.00000000000E+00  0.45593999997E+02  0.45594000000E+02  0.51100000000E-03 0. -1.
         11   -1    0    0    0    0 -0.00000000000E+00 -0.00000000000E+00 -0.45593999997E+02  0.45594000000E+02  0.51100000000E-03 0.  1.
    9900012    2    1    2    0    0 -0.16480941091E+02  0.85733987007E+01  0.23569196339E+01  0.72461557340E+02  0.69999983125E+02 0.  0.
        -12    1    1    2    0    0  0.16480941091E+02 -0.85733987007E+01 -0.23569196339E+01  0.18726442660E+02  0.00000000000E+00 0.  1.
         11    1    3    3    0    0 -0.23635173680E+02  0.15043590389E+02  0.16343636637E+02  0.32435250970E+02  0.51100000000E-03 0. -1.
        -11    1    3    3    0    0  0.10511923699E+02 -0.11225576846E+02  0.79626254913E+01  0.17318126930E+02  0.51100000000E-03 0.  1.
        -12    1    3    3    0    0 -0.33576911107E+01  0.47553851572E+01 -0.21949342494E+02  0.22708179441E+02  0.00000000000E+00 0.  1.
</event>
<event>
 7    1  0.2809593E-013  0.7246170E+02  0.7816164E-02  0.1226708E+00
        -11   -1    0    0    0    0  0.00000000000E+00  0.00000000000E+00  0.45593999997E+02  0.45594000000E+02  0.51100000000E-03 0. -1.
         11   -1    0    0    0    0 -0.00000000000E+00 -0.00000000000E+00 -0.45593999997E+02  0.45594000000E+02  0.51100000000E-03 0.  1.
    9900012    2    1    2    0    0 -0.45943802559E+01 -0.15739747209E+02  0.90457926398E+01  0.72461699334E+02  0.70000168098E+02 0.  0.
        -12    1    1    2    0    0  0.45943802559E+01  0.15739747209E+02 -0.90457926398E+01  0.18726300666E+02  0.00000000000E+00 0.  1.
         11    1    3    3    0    0  0.93342907981E+01 -0.41193597178E+01 -0.50925005504E+01  0.11403143045E+02  0.51100000000E-03 0. -1.
        -11    1    3    3    0    0  0.87223173100E+01 -0.28106487350E+02  0.14997685560E+02  0.33030047273E+02  0.51100000000E-03 0.  1.
         12    1    3    3    0    0 -0.22650988364E+02  0.16486099859E+02 -0.85939237016E+00  0.28028509016E+02  0.00000000000E+00 0. -1.
</event>
<event>
 7    1  0.2809593E-013  0.7246161E+02  0.7816164E-02  0.1226708E+00
        -11   -1    0    0    0    0  0.00000000000E+00  0.00000000000E+00  0.45593999997E+02  0.45594000000E+02  0.51100000000E-03 0.  1.
         11   -1    0    0    0    0 -0.00000000000E+00 -0.00000000000E+00 -0.45593999997E+02  0.45594000000E+02  0.51100000000E-03 0. -1.
    9900012    2    1    2    0    0 -0.37323818072E+01  0.17890719895E+02  0.40828047338E+01  0.72461606145E+02  0.70000046702E+02 0.  0.
        -12    1    1    2    0    0  0.37323818072E+01 -0.17890719895E+02 -0.40828047338E+01  0.18726393855E+02  0.00000000000E+00 0.  1.
         11    1    3    3    0    0 -0.17792945911E+01  0.19063391941E+02 -0.12495418027E+02  0.22862945424E+02  0.51100000000E-03 0. -1.
        -11    1    3    3    0    0 -0.18610745851E+02 -0.39154330380E+01 -0.72866361585E+01  0.20366284486E+02  0.51100000000E-03 0.  1.
        -12    1    3    3    0    0  0.16657658635E+02  0.27427609927E+01  0.23864858919E+02  0.29232376234E+02  0.00000000000E+00 0.  1.
</event>
<event>
 8    1  0.2809593E-013  0.7246155E+02  0.7816164E-02  0.1226708E+00
        -11   -1    0    0    0    0  0.00000000000E+00  0.00000000000E+00  0.45593999997E+02  0.45594000000E+02  0.51100000000E-03 0. -1.
         11   -1    0    0    0    0 -0.00000000000E+00 -0.00000000000E+00 -0.45593999997E+02  0.45594000000E+02  0.51100000000E-03 0.  1.
    9900012    2    1    2    0    0  0.12428482928E+02  0.11248824183E+02  0.83472614198E+01  0.72461547944E+02  0.69999970884E+02 0.  0.
         23    2    3    3    0    0  0.17907128848E+02  0.16266550827E+02  0.15135439436E+02  0.62398123946E+02  0.55490345158E+02 0.  0.
        -12    1    1    2    0    0 -0.12428482928E+02 -0.11248824183E+02 -0.83472614198E+01  0.18726452056E+02  0.00000000000E+00 0.  1.
         11    1    4    4    0    0  0.22273862264E+02  0.34812920224E+02  0.12402724931E+02  0.43149645893E+02  0.51100000000E-03 0.  1.
        -11    1    4    4    0    0 -0.43667334164E+01 -0.18546369397E+02  0.27327145051E+01  0.19248478054E+02  0.51100000000E-03 0. -1.
        -12    1    3    3    0    0 -0.54786459198E+01 -0.50177266433E+01 -0.67881780159E+01  0.10063423998E+02  0.00000000000E+00 0.  1.
</event>
<event>
 7    1  0.2809593E-013  0.7246157E+02  0.7816164E-02  0.1226708E+00
        -11   -1    0    0    0    0  0.00000000000E+00  0.00000000000E+00  0.45593999997E+02  0.45594000000E+02  0.51100000000E-03 0.  1.
         11   -1    0    0    0    0 -0.00000000000E+00 -0.00000000000E+00 -0.45593999997E+02  0.45594000000E+02  0.51100000000E-03 0. -1.
    9900012    2    1    2    0    0  0.60119112685E+01 -0.17668870691E+02 -0.15320563179E+01  0.72461567741E+02  0.69999996674E+02 0.  0.
        -12    1    1    2    0    0 -0.60119112685E+01  0.17668870691E+02  0.15320563179E+01  0.18726432259E+02  0.00000000000E+00 0.  1.
         11    1    3    3    0    0 -0.10832168530E+02  0.11046119709E+02  0.10534623356E+02  0.18717129192E+02  0.51100000000E-03 0. -1.
        -11    1    3    3    0    0  0.21637844676E+02  0.13918649615E+00  0.11035827660E+01  0.21666416184E+02  0.51100000000E-03 0.  1.
         12    1    3    3    0    0 -0.47937648776E+01 -0.28854176896E+02 -0.13170262440E+02  0.32078022364E+02  0.00000000000E+00 0. -1.
</event>
<event>
 7    1  0.2809593E-013  0.7246160E+02  0.7816164E-02  0.1226708E+00
        -11   -1    0    0    0    0  0.00000000000E+00  0.00000000000E+00  0.45593999997E+02  0.45594000000E+02  0.51100000000E-03 0.  1.
         11   -1    0    0    0    0 -0.00000000000E+00 -0.00000000000E+00 -0.45593999997E+02  0.45594000000E+02  0.51100000000E-03 0. -1.
    9900012    2    1    2    0    0  0.56152246425E+01  0.16344663137E+02 -0.72110478418E+01  0.72461602273E+02  0.70000041658E+02 0.  0.
        -12    1    1    2    0    0 -0.56152246425E+01 -0.16344663137E+02  0.72110478418E+01  0.18726397727E+02  0.00000000000E+00 0.  1.
         11    1    3    3    0    0  0.16079544637E+02  0.31826923059E+02 -0.94302545916E+00  0.35670633362E+02  0.51100000000E-03 0. -1.
        -11    1    3    3    0    0 -0.10474432812E+02  0.68168825307E+01 -0.72904639235E+01  0.14468396409E+02  0.51100000000E-03 0.  1.
        -12    1    3    3    0    0  0.10112818000E-01 -0.22299142453E+02  0.10224415409E+01  0.22322572502E+02  0.00000000000E+00 0.  1.
</event>
<event>
 7    1  0.2809593E-013  0.7246156E+02  0.7816164E-02  0.1226708E+00
        -11   -1    0    0    0    0  0.00000000000E+00  0.00000000000E+00  0.45593999997E+02  0.45594000000E+02  0.51100000000E-03 0.  1.
         11   -1    0    0    0    0 -0.00000000000E+00 -0.00000000000E+00 -0.45593999997E+02  0.45594000000E+02  0.51100000000E-03 0. -1.
    9900012    2    1    2    0    0  0.11571708754E+02  0.14408796232E+02  0.30268314425E+01  0.72461559843E+02  0.69999986385E+02 0.  0.
        -12    1    1    2    0    0 -0.11571708754E+02 -0.14408796232E+02 -0.30268314425E+01  0.18726440157E+02  0.00000000000E+00 0.  1.
         11    1    3    3    0    0  0.15721282051E+02  0.98897132140E+01 -0.13574779813E+02  0.23005212105E+02  0.51100000000E-03 0. -1.
        -11    1    3    3    0    0 -0.10890397823E+02 -0.10538759124E+02 -0.99982221038E+01  0.18155733367E+02  0.51100000000E-03 0.  1.
         12    1    3    3    0    0  0.67408245269E+01  0.15057842142E+02  0.26599833359E+02  0.31300614371E+02  0.00000000000E+00 0. -1.
</event>
<event>
 7    1  0.2809593E-013  0.7246156E+02  0.7816164E-02  0.1226708E+00
        -11   -1    0    0    0    0  0.00000000000E+00  0.00000000000E+00  0.45593999997E+02  0.45594000000E+02  0.51100000000E-03 0.  1.
         11   -1    0    0    0    0 -0.00000000000E+00 -0.00000000000E+00 -0.45593999997E+02  0.45594000000E+02  0.51100000000E-03 0. -1.
    9900012    2    1    2    0    0 -0.17914185301E+02  0.14409118997E+01  0.52616726849E+01  0.72461562498E+02  0.69999989843E+02 0.  0.
        -12    1    1    2    0    0  0.17914185301E+02 -0.14409118997E+01 -0.52616726849E+01  0.18726437502E+02  0.00000000000E+00 0.  1.
         11    1    3    3    0    0 -0.10927149098E+02  0.42675818193E+01 -0.14249492560E+02  0.18457055032E+02  0.51100000000E-03 0. -1.
        -11    1    3    3    0    0  0.33793609152E+01  0.20590431553E+02 -0.14422818726E+01  0.20915690976E+02  0.51100000000E-03 0.  1.
        -12    1    3    3    0    0 -0.10366397118E+02 -0.23417101473E+02  0.20953447117E+02  0.33088816490E+02  0.00000000000E+00 0.  1.
</event>
<event>
 7    1  0.2809593E-013  0.7246153E+02  0.7816164E-02  0.1226708E+00
        -11   -1    0    0    0    0  0.00000000000E+00  0.00000000000E+00  0.45593999997E+02  0.45594000000E+02  0.51100000000E-03 0.  1.
         11   -1    0    0    0    0 -0.00000000000E+00 -0.00000000000E+00 -0.45593999997E+02  0.45594000000E+02  0.51100000000E-03 0. -1.
    9900012    2    1    2    0    0  0.15247236446E+01 -0.84062347385E+01 -0.16664069208E+02  0.72461527635E+02  0.69999944428E+02 0.  0.
        -12    1    1    2    0    0 -0.15247236446E+01  0.84062347385E+01  0.16664069208E+02  0.18726472365E+02  0.00000000000E+00 0.  1.
         11    1    3    3    0    0  0.70332796317E+01  0.14352264766E+00 -0.90318202457E+01  0.11448205027E+02  0.51100000000E-03 0. -1.
        -11    1    3    3    0    0  0.18873991599E+02  0.16254338732E+02 -0.82112910982E+01  0.26227016382E+02  0.51100000000E-03 0.  1.
         12    1    3    3    0    0 -0.24382547587E+02 -0.24804096119E+02  0.57904213579E+00  0.34786306226E+02  0.00000000000E+00 0. -1.
</event>
<event>
 7    1  0.2809593E-013  0.7246159E+02  0.7816164E-02  0.1226708E+00
        -11   -1    0    0    0    0  0.00000000000E+00  0.00000000000E+00  0.45593999997E+02  0.45594000000E+02  0.51100000000E-03 0.  1.
         11   -1    0    0    0    0 -0.00000000000E+00 -0.00000000000E+00 -0.45593999997E+02  0.45594000000E+02  0.51100000000E-03 0. -1.
    9900012    2    1    2    0    0  0.12388246370E+02  0.14041500703E+02  0.21500616609E+00  0.72461585026E+02  0.70000019191E+02 0.  0.
        -12    1    1    2    0    0 -0.12388246370E+02 -0.14041500703E+02 -0.21500616609E+00  0.18726414974E+02  0.00000000000E+00 0.  1.
         11    1    3    3    0    0 -0.10215344637E+02  0.89149003588E+01  0.20619887084E+02  0.24678096727E+02  0.51100000000E-03 0. -1.
        -11    1    3    3    0    0  0.21463878994E+02 -0.61634992893E+01  0.22512396061E+01  0.22444484957E+02  0.51100000000E-03 0.  1.
         12    1    3    3    0    0  0.11397120137E+01  0.11290099634E+02 -0.22656120524E+02  0.25339003342E+02  0.00000000000E+00 0. -1.
</event>
<event>
 7    1  0.2809593E-013  0.7246154E+02  0.7816164E-02  0.1226708E+00
        -11   -1    0    0    0    0  0.00000000000E+00  0.00000000000E+00  0.45593999997E+02  0.45594000000E+02  0.51100000000E-03 0.  1.
         11   -1    0    0    0    0 -0.00000000000E+00 -0.00000000000E+00 -0.45593999997E+02  0.45594000000E+02  0.51100000000E-03 0. -1.
    9900012    2    1    2    0    0  0.18680229454E+02 -0.10665338198E+01  0.76935598032E+00  0.72461538095E+02  0.69999958054E+02 0.  0.
        -12    1    1    2    0    0 -0.18680229454E+02  0.10665338198E+01 -0.76935598032E+00  0.18726461905E+02  0.00000000000E+00 0.  1.
         11    1    3    3    0    0 -0.89459270871E+01  0.33094954909E+01  0.69934302221E+00  0.95640709311E+01  0.51100000000E-03 0. -1.
        -11    1    3    3    0    0  0.61484178660E+01  0.12087935244E+02  0.23479917234E+02  0.27115083151E+02  0.51100000000E-03 0.  1.
         12    1    3    3    0    0  0.21477738675E+02 -0.16463964555E+02 -0.23409904276E+02  0.35782384013E+02  0.00000000000E+00 0. -1.
</event>
<event>
 7    1  0.2809593E-013  0.7246103E+02  0.7816164E-02  0.1226709E+00
        -11   -1    0    0    0    0  0.00000000000E+00  0.00000000000E+00  0.45593999997E+02  0.45594000000E+02  0.51100000000E-03 0. -1.
         11   -1    0    0    0    0 -0.00000000000E+00 -0.00000000000E+00 -0.45593999997E+02  0.45594000000E+02  0.51100000000E-03 0.  1.
    9900012    2    1    2    0    0  0.93124006079E+01 -0.80149553281E+01  0.14132905833E+02  0.72461031712E+02  0.69999298393E+02 0.  0.
        -12    1    1    2    0    0 -0.93124006079E+01  0.80149553281E+01 -0.14132905833E+02  0.18726968288E+02  0.00000000000E+00 0.  1.
         11    1    3    3    0    0 -0.22529195454E+01 -0.13878799147E+02  0.33423163678E+01  0.14452259035E+02  0.51100000000E-03 0. -1.
        -11    1    3    3    0    0  0.14427517725E+01 -0.22372274566E+02  0.16028328290E+02  0.27559163811E+02  0.51100000000E-03 0.  1.
        -12    1    3    3    0    0  0.10122568381E+02  0.28236118385E+02 -0.52377388249E+01  0.30449608866E+02  0.00000000000E+00 0.  1.
</event>
<event>
 7    1  0.2809593E-013  0.7246157E+02  0.7816164E-02  0.1226708E+00
        -11   -1    0    0    0    0  0.00000000000E+00  0.00000000000E+00  0.45593999997E+02  0.45594000000E+02  0.51100000000E-03 0.  1.
         11   -1    0    0    0    0 -0.00000000000E+00 -0.00000000000E+00 -0.45593999997E+02  0.45594000000E+02  0.51100000000E-03 0. -1.
    9900012    2    1    2    0    0 -0.11043558919E+02 -0.30319611083E+00 -0.15120414993E+02  0.72461572924E+02  0.70000003425E+02 0.  0.
        -12    1    1    2    0    0  0.11043558919E+02  0.30319611083E+00  0.15120414993E+02  0.18726427076E+02  0.00000000000E+00 0.  1.
         11    1    3    3    0    0 -0.81624829030E+01 -0.14732250493E+02 -0.11533794790E+02  0.20413078020E+02  0.51100000000E-03 0. -1.
        -11    1    3    3    0    0 -0.54486501640E+01 -0.64448254789E+01  0.19240490261E+02  0.21009998329E+02  0.51100000000E-03 0.  1.
        -12    1    3    3    0    0  0.25675741482E+01  0.20873879861E+02 -0.22827110464E+02  0.31038496575E+02  0.00000000000E+00 0.  1.
</event>
<event>
 7    1  0.2809593E-013  0.7246158E+02  0.7816164E-02  0.1226708E+00
        -11   -1    0    0    0    0  0.00000000000E+00  0.00000000000E+00  0.45593999997E+02  0.45594000000E+02  0.51100000000E-03 0. -1.
         11   -1    0    0    0    0 -0.00000000000E+00 -0.00000000000E+00 -0.45593999997E+02  0.45594000000E+02  0.51100000000E-03 0.  1.
    9900012    2    1    2    0    0 -0.16312400850E+02  0.73615026997E+00 -0.91674579463E+01  0.72461584863E+02  0.70000018978E+02 0.  0.
        -12    1    1    2    0    0  0.16312400850E+02 -0.73615026997E+00  0.91674579463E+01  0.18726415137E+02  0.00000000000E+00 0.  1.
         11    1    3    3    0    0 -0.22676884360E+02  0.15525057211E+02  0.16863381767E+01  0.27533837771E+02  0.51100000000E-03 0. -1.
        -11    1    3    3    0    0 -0.13193519176E+02  0.64461299306E+01 -0.46119021637E+01  0.15391269641E+02  0.51100000000E-03 0.  1.
        -12    1    3    3    0    0  0.19558002686E+02 -0.21235036872E+02 -0.62418939593E+01  0.29536477451E+02  0.00000000000E+00 0.  1.
</event>
<event>
 7    1  0.2809593E-013  0.7246167E+02  0.7816164E-02  0.1226708E+00
        -11   -1    0    0    0    0  0.00000000000E+00  0.00000000000E+00  0.45593999997E+02  0.45594000000E+02  0.51100000000E-03 0.  1.
         11   -1    0    0    0    0 -0.00000000000E+00 -0.00000000000E+00 -0.45593999997E+02  0.45594000000E+02  0.51100000000E-03 0. -1.
    9900012    2    1    2    0    0  0.10887990788E+02 -0.44311644294E+01 -0.14577107263E+02  0.72461665127E+02  0.70000123538E+02 0.  0.
        -12    1    1    2    0    0 -0.10887990788E+02  0.44311644294E+01  0.14577107263E+02  0.18726334873E+02  0.00000000000E+00 0.  1.
         11    1    3    3    0    0 -0.25213437214E+02  0.91854617336E+01 -0.66516210815E+01  0.27646594486E+02  0.51100000000E-03 0. -1.
        -11    1    3    3    0    0  0.44065702508E+01  0.31276035981E+01  0.43378598471E+01  0.69294151237E+01  0.51100000000E-03 0.  1.
        -12    1    3    3    0    0  0.31694857752E+02 -0.16744229761E+02 -0.12263346029E+02  0.37885655518E+02  0.00000000000E+00 0.  1.
</event>
<event>
 7    1  0.2809593E-013  0.7246166E+02  0.7816164E-02  0.1226708E+00
        -11   -1    0    0    0    0  0.00000000000E+00  0.00000000000E+00  0.45593999997E+02  0.45594000000E+02  0.51100000000E-03 0. -1.
         11   -1    0    0    0    0 -0.00000000000E+00 -0.00000000000E+00 -0.45593999997E+02  0.45594000000E+02  0.51100000000E-03 0.  1.
    9900012    2    1    2    0    0  0.54887270064E-02 -0.15154210448E+02  0.11001174058E+02  0.72461656121E+02  0.70000111805E+02 0.  0.
        -12    1    1    2    0    0 -0.54887270064E-02  0.15154210448E+02 -0.11001174058E+02  0.18726343879E+02  0.00000000000E+00 0.  1.
         11    1    3    3    0    0 -0.12178080275E+02 -0.30296213035E+01  0.14775826030E+02  0.19385800978E+02  0.51100000000E-03 0. -1.
        -11    1    3    3    0    0 -0.14041899812E+02 -0.16429926628E+02 -0.12666732796E+02  0.25051218719E+02  0.51100000000E-03 0.  1.
        -12    1    3    3    0    0  0.26225468813E+02  0.43053374836E+01  0.88920808229E+01  0.28024636424E+02  0.00000000000E+00 0.  1.
</event>
<event>
 7    1  0.2809593E-013  0.7246157E+02  0.7816164E-02  0.1226708E+00
        -11   -1    0    0    0    0  0.00000000000E+00  0.00000000000E+00  0.45593999997E+02  0.45594000000E+02  0.51100000000E-03 0.  1.
         11   -1    0    0    0    0 -0.00000000000E+00 -0.00000000000E+00 -0.45593999997E+02  0.45594000000E+02  0.51100000000E-03 0. -1.
    9900012    2    1    2    0    0 -0.11886194496E+02 -0.21986829222E+01 -0.14302561932E+02  0.72461572043E+02  0.70000002278E+02 0.  0.
        -12    1    1    2    0    0  0.11886194496E+02  0.21986829222E+01  0.14302561932E+02  0.18726427957E+02  0.00000000000E+00 0.  1.
         11    1    3    3    0    0  0.60140159656E+00 -0.10706396675E+02 -0.12832793363E+02  0.16723313051E+02  0.51100000000E-03 0. -1.
        -11    1    3    3    0    0 -0.17986876905E+02 -0.15163232420E+02  0.13570672438E+02  0.27159059426E+02  0.51100000000E-03 0.  1.
        -12    1    3    3    0    0  0.54992808118E+01  0.23670946173E+02 -0.15040441007E+02  0.28579199566E+02  0.00000000000E+00 0.  1.
</event>
<event>
 7    1  0.2809593E-013  0.7246147E+02  0.7816164E-02  0.1226708E+00
        -11   -1    0    0    0    0  0.00000000000E+00  0.00000000000E+00  0.45593999997E+02  0.45594000000E+02  0.51100000000E-03 0. -1.
         11   -1    0    0    0    0 -0.00000000000E+00 -0.00000000000E+00 -0.45593999997E+02  0.45594000000E+02  0.51100000000E-03 0.  1.
    9900012    2    1    2    0    0  0.12083720153E+02 -0.36237611262E+01  0.13839610634E+02  0.72461474430E+02  0.69999875118E+02 0.  0.
        -12    1    1    2    0    0 -0.12083720153E+02  0.36237611262E+01 -0.13839610634E+02  0.18726525570E+02  0.00000000000E+00 0.  1.
         11    1    3    3    0    0 -0.78972280969E+01 -0.71131345994E+01 -0.69588555484E+01  0.12703879968E+02  0.51100000000E-03 0. -1.
        -11    1    3    3    0    0 -0.16397924308E+02 -0.65111917863E+01  0.10949412860E+02  0.20764806340E+02  0.51100000000E-03 0.  1.
         12    1    3    3    0    0  0.36378872558E+02  0.10000565259E+02  0.98490533229E+01  0.38992788121E+02  0.00000000000E+00 0. -1.
</event>
<event>
 7    1  0.2809593E-013  0.7246155E+02  0.7816164E-02  0.1226708E+00
        -11   -1    0    0    0    0  0.00000000000E+00  0.00000000000E+00  0.45593999997E+02  0.45594000000E+02  0.51100000000E-03 0.  1.
         11   -1    0    0    0    0 -0.00000000000E+00 -0.00000000000E+00 -0.45593999997E+02  0.45594000000E+02  0.51100000000E-03 0. -1.
    9900012    2    1    2    0    0 -0.10330961468E+02  0.11105418034E+02  0.10982748374E+02  0.72461552488E+02  0.69999976804E+02 0.  0.
        -12    1    1    2    0    0  0.10330961468E+02 -0.11105418034E+02 -0.10982748374E+02  0.18726447512E+02  0.00000000000E+00 0.  1.
         11    1    3    3    0    0 -0.19249257407E+02 -0.14151365940E+02 -0.25680492205E+01  0.24028939755E+02  0.51100000000E-03 0. -1.
        -11    1    3    3    0    0 -0.18002574716E+01 -0.53684483287E+01 -0.77652131772E+01  0.96103954326E+01  0.51100000000E-03 0.  1.
        -12    1    3    3    0    0  0.10718553410E+02  0.30625232304E+02  0.21316010772E+02  0.38822217300E+02  0.00000000000E+00 0.  1.
</event>
<event>
 7    1  0.2809593E-013  0.7246158E+02  0.7816164E-02  0.1226708E+00
        -11   -1    0    0    0    0  0.00000000000E+00  0.00000000000E+00  0.45593999997E+02  0.45594000000E+02  0.51100000000E-03 0.  1.
         11   -1    0    0    0    0 -0.00000000000E+00 -0.00000000000E+00 -0.45593999997E+02  0.45594000000E+02  0.51100000000E-03 0. -1.
    9900012    2    1    2    0    0  0.16923438102E+02 -0.60773975715E+01  0.52289027546E+01  0.72461576357E+02  0.70000007898E+02 0.  0.
        -12    1    1    2    0    0 -0.16923438102E+02  0.60773975715E+01 -0.52289027546E+01  0.18726423643E+02  0.00000000000E+00 0.  1.
         11    1    3    3    0    0  0.22008697071E+01 -0.58207922673E+01 -0.57486951774E+01  0.84718915591E+01  0.51100000000E-03 0. -1.
        -11    1    3    3    0    0  0.77340892300E+01 -0.29445091640E+02 -0.35409277397E+01  0.30649106470E+02  0.51100000000E-03 0.  1.
         12    1    3    3    0    0  0.69884791647E+01  0.29188486335E+02  0.14518525672E+02  0.33340578328E+02  0.00000000000E+00 0. -1.
</event>
<event>
 7    1  0.2809593E-013  0.7246163E+02  0.7816164E-02  0.1226708E+00
        -11   -1    0    0    0    0  0.00000000000E+00  0.00000000000E+00  0.45593999997E+02  0.45594000000E+02  0.51100000000E-03 0.  1.
         11   -1    0    0    0    0 -0.00000000000E+00 -0.00000000000E+00 -0.45593999997E+02  0.45594000000E+02  0.51100000000E-03 0. -1.
    9900012    2    1    2    0    0  0.18472945163E+02  0.23787061967E+01  0.19414043437E+01  0.72461628301E+02  0.70000075565E+02 0.  0.
        -12    1    1    2    0    0 -0.18472945163E+02 -0.23787061967E+01 -0.19414043437E+01  0.18726371699E+02  0.00000000000E+00 0.  1.
         11    1    3    3    0    0 -0.66487444394E+01 -0.24939218141E+02  0.29043871119E+01  0.25973175949E+02  0.51100000000E-03 0. -1.
        -11    1    3    3    0    0  0.16316461760E+02  0.34905465223E+01  0.92871160249E+01  0.19096108601E+02  0.51100000000E-03 0.  1.
        -12    1    3    3    0    0  0.88052278430E+01  0.23827377815E+02 -0.10250098793E+02  0.27392343751E+02  0.00000000000E+00 0.  1.
</event>
<event>
 7    1  0.2809593E-013  0.7246156E+02  0.7816164E-02  0.1226708E+00
        -11   -1    0    0    0    0  0.00000000000E+00  0.00000000000E+00  0.45593999997E+02  0.45594000000E+02  0.51100000000E-03 0. -1.
         11   -1    0    0    0    0 -0.00000000000E+00 -0.00000000000E+00 -0.45593999997E+02  0.45594000000E+02  0.51100000000E-03 0.  1.
    9900012    2    1    2    0    0 -0.14765573605E+00  0.10368302969E+02  0.15593455993E+02  0.72461564715E+02  0.69999992732E+02 0.  0.
        -12    1    1    2    0    0  0.14765573605E+00 -0.10368302969E+02 -0.15593455993E+02  0.18726435285E+02  0.00000000000E+00 0.  1.
         11    1    3    3    0    0 -0.71611278773E+01 -0.19442041661E+02  0.14862701724E+02  0.25498522295E+02  0.51100000000E-03 0. -1.
        -11    1    3    3    0    0  0.13297484900E+01 -0.30504619755E+01 -0.11092169242E+02  0.11580577191E+02  0.51100000000E-03 0.  1.
         12    1    3    3    0    0  0.56837236512E+01  0.32860806606E+02  0.11822923511E+02  0.35382465229E+02  0.00000000000E+00 0. -1.
</event>
<event>
 7    1  0.2809593E-013  0.7246157E+02  0.7816164E-02  0.1226708E+00
        -11   -1    0    0    0    0  0.00000000000E+00  0.00000000000E+00  0.45593999997E+02  0.45594000000E+02  0.51100000000E-03 0.  1.
         11   -1    0    0    0    0 -0.00000000000E+00 -0.00000000000E+00 -0.45593999997E+02  0.45594000000E+02  0.51100000000E-03 0. -1.
    9900012    2    1    2    0    0  0.13522394500E+02 -0.12947862638E+02 -0.42037711907E+00  0.72461574371E+02  0.70000005310E+02 0.  0.
        -12    1    1    2    0    0 -0.13522394500E+02  0.12947862638E+02  0.42037711907E+00  0.18726425629E+02  0.00000000000E+00 0.  1.
         11    1    3    3    0    0  0.21077118375E+02 -0.44807399664E+01 -0.15440738921E+02  0.26509212895E+02  0.51100000000E-03 0. -1.
        -11    1    3    3    0    0 -0.88541138205E+01 -0.18116702456E+02 -0.74233859408E+01  0.21487598714E+02  0.51100000000E-03 0.  1.
        -12    1    3    3    0    0  0.12993899457E+01  0.96495797837E+01  0.22443747743E+02  0.24464762761E+02  0.00000000000E+00 0.  1.
</event>
<event>
 7    1  0.2809593E-013  0.7246164E+02  0.7816164E-02  0.1226708E+00
        -11   -1    0    0    0    0  0.00000000000E+00  0.00000000000E+00  0.45593999997E+02  0.45594000000E+02  0.51100000000E-03 0. -1.
         11   -1    0    0    0    0 -0.00000000000E+00 -0.00000000000E+00 -0.45593999997E+02  0.45594000000E+02  0.51100000000E-03 0.  1.
    9900012    2    1    2    0    0 -0.33032274979E+01 -0.15412588583E+02  0.10110265526E+02  0.72461637092E+02  0.70000087017E+02 0.  0.
        -12    1    1    2    0    0  0.33032274979E+01  0.15412588583E+02 -0.10110265526E+02  0.18726362908E+02  0.00000000000E+00 0.  1.
         11    1    3    3    0    0 -0.19664979504E+02 -0.24984852690E+01  0.47461808889E+01  0.20383328502E+02  0.51100000000E-03 0. -1.
        -11    1    3    3    0    0  0.52260165027E+01 -0.30488378828E+02  0.19466531645E+01  0.30994224476E+02  0.51100000000E-03 0.  1.
        -12    1    3    3    0    0  0.11135735504E+02  0.17574275514E+02  0.34174314729E+01  0.21084084114E+02  0.00000000000E+00 0.  1.
</event>
<event>
 7    1  0.2809593E-013  0.7246158E+02  0.7816164E-02  0.1226708E+00
        -11   -1    0    0    0    0  0.00000000000E+00  0.00000000000E+00  0.45593999997E+02  0.45594000000E+02  0.51100000000E-03 0. -1.
         11   -1    0    0    0    0 -0.00000000000E+00 -0.00000000000E+00 -0.45593999997E+02  0.45594000000E+02  0.51100000000E-03 0.  1.
    9900012    2    1    2    0    0  0.61315709094E+01 -0.10564075680E+02  0.14194468615E+02  0.72461580266E+02  0.70000012990E+02 0.  0.
        -12    1    1    2    0    0 -0.61315709094E+01  0.10564075680E+02 -0.14194468615E+02  0.18726419734E+02  0.00000000000E+00 0.  1.
         11    1    3    3    0    0  0.30680424751E+01 -0.14319672521E+02  0.15344436896E+02  0.21211262330E+02  0.51100000000E-03 0. -1.
        -11    1    3    3    0    0  0.34409231053E+01  0.23232858479E+02  0.13304228532E+02  0.26992742766E+02  0.51100000000E-03 0.  1.
         12    1    3    3    0    0 -0.37739467096E+00 -0.19477261638E+02 -0.14454196812E+02  0.24257575170E+02  0.00000000000E+00 0. -1.
</event>
<event>
 7    1  0.2809593E-013  0.7246154E+02  0.7816164E-02  0.1226708E+00
        -11   -1    0    0    0    0  0.00000000000E+00  0.00000000000E+00  0.45593999997E+02  0.45594000000E+02  0.51100000000E-03 0. -1.
         11   -1    0    0    0    0 -0.00000000000E+00 -0.00000000000E+00 -0.45593999997E+02  0.45594000000E+02  0.51100000000E-03 0.  1.
    9900012    2    1    2    0    0  0.18160634504E+02 -0.87401912669E+00  0.44841489507E+01  0.72461544200E+02  0.69999966008E+02 0.  0.
        -12    1    1    2    0    0 -0.18160634504E+02  0.87401912669E+00 -0.44841489507E+01  0.18726455800E+02  0.00000000000E+00 0.  1.
         11    1    3    3    0    0  0.25570476010E+02  0.11991683781E+02  0.82682304705E+01  0.29428104911E+02  0.51100000000E-03 0. -1.
        -11    1    3    3    0    0 -0.28867906735E-01 -0.21431582270E+01 -0.21190079712E+02  0.21298202718E+02  0.51100000000E-03 0.  1.
        -12    1    3    3    0    0 -0.73809736001E+01 -0.10722544681E+02  0.17405998192E+02  0.21735236571E+02  0.00000000000E+00 0.  1.
</event>
<event>
 7    1  0.2809593E-013  0.7246159E+02  0.7816164E-02  0.1226708E+00
        -11   -1    0    0    0    0  0.00000000000E+00  0.00000000000E+00  0.45593999997E+02  0.45594000000E+02  0.51100000000E-03 0.  1.
         11   -1    0    0    0    0 -0.00000000000E+00 -0.00000000000E+00 -0.45593999997E+02  0.45594000000E+02  0.51100000000E-03 0. -1.
    9900012    2    1    2    0    0  0.24036039610E+01  0.91019371704E+00 -0.18549200723E+02  0.72461585178E+02  0.70000019389E+02 0.  0.
        -12    1    1    2    0    0 -0.24036039610E+01 -0.91019371704E+00  0.18549200723E+02  0.18726414822E+02  0.00000000000E+00 0.  1.
         11    1    3    3    0    0  0.47354898029E+01 -0.83318248833E+01 -0.86444078817E+01  0.12906198412E+02  0.51100000000E-03 0. -1.
        -11    1    3    3    0    0  0.12785405837E+02 -0.19577641486E+02 -0.13189558051E+02  0.26846137346E+02  0.51100000000E-03 0.  1.
         12    1    3    3    0    0 -0.15117291679E+02  0.28819660086E+02  0.32847652099E+01  0.32709249421E+02  0.00000000000E+00 0. -1.
</event>
<event>
 7    1  0.2809593E-013  0.7246155E+02  0.7816164E-02  0.1226708E+00
        -11   -1    0    0    0    0  0.00000000000E+00  0.00000000000E+00  0.45593999997E+02  0.45594000000E+02  0.51100000000E-03 0.  1.
         11   -1    0    0    0    0 -0.00000000000E+00 -0.00000000000E+00 -0.45593999997E+02  0.45594000000E+02  0.51100000000E-03 0. -1.
    9900012    2    1    2    0    0  0.46982572963E+01  0.16231605328E+02  0.80710237047E+01  0.72461546604E+02  0.69999969139E+02 0.  0.
        -12    1    1    2    0    0 -0.46982572963E+01 -0.16231605328E+02 -0.80710237047E+01  0.18726453396E+02  0.00000000000E+00 0.  1.
         11    1    3    3    0    0  0.14225401307E+01  0.15946733571E+02 -0.11731859834E+02  0.19848387023E+02  0.51100000000E-03 0. -1.
        -11    1    3    3    0    0 -0.16941828075E+02 -0.11676004697E+02 -0.18588842608E+01  0.20659382255E+02  0.51100000000E-03 0.  1.
        -12    1    3    3    0    0  0.20217545241E+02  0.11960876455E+02  0.21661767800E+02  0.31953777325E+02  0.00000000000E+00 0.  1.
</event>
<event>
 7    1  0.2809593E-013  0.7246159E+02  0.7816164E-02  0.1226708E+00
        -11   -1    0    0    0    0  0.00000000000E+00  0.00000000000E+00  0.45593999997E+02  0.45594000000E+02  0.51100000000E-03 0. -1.
         11   -1    0    0    0    0 -0.00000000000E+00 -0.00000000000E+00 -0.45593999997E+02  0.45594000000E+02  0.51100000000E-03 0.  1.
    9900012    2    1    2    0    0 -0.10355050448E+02  0.13538952862E+02  0.77555148626E+01  0.72461592839E+02  0.70000029368E+02 0.  0.
        -12    1    1    2    0    0  0.10355050448E+02 -0.13538952862E+02 -0.77555148626E+01  0.18726407161E+02  0.00000000000E+00 0.  1.
         11    1    3    3    0    0  0.67067730486E+01  0.82252162677E+00 -0.11878758390E+02  0.13666098481E+02  0.51100000000E-03 0. -1.
        -11    1    3    3    0    0  0.75016136429E+00 -0.10778838848E+02 -0.11593732236E+02  0.15848051502E+02  0.51100000000E-03 0.  1.
         12    1    3    3    0    0 -0.17811984860E+02  0.23495270084E+02  0.31228005489E+02  0.42947442855E+02  0.00000000000E+00 0. -1.
</event>
<event>
 7    1  0.2809593E-013  0.7246155E+02  0.7816164E-02  0.1226708E+00
        -11   -1    0    0    0    0  0.00000000000E+00  0.00000000000E+00  0.45593999997E+02  0.45594000000E+02  0.51100000000E-03 0. -1.
         11   -1    0    0    0    0 -0.00000000000E+00 -0.00000000000E+00 -0.45593999997E+02  0.45594000000E+02  0.51100000000E-03 0.  1.
    9900012    2    1    2    0    0 -0.94124683009E+01 -0.13507090870E+02  0.89243349005E+01  0.72461553014E+02  0.69999977490E+02 0.  0.
        -12    1    1    2    0    0  0.94124683009E+01  0.13507090870E+02 -0.89243349005E+01  0.18726446986E+02  0.00000000000E+00 0.  1.
         11    1    3    3    0    0  0.25909605635E+01  0.21477442399E+01  0.77808512485E+01  0.84774718150E+01  0.51100000000E-03 0. -1.
        -11    1    3    3    0    0 -0.12088085523E+02  0.22119746306E+02 -0.50413777519E+01  0.25706428731E+02  0.51100000000E-03 0.  1.
         12    1    3    3    0    0  0.84656658248E-01 -0.37774581416E+02  0.61848614039E+01  0.38277652468E+02  0.00000000000E+00 0. -1.
</event>
<event>
 7    1  0.2809593E-013  0.7246154E+02  0.7816164E-02  0.1226708E+00
        -11   -1    0    0    0    0  0.00000000000E+00  0.00000000000E+00  0.45593999997E+02  0.45594000000E+02  0.51100000000E-03 0. -1.
         11   -1    0    0    0    0 -0.00000000000E+00 -0.00000000000E+00 -0.45593999997E+02  0.45594000000E+02  0.51100000000E-03 0.  1.
    9900012    2    1    2    0    0  0.13977043975E+02  0.11301062846E+02  0.52543855856E+01  0.72461538839E+02  0.69999959024E+02 0.  0.
        -12    1    1    2    0    0 -0.13977043975E+02 -0.11301062846E+02 -0.52543855856E+01  0.18726461161E+02  0.00000000000E+00 0.  1.
         11    1    3    3    0    0 -0.25113694519E+01  0.83503273946E+01  0.22649825168E+02  0.24270342488E+02  0.51100000000E-03 0. -1.
        -11    1    3    3    0    0  0.20269714934E+02  0.16673224691E+02 -0.20878170723E+02  0.33537378820E+02  0.51100000000E-03 0.  1.
         12    1    3    3    0    0 -0.37813015077E+01 -0.13722489240E+02  0.34827311411E+01  0.14653817531E+02  0.00000000000E+00 0. -1.
</event>
<event>
 7    1  0.2809593E-013  0.7246169E+02  0.7816164E-02  0.1226708E+00
        -11   -1    0    0    0    0  0.00000000000E+00  0.00000000000E+00  0.45593999997E+02  0.45594000000E+02  0.51100000000E-03 0.  1.
         11   -1    0    0    0    0 -0.00000000000E+00 -0.00000000000E+00 -0.45593999997E+02  0.45594000000E+02  0.51100000000E-03 0. -1.
    9900012    2    1    2    0    0  0.13354813657E+02  0.13898047713E+01 -0.13053427758E+02  0.72461692800E+02  0.70000159586E+02 0.  0.
        -12    1    1    2    0    0 -0.13354813657E+02 -0.13898047713E+01  0.13053427758E+02  0.18726307200E+02  0.00000000000E+00 0.  1.
         11    1    3    3    0    0  0.33141959153E+01 -0.81311492944E+01 -0.23508042189E+02  0.25094372501E+02  0.51100000000E-03 0. -1.
        -11    1    3    3    0    0  0.27204360844E+02  0.64599076302E+01  0.21146379025E+01  0.28040673123E+02  0.51100000000E-03 0.  1.
         12    1    3    3    0    0 -0.17163743102E+02  0.30610464355E+01  0.83399765281E+01  0.19326647175E+02  0.00000000000E+00 0. -1.
</event>
<event>
 7    1  0.2809593E-013  0.7246160E+02  0.7816164E-02  0.1226708E+00
        -11   -1    0    0    0    0  0.00000000000E+00  0.00000000000E+00  0.45593999997E+02  0.45594000000E+02  0.51100000000E-03 0.  1.
         11   -1    0    0    0    0 -0.00000000000E+00 -0.00000000000E+00 -0.45593999997E+02  0.45594000000E+02  0.51100000000E-03 0. -1.
    9900012    2    1    2    0    0  0.17227822375E+02 -0.63972114231E+01 -0.35994116419E+01  0.72461603071E+02  0.70000042698E+02 0.  0.
        -12    1    1    2    0    0 -0.17227822375E+02  0.63972114231E+01  0.35994116419E+01  0.18726396929E+02  0.00000000000E+00 0.  1.
         11    1    3    3    0    0  0.12533126459E+02 -0.40660178592E+01  0.12730057193E+02  0.18321193096E+02  0.51100000000E-03 0.  1.
        -11    1    3    3    0    0 -0.31138740808E+01 -0.55281529076E+01  0.17845169044E+02  0.18939555033E+02  0.51100000000E-03 0. -1.
         12    1    3    3    0    0  0.78085699964E+01  0.31969593436E+01 -0.34174637879E+02  0.35200854942E+02  0.00000000000E+00 0. -1.
</event>
<event>
 7    1  0.2809593E-013  0.7246155E+02  0.7816164E-02  0.1226708E+00
        -11   -1    0    0    0    0  0.00000000000E+00  0.00000000000E+00  0.45593999997E+02  0.45594000000E+02  0.51100000000E-03 0.  1.
         11   -1    0    0    0    0 -0.00000000000E+00 -0.00000000000E+00 -0.45593999997E+02  0.45594000000E+02  0.51100000000E-03 0. -1.
    9900012    2    1    2    0    0  0.11499858658E+02 -0.12964956837E+02 -0.70952952488E+01  0.72461546262E+02  0.69999968694E+02 0.  0.
        -12    1    1    2    0    0 -0.11499858658E+02  0.12964956837E+02  0.70952952488E+01  0.18726453738E+02  0.00000000000E+00 0.  1.
         11    1    3    3    0    0  0.12033959695E+02 -0.26467238470E+02 -0.82707983908E+01  0.30228083043E+02  0.51100000000E-03 0. -1.
        -11    1    3    3    0    0 -0.11555361861E+02 -0.10584708312E+02  0.15066309369E+01  0.15742692744E+02  0.51100000000E-03 0.  1.
         12    1    3    3    0    0  0.11021260824E+02  0.24086989945E+02 -0.33112779488E+00  0.26490770475E+02  0.00000000000E+00 0. -1.
</event>
<event>
 7    1  0.2809593E-013  0.7246164E+02  0.7816164E-02  0.1226708E+00
        -11   -1    0    0    0    0  0.00000000000E+00  0.00000000000E+00  0.45593999997E+02  0.45594000000E+02  0.51100000000E-03 0.  1.
         11   -1    0    0    0    0 -0.00000000000E+00 -0.00000000000E+00 -0.45593999997E+02  0.45594000000E+02  0.51100000000E-03 0. -1.
    9900012    2    1    2    0    0  0.12442691882E+02 -0.54416881227E+01 -0.12893570303E+02  0.72461636070E+02  0.70000085684E+02 0.  0.
        -12    1    1    2    0    0 -0.12442691882E+02  0.54416881227E+01  0.12893570303E+02  0.18726363930E+02  0.00000000000E+00 0.  1.
         11    1    3    3    0    0 -0.34638332379E+01 -0.15455117258E+02 -0.24318055097E+02  0.29021140468E+02  0.51100000000E-03 0. -1.
        -11    1    3    3    0    0 -0.12349541773E+01  0.21311497473E+02  0.49469103634E+01  0.21912940441E+02  0.51100000000E-03 0.  1.
         12    1    3    3    0    0  0.17141479297E+02 -0.11298068338E+02  0.64775744304E+01  0.21527555160E+02  0.00000000000E+00 0. -1.
</event>
<event>
 7    1  0.2809593E-013  0.7246156E+02  0.7816164E-02  0.1226708E+00
        -11   -1    0    0    0    0  0.00000000000E+00  0.00000000000E+00  0.45593999997E+02  0.45594000000E+02  0.51100000000E-03 0.  1.
         11   -1    0    0    0    0 -0.00000000000E+00 -0.00000000000E+00 -0.45593999997E+02  0.45594000000E+02  0.51100000000E-03 0. -1.
    9900012    2    1    2    0    0 -0.75614118796E+00  0.18141004000E+02 -0.45838676770E+01  0.72461558306E+02  0.69999984383E+02 0.  0.
        -12    1    1    2    0    0  0.75614118796E+00 -0.18141004000E+02  0.45838676770E+01  0.18726441694E+02  0.00000000000E+00 0.  1.
         11    1    3    3    0    0 -0.53546074820E+01  0.18827987540E+02 -0.14884021985E+02  0.24590629248E+02  0.51100000000E-03 0. -1.
        -11    1    3    3    0    0 -0.11068430146E+02  0.14154893609E+02 -0.79110164295E+01  0.19633016583E+02  0.51100000000E-03 0.  1.
        -12    1    3    3    0    0  0.15666896440E+02 -0.14841877148E+02  0.18211170737E+02  0.28237912475E+02  0.00000000000E+00 0.  1.
</event>
<event>
 7    1  0.2809593E-013  0.7246158E+02  0.7816164E-02  0.1226708E+00
        -11   -1    0    0    0    0  0.00000000000E+00  0.00000000000E+00  0.45593999997E+02  0.45594000000E+02  0.51100000000E-03 0.  1.
         11   -1    0    0    0    0 -0.00000000000E+00 -0.00000000000E+00 -0.45593999997E+02  0.45594000000E+02  0.51100000000E-03 0. -1.
    9900012    2    1    2    0    0  0.49636045292E+01 -0.80421631724E+01 -0.16166790218E+02  0.72461578442E+02  0.70000010614E+02 0.  0.
        -12    1    1    2    0    0 -0.49636045292E+01  0.80421631724E+01  0.16166790218E+02  0.18726421558E+02  0.00000000000E+00 0.  1.
         11    1    3    3    0    0  0.41890599307E+01 -0.28290255757E+02  0.79455301034E+01  0.29681951465E+02  0.51100000000E-03 0. -1.
        -11    1    3    3    0    0  0.86982108080E+01  0.56822701380E+00 -0.19078490632E+02  0.20975475162E+02  0.51100000000E-03 0.  1.
        -12    1    3    3    0    0 -0.79236662095E+01  0.19679865570E+02 -0.50338296888E+01  0.21804151816E+02  0.00000000000E+00 0.  1.
</event>
<event>
 7    1  0.2809593E-013  0.7246158E+02  0.7816164E-02  0.1226708E+00
        -11   -1    0    0    0    0  0.00000000000E+00  0.00000000000E+00  0.45593999997E+02  0.45594000000E+02  0.51100000000E-03 0.  1.
         11   -1    0    0    0    0 -0.00000000000E+00 -0.00000000000E+00 -0.45593999997E+02  0.45594000000E+02  0.51100000000E-03 0. -1.
    9900012    2    1    2    0    0  0.14270720410E+02 -0.98498281902E+01  0.70714962204E+01  0.72461584561E+02  0.70000018585E+02 0.  0.
        -12    1    1    2    0    0 -0.14270720410E+02  0.98498281902E+01 -0.70714962204E+01  0.18726415439E+02  0.00000000000E+00 0.  1.
         11    1    3    3    0    0 -0.10719150576E+02 -0.99487538732E+01 -0.24730261418E+02  0.28730884476E+02  0.51100000000E-03 0. -1.
        -11    1    3    3    0    0  0.37560926611E+01 -0.49159383210E+01  0.14558803504E+01  0.63556486302E+01  0.51100000000E-03 0.  1.
        -12    1    3    3    0    0  0.21233778325E+02  0.50148640041E+01  0.30345877288E+02  0.37375051455E+02  0.00000000000E+00 0.  1.
</event>
<event>
 7    1  0.2809593E-013  0.7246158E+02  0.7816164E-02  0.1226708E+00
        -11   -1    0    0    0    0  0.00000000000E+00  0.00000000000E+00  0.45593999997E+02  0.45594000000E+02  0.51100000000E-03 0.  1.
         11   -1    0    0    0    0 -0.00000000000E+00 -0.00000000000E+00 -0.45593999997E+02  0.45594000000E+02  0.51100000000E-03 0. -1.
    9900012    2    1    2    0    0  0.16048201652E+02 -0.80872552995E+01 -0.52659438682E+01  0.72461584450E+02  0.70000018440E+02 0.  0.
        -12    1    1    2    0    0 -0.16048201652E+02  0.80872552995E+01  0.52659438682E+01  0.18726415550E+02  0.00000000000E+00 0.  1.
         11    1    3    3    0    0  0.19065987862E+02 -0.27396963347E+01 -0.10469006294E+01  0.19290252211E+02  0.51100000000E-03 0. -1.
        -11    1    3    3    0    0  0.13148164240E+02  0.11776096837E+02 -0.18548962248E+02  0.25604973742E+02  0.51100000000E-03 0.  1.
         12    1    3    3    0    0 -0.16165950450E+02 -0.17123655802E+02  0.14329919009E+02  0.27566358497E+02  0.00000000000E+00 0. -1.
</event>
<event>
 7    1  0.2809593E-013  0.7246159E+02  0.7816164E-02  0.1226708E+00
        -11   -1    0    0    0    0  0.00000000000E+00  0.00000000000E+00  0.45593999997E+02  0.45594000000E+02  0.51100000000E-03 0.  1.
         11   -1    0    0    0    0 -0.00000000000E+00 -0.00000000000E+00 -0.45593999997E+02  0.45594000000E+02  0.51100000000E-03 0. -1.
    9900012    2    1    2    0    0 -0.17980839946E+02 -0.43887918188E+00  0.52129923818E+01  0.72461587913E+02  0.70000022951E+02 0.  0.
        -12    1    1    2    0    0  0.17980839946E+02  0.43887918188E+00 -0.52129923818E+01  0.18726412087E+02  0.00000000000E+00 0.  1.
         11    1    3    3    0    0 -0.37352105217E+00  0.80812592444E+00  0.89087767386E+01  0.89531496539E+01  0.51100000000E-03 0. -1.
        -11    1    3    3    0    0 -0.34745021368E+02 -0.14542663562E+02  0.85162699555E+01  0.38616478705E+02  0.51100000000E-03 0.  1.
         12    1    3    3    0    0  0.17137702475E+02  0.13295658456E+02 -0.12212054312E+02  0.24891959553E+02  0.00000000000E+00 0. -1.
</event>
<event>
 7    1  0.2809593E-013  0.7246150E+02  0.7816164E-02  0.1226708E+00
        -11   -1    0    0    0    0  0.00000000000E+00  0.00000000000E+00  0.45593999997E+02  0.45594000000E+02  0.51100000000E-03 0. -1.
         11   -1    0    0    0    0 -0.00000000000E+00 -0.00000000000E+00 -0.45593999997E+02  0.45594000000E+02  0.51100000000E-03 0.  1.
    9900012    2    1    2    0    0  0.18548157318E+02  0.22281736898E+01  0.12973142894E+01  0.72461496796E+02  0.69999904254E+02 0.  0.
        -12    1    1    2    0    0 -0.18548157318E+02 -0.22281736898E+01 -0.12973142894E+01  0.18726503204E+02  0.00000000000E+00 0.  1.
         11    1    3    3    0    0 -0.73766364790E+01  0.76157859892E+01  0.22563191152E+02  0.24930153574E+02  0.51100000000E-03 0. -1.
        -11    1    3    3    0    0  0.13217885639E+01 -0.91880684703E+00  0.85028594410E+01  0.86538979635E+01  0.51100000000E-03 0.  1.
        -12    1    3    3    0    0  0.24603005233E+02 -0.44688054523E+01 -0.29768736304E+02  0.38877445258E+02  0.00000000000E+00 0.  1.
</event>
<event>
 7    1  0.2809593E-013  0.7246154E+02  0.7816164E-02  0.1226708E+00
        -11   -1    0    0    0    0  0.00000000000E+00  0.00000000000E+00  0.45593999997E+02  0.45594000000E+02  0.51100000000E-03 0. -1.
         11   -1    0    0    0    0 -0.00000000000E+00 -0.00000000000E+00 -0.45593999997E+02  0.45594000000E+02  0.51100000000E-03 0.  1.
    9900012    2    1    2    0    0  0.35674332740E+01  0.58240559891E+00  0.18374290404E+02  0.72461539462E+02  0.69999959835E+02 0.  0.
        -12    1    1    2    0    0 -0.35674332740E+01 -0.58240559891E+00 -0.18374290404E+02  0.18726460538E+02  0.00000000000E+00 0.  1.
         11    1    3    3    0    0 -0.23246363097E+02 -0.21817468288E+01  0.82591528740E+01  0.24766247655E+02  0.51100000000E-03 0.  1.
        -11    1    3    3    0    0  0.57478419619E+01 -0.16148159590E+02 -0.12570730224E+01  0.17186651163E+02  0.51100000000E-03 0. -1.
         12    1    3    3    0    0  0.21065954409E+02  0.18912312018E+02  0.11372210552E+02  0.30508640643E+02  0.00000000000E+00 0. -1.
</event>
<event>
 7    1  0.2809593E-013  0.7246157E+02  0.7816164E-02  0.1226708E+00
        -11   -1    0    0    0    0  0.00000000000E+00  0.00000000000E+00  0.45593999997E+02  0.45594000000E+02  0.51100000000E-03 0.  1.
         11   -1    0    0    0    0 -0.00000000000E+00 -0.00000000000E+00 -0.45593999997E+02  0.45594000000E+02  0.51100000000E-03 0. -1.
    9900012    2    1    2    0    0 -0.18002436566E+02  0.51214407249E+01  0.60199433821E+00  0.72461567489E+02  0.69999996346E+02 0.  0.
        -12    1    1    2    0    0  0.18002436566E+02 -0.51214407249E+01 -0.60199433821E+00  0.18726432511E+02  0.00000000000E+00 0.  1.
         11    1    3    3    0    0 -0.23805397163E+02  0.28499424844E+02  0.10930486294E+02  0.38709038756E+02  0.51100000000E-03 0. -1.
        -11    1    3    3    0    0  0.19354927634E+00  0.39072479527E+01  0.33276955021E+00  0.39261665427E+01  0.51100000000E-03 0.  1.
        -12    1    3    3    0    0  0.56094113214E+01 -0.27285232072E+02 -0.10661261506E+02  0.29826362190E+02  0.00000000000E+00 0.  1.
</event>
<event>
 7    1  0.2809593E-013  0.7246160E+02  0.7816164E-02  0.1226708E+00
        -11   -1    0    0    0    0  0.00000000000E+00  0.00000000000E+00  0.45593999997E+02  0.45594000000E+02  0.51100000000E-03 0. -1.
         11   -1    0    0    0    0 -0.00000000000E+00 -0.00000000000E+00 -0.45593999997E+02  0.45594000000E+02  0.51100000000E-03 0.  1.
    9900012    2    1    2    0    0  0.31139255587E+01  0.63079547637E+01  0.17354865969E+02  0.72461596222E+02  0.70000033775E+02 0.  0.
        -12    1    1    2    0    0 -0.31139255587E+01 -0.63079547637E+01 -0.17354865969E+02  0.18726403778E+02  0.00000000000E+00 0.  1.
         11    1    3    3    0    0  0.16851491796E+02 -0.60804817204E+00  0.32203653147E+01  0.17167214432E+02  0.51100000000E-03 0. -1.
        -11    1    3    3    0    0  0.42771498769E+01 -0.43779308347E+01 -0.16730363118E+02  0.17814750624E+02  0.51100000000E-03 0.  1.
         12    1    3    3    0    0 -0.18014716114E+02  0.11293933771E+02  0.30864863772E+02  0.37479631166E+02  0.00000000000E+00 0. -1.
</event>
<event>
 7    1  0.2809593E-013  0.7246161E+02  0.7816164E-02  0.1226708E+00
        -11   -1    0    0    0    0  0.00000000000E+00  0.00000000000E+00  0.45593999997E+02  0.45594000000E+02  0.51100000000E-03 0.  1.
         11   -1    0    0    0    0 -0.00000000000E+00 -0.00000000000E+00 -0.45593999997E+02  0.45594000000E+02  0.51100000000E-03 0. -1.
    9900012    2    1    2    0    0  0.18973023728E+01  0.11433524227E+02 -0.14708922554E+02  0.72461611261E+02  0.70000053366E+02 0.  0.
        -12    1    1    2    0    0 -0.18973023728E+01 -0.11433524227E+02  0.14708922554E+02  0.18726388739E+02  0.00000000000E+00 0.  1.
         11    1    3    3    0    0 -0.92447827190E+01 -0.35090224058E+01 -0.11288192115E+02  0.15006749390E+02  0.51100000000E-03 0. -1.
        -11    1    3    3    0    0  0.13055228628E+02  0.96104907859E+01  0.24272447044E+02  0.29188220457E+02  0.51100000000E-03 0.  1.
         12    1    3    3    0    0 -0.19131435362E+01  0.53320558467E+01 -0.27693177482E+02  0.28266641414E+02  0.00000000000E+00 0. -1.
</event>
<event>
 7    1  0.2809593E-013  0.7246157E+02  0.7816164E-02  0.1226708E+00
        -11   -1    0    0    0    0  0.00000000000E+00  0.00000000000E+00  0.45593999997E+02  0.45594000000E+02  0.51100000000E-03 0. -1.
         11   -1    0    0    0    0 -0.00000000000E+00 -0.00000000000E+00 -0.45593999997E+02  0.45594000000E+02  0.51100000000E-03 0.  1.
    9900012    2    1    2    0    0 -0.10281080283E+02 -0.13798729221E+02  0.73873881774E+01  0.72461573646E+02  0.70000004367E+02 0.  0.
        -12    1    1    2    0    0  0.10281080283E+02  0.13798729221E+02 -0.73873881774E+01  0.18726426354E+02  0.00000000000E+00 0.  1.
         11    1    3    3    0    0 -0.52492323546E+01 -0.21937818991E+02  0.23076983193E+02  0.32270257141E+02  0.51100000000E-03 0. -1.
        -11    1    3    3    0    0 -0.16910781069E+02  0.92293922047E+00  0.26898085782E+01  0.17148218672E+02  0.51100000000E-03 0.  1.
        -12    1    3    3    0    0  0.11878933141E+02  0.72161505494E+01 -0.18379403594E+02  0.23043097834E+02  0.00000000000E+00 0.  1.
</event>
<event>
 7    1  0.2809593E-013  0.7246157E+02  0.7816164E-02  0.1226708E+00
        -11   -1    0    0    0    0  0.00000000000E+00  0.00000000000E+00  0.45593999997E+02  0.45594000000E+02  0.51100000000E-03 0. -1.
         11   -1    0    0    0    0 -0.00000000000E+00 -0.00000000000E+00 -0.45593999997E+02  0.45594000000E+02  0.51100000000E-03 0.  1.
    9900012    2    1    2    0    0 -0.27081721628E+01  0.57904014018E+01  0.17601596068E+02  0.72461571377E+02  0.70000001410E+02 0.  0.
        -12    1    1    2    0    0  0.27081721628E+01 -0.57904014018E+01 -0.17601596068E+02  0.18726428623E+02  0.00000000000E+00 0.  1.
         11    1    3    3    0    0 -0.11624360068E+02  0.14229212813E+02  0.27834079587E+02  0.33351645102E+02  0.51100000000E-03 0. -1.
        -11    1    3    3    0    0 -0.99820317823E+00 -0.13356847864E+02  0.95445480546E+01  0.16446890049E+02  0.51100000000E-03 0.  1.
        -12    1    3    3    0    0  0.99143910831E+01  0.49180364522E+01 -0.19777031574E+02  0.22663036226E+02  0.00000000000E+00 0.  1.
</event>
<event>
 7    1  0.2809593E-013  0.7246154E+02  0.7816164E-02  0.1226708E+00
        -11   -1    0    0    0    0  0.00000000000E+00  0.00000000000E+00  0.45593999997E+02  0.45594000000E+02  0.51100000000E-03 0. -1.
         11   -1    0    0    0    0 -0.00000000000E+00 -0.00000000000E+00 -0.45593999997E+02  0.45594000000E+02  0.51100000000E-03 0.  1.
    9900012    2    1    2    0    0 -0.15499021811E+02 -0.14720870256E+01  0.10406422626E+02  0.72461538797E+02  0.69999958969E+02 0.  0.
        -12    1    1    2    0    0  0.15499021811E+02  0.14720870256E+01 -0.10406422626E+02  0.18726461203E+02  0.00000000000E+00 0.  1.
         11    1    3    3    0    0  0.10273963834E+00  0.14168073721E+01  0.79311557694E+01  0.80573649950E+01  0.51100000000E-03 0. -1.
        -11    1    3    3    0    0  0.22164743201E+02 -0.12371492903E+02  0.20026374706E+01  0.25462526091E+02  0.51100000000E-03 0.  1.
        -12    1    3    3    0    0 -0.37766504651E+02  0.94825985051E+01  0.47262938653E+00  0.38941647711E+02  0.00000000000E+00 0.  1.
</event>
<event>
 7    1  0.2809593E-013  0.7246154E+02  0.7816164E-02  0.1226708E+00
        -11   -1    0    0    0    0  0.00000000000E+00  0.00000000000E+00  0.45593999997E+02  0.45594000000E+02  0.51100000000E-03 0.  1.
         11   -1    0    0    0    0 -0.00000000000E+00 -0.00000000000E+00 -0.45593999997E+02  0.45594000000E+02  0.51100000000E-03 0. -1.
    9900012    2    1    2    0    0  0.11608226259E+02  0.32499186614E+01 -0.14330645385E+02  0.72461540502E+02  0.69999961190E+02 0.  0.
        -12    1    1    2    0    0 -0.11608226259E+02 -0.32499186614E+01  0.14330645385E+02  0.18726459498E+02  0.00000000000E+00 0.  1.
         11    1    3    3    0    0 -0.84859565262E+01 -0.92202918999E+01  0.77400153716E+01  0.14728648244E+02  0.51100000000E-03 0.  1.
        -11    1    3    3    0    0 -0.18866921532E+01 -0.51770244989E+01 -0.28327547702E+02  0.28858467544E+02  0.51100000000E-03 0. -1.
        -12    1    3    3    0    0  0.21980874938E+02  0.17647235060E+02  0.62568869449E+01  0.28874424714E+02  0.00000000000E+00 0.  1.
</event>
<event>
 7    1  0.2809593E-013  0.7246167E+02  0.7816164E-02  0.1226708E+00
        -11   -1    0    0    0    0  0.00000000000E+00  0.00000000000E+00  0.45593999997E+02  0.45594000000E+02  0.51100000000E-03 0.  1.
         11   -1    0    0    0    0 -0.00000000000E+00 -0.00000000000E+00 -0.45593999997E+02  0.45594000000E+02  0.51100000000E-03 0. -1.
    9900012    2    1    2    0    0 -0.10028711364E+02  0.15431511052E+02  0.34595772781E+01  0.72461674682E+02  0.70000135984E+02 0.  0.
        -12    1    1    2    0    0  0.10028711364E+02 -0.15431511052E+02 -0.34595772781E+01  0.18726325318E+02  0.00000000000E+00 0.  1.
         11    1    3    3    0    0  0.26746377535E+01  0.22672017261E+02 -0.48006638123E+01  0.23328532467E+02  0.51100000000E-03 0. -1.
        -11    1    3    3    0    0 -0.13404544594E+02  0.16737546224E+02 -0.45759737353E+01  0.21926395172E+02  0.51100000000E-03 0.  1.
        -12    1    3    3    0    0  0.70119547661E+00 -0.23978052433E+02  0.12836214826E+02  0.27206747042E+02  0.00000000000E+00 0.  1.
</event>
<event>
 7    1  0.2809593E-013  0.7246156E+02  0.7816164E-02  0.1226708E+00
        -11   -1    0    0    0    0  0.00000000000E+00  0.00000000000E+00  0.45593999997E+02  0.45594000000E+02  0.51100000000E-03 0. -1.
         11   -1    0    0    0    0 -0.00000000000E+00 -0.00000000000E+00 -0.45593999997E+02  0.45594000000E+02  0.51100000000E-03 0.  1.
    9900012    2    1    2    0    0  0.18530495090E+02  0.22404511871E+01  0.15102412216E+01  0.72461556174E+02  0.69999981606E+02 0.  0.
        -12    1    1    2    0    0 -0.18530495090E+02 -0.22404511871E+01 -0.15102412216E+01  0.18726443826E+02  0.00000000000E+00 0.  1.
         11    1    3    3    0    0 -0.44252901283E+01  0.72705786608E+00 -0.41591955721E+01  0.61164298351E+01  0.51100000000E-03 0. -1.
        -11    1    3    3    0    0 -0.41852677948E+01  0.90462480803E+01 -0.23664161295E+02  0.25677686829E+02  0.51100000000E-03 0.  1.
         12    1    3    3    0    0  0.27141053013E+02 -0.75328547593E+01  0.29333598089E+02  0.40667439510E+02  0.00000000000E+00 0. -1.
</event>
<event>
 7    1  0.2809593E-013  0.7246121E+02  0.7816164E-02  0.1226709E+00
        -11   -1    0    0    0    0  0.00000000000E+00  0.00000000000E+00  0.45593999997E+02  0.45594000000E+02  0.51100000000E-03 0. -1.
         11   -1    0    0    0    0 -0.00000000000E+00 -0.00000000000E+00 -0.45593999997E+02  0.45594000000E+02  0.51100000000E-03 0.  1.
    9900012    2    1    2    0    0  0.12024847302E+02 -0.55322818831E+01  0.13247241556E+02  0.72461214256E+02  0.69999536192E+02 0.  0.
        -12    1    1    2    0    0 -0.12024847302E+02  0.55322818831E+01 -0.13247241556E+02  0.18726785744E+02  0.00000000000E+00 0.  1.
         11    1    3    3    0    0 -0.80938682105E+01 -0.13481260870E+02  0.82988354057E+01  0.17779925945E+02  0.51100000000E-03 0. -1.
        -11    1    3    3    0    0  0.17517748329E+02 -0.19721048112E+02 -0.39235527185E+00  0.26380773076E+02  0.51100000000E-03 0.  1.
        -12    1    3    3    0    0  0.26009671839E+01  0.27670027100E+02  0.53407614221E+01  0.28300515235E+02  0.00000000000E+00 0.  1.
</event>
<event>
 7    1  0.2809593E-013  0.7246159E+02  0.7816164E-02  0.1226708E+00
        -11   -1    0    0    0    0  0.00000000000E+00  0.00000000000E+00  0.45593999997E+02  0.45594000000E+02  0.51100000000E-03 0. -1.
         11   -1    0    0    0    0 -0.00000000000E+00 -0.00000000000E+00 -0.45593999997E+02  0.45594000000E+02  0.51100000000E-03 0.  1.
    9900012    2    1    2    0    0  0.11869848598E+02  0.58005819258E+01  0.13271718335E+02  0.72461586462E+02  0.70000021062E+02 0.  0.
        -12    1    1    2    0    0 -0.11869848598E+02 -0.58005819258E+01 -0.13271718335E+02  0.18726413538E+02  0.00000000000E+00 0.  1.
         11    1    3    3    0    0  0.19448274117E+01 -0.18826670639E+02 -0.63710440982E+01  0.19970380171E+02  0.51100000000E-03 0. -1.
        -11    1    3    3    0    0  0.12144816168E+02 -0.79327995175E+01  0.12348779809E+02  0.19050412882E+02  0.51100000000E-03 0.  1.
         12    1    3    3    0    0 -0.22197949814E+01  0.32560052082E+02  0.72939826240E+01  0.33440793410E+02  0.00000000000E+00 0. -1.
</event>
<event>
 7    1  0.2809593E-013  0.7246149E+02  0.7816164E-02  0.1226708E+00
        -11   -1    0    0    0    0  0.00000000000E+00  0.00000000000E+00  0.45593999997E+02  0.45594000000E+02  0.51100000000E-03 0.  1.
         11   -1    0    0    0    0 -0.00000000000E+00 -0.00000000000E+00 -0.45593999997E+02  0.45594000000E+02  0.51100000000E-03 0. -1.
    9900012    2    1    2    0    0  0.10117147208E+02 -0.91621727259E+01 -0.12821077578E+02  0.72461491865E+02  0.69999897831E+02 0.  0.
        -12    1    1    2    0    0 -0.10117147208E+02  0.91621727259E+01  0.12821077578E+02  0.18726508135E+02  0.00000000000E+00 0.  1.
         11    1    3    3    0    0  0.20195022574E+02 -0.63675050571E+01 -0.19675342865E+02  0.28905071779E+02  0.51100000000E-03 0. -1.
        -11    1    3    3    0    0  0.15501843527E+02 -0.62181244600E+01 -0.53692522885E+00  0.16711089536E+02  0.51100000000E-03 0.  1.
        -12    1    3    3    0    0 -0.25579718893E+02  0.34234567912E+01  0.73911905159E+01  0.26845330549E+02  0.00000000000E+00 0.  1.
</event>
<event>
 7    1  0.2809593E-013  0.7246158E+02  0.7816164E-02  0.1226708E+00
        -11   -1    0    0    0    0  0.00000000000E+00  0.00000000000E+00  0.45593999997E+02  0.45594000000E+02  0.51100000000E-03 0. -1.
         11   -1    0    0    0    0 -0.00000000000E+00 -0.00000000000E+00 -0.45593999997E+02  0.45594000000E+02  0.51100000000E-03 0.  1.
    9900012    2    1    2    0    0 -0.15800165649E+02  0.81902472752E+01 -0.58269593814E+01  0.72461579076E+02  0.70000011440E+02 0.  0.
        -12    1    1    2    0    0  0.15800165649E+02 -0.81902472752E+01  0.58269593814E+01  0.18726420924E+02  0.00000000000E+00 0.  1.
         11    1    3    3    0    0 -0.17451720487E+02  0.68973087588E+01  0.71039657921E+00  0.18778713471E+02  0.51100000000E-03 0. -1.
        -11    1    3    3    0    0 -0.18523682046E+02  0.17047394780E+02  0.48992082178E+01  0.25646495019E+02  0.51100000000E-03 0.  1.
        -12    1    3    3    0    0  0.20175236884E+02 -0.15754456264E+02 -0.11436564178E+02  0.28036370587E+02  0.00000000000E+00 0.  1.
</event>
<event>
 7    1  0.2809593E-013  0.7246142E+02  0.7816164E-02  0.1226708E+00
        -11   -1    0    0    0    0  0.00000000000E+00  0.00000000000E+00  0.45593999997E+02  0.45594000000E+02  0.51100000000E-03 0.  1.
         11   -1    0    0    0    0 -0.00000000000E+00 -0.00000000000E+00 -0.45593999997E+02  0.45594000000E+02  0.51100000000E-03 0. -1.
    9900012    2    1    2    0    0  0.44236909550E+01 -0.63885498404E+01 -0.17038254623E+02  0.72461421794E+02  0.69999806550E+02 0.  0.
        -12    1    1    2    0    0 -0.44236909550E+01  0.63885498404E+01  0.17038254623E+02  0.18726578206E+02  0.00000000000E+00 0.  1.
         11    1    3    3    0    0 -0.17669016418E+02 -0.59518520955E+01 -0.31401137960E+02  0.36519175100E+02  0.51100000000E-03 0. -1.
        -11    1    3    3    0    0  0.80167955927E+01 -0.76020996356E+01 -0.39736148965E+01  0.11740977219E+02  0.51100000000E-03 0.  1.
        -12    1    3    3    0    0  0.14075911780E+02  0.71654018906E+01  0.18336498234E+02  0.24201269475E+02  0.00000000000E+00 0.  1.
</event>
<event>
 7    1  0.2809593E-013  0.7246155E+02  0.7816164E-02  0.1226708E+00
        -11   -1    0    0    0    0  0.00000000000E+00  0.00000000000E+00  0.45593999997E+02  0.45594000000E+02  0.51100000000E-03 0.  1.
         11   -1    0    0    0    0 -0.00000000000E+00 -0.00000000000E+00 -0.45593999997E+02  0.45594000000E+02  0.51100000000E-03 0. -1.
    9900012    2    1    2    0    0 -0.86564035178E+01  0.69294126954E+01 -0.15090725686E+02  0.72461545880E+02  0.69999968196E+02 0.  0.
        -12    1    1    2    0    0  0.86564035178E+01 -0.69294126954E+01  0.15090725686E+02  0.18726454120E+02  0.00000000000E+00 0.  1.
         11    1    3    3    0    0 -0.10925861790E+02 -0.79633511541E+01 -0.14144383082E+02  0.19566629512E+02  0.51100000000E-03 0. -1.
        -11    1    3    3    0    0 -0.10215057530E+02 -0.29783385710E+01 -0.20829158091E+02  0.23389564511E+02  0.51100000000E-03 0.  1.
        -12    1    3    3    0    0  0.12484515802E+02  0.17871102421E+02  0.19882815486E+02  0.29505351857E+02  0.00000000000E+00 0.  1.
</event>
<event>
 7    1  0.2809593E-013  0.7246153E+02  0.7816164E-02  0.1226708E+00
        -11   -1    0    0    0    0  0.00000000000E+00  0.00000000000E+00  0.45593999997E+02  0.45594000000E+02  0.51100000000E-03 0.  1.
         11   -1    0    0    0    0 -0.00000000000E+00 -0.00000000000E+00 -0.45593999997E+02  0.45594000000E+02  0.51100000000E-03 0. -1.
    9900012    2    1    2    0    0  0.38984037865E+01 -0.44556920197E+01 -0.17765979902E+02  0.72461527152E+02  0.69999943799E+02 0.  0.
        -12    1    1    2    0    0 -0.38984037865E+01  0.44556920197E+01  0.17765979902E+02  0.18726472848E+02  0.00000000000E+00 0.  1.
         11    1    3    3    0    0 -0.53664607351E+01 -0.91475474671E+01 -0.13591181392E+02  0.17239394925E+02  0.51100000000E-03 0. -1.
        -11    1    3    3    0    0 -0.19804377979E+02 -0.90377082889E+01 -0.72068505291E+01  0.22931032534E+02  0.51100000000E-03 0.  1.
         12    1    3    3    0    0  0.29069242501E+02  0.13729563736E+02  0.30320520197E+01  0.32291099693E+02  0.00000000000E+00 0. -1.
</event>
<event>
 7    1  0.2809593E-013  0.7246169E+02  0.7816164E-02  0.1226708E+00
        -11   -1    0    0    0    0  0.00000000000E+00  0.00000000000E+00  0.45593999997E+02  0.45594000000E+02  0.51100000000E-03 0. -1.
         11   -1    0    0    0    0 -0.00000000000E+00 -0.00000000000E+00 -0.45593999997E+02  0.45594000000E+02  0.51100000000E-03 0.  1.
    9900012    2    1    2    0    0 -0.46149028415E+01 -0.17377931625E+02  0.52330475668E+01  0.72461691697E+02  0.70000158150E+02 0.  0.
        -12    1    1    2    0    0  0.46149028415E+01  0.17377931625E+02 -0.52330475668E+01  0.18726308303E+02  0.00000000000E+00 0.  1.
         11    1    3    3    0    0 -0.20248014169E+02 -0.19761988347E+02  0.13630786238E+02  0.31405677750E+02  0.51100000000E-03 0. -1.
        -11    1    3    3    0    0  0.15120063382E+02  0.13370688345E+01  0.12782137715E+02  0.19844070010E+02  0.51100000000E-03 0.  1.
        -12    1    3    3    0    0  0.51304794498E+00  0.10469878874E+01 -0.21179876387E+02  0.21211943937E+02  0.00000000000E+00 0.  1.
</event>
<event>
 7    1  0.2809593E-013  0.7246160E+02  0.7816164E-02  0.1226708E+00
        -11   -1    0    0    0    0  0.00000000000E+00  0.00000000000E+00  0.45593999997E+02  0.45594000000E+02  0.51100000000E-03 0.  1.
         11   -1    0    0    0    0 -0.00000000000E+00 -0.00000000000E+00 -0.45593999997E+02  0.45594000000E+02  0.51100000000E-03 0. -1.
    9900012    2    1    2    0    0  0.11291846621E+02  0.14522872812E+02 -0.35012215835E+01  0.72461596517E+02  0.70000034160E+02 0.  0.
        -12    1    1    2    0    0 -0.11291846621E+02 -0.14522872812E+02  0.35012215835E+01  0.18726403483E+02  0.00000000000E+00 0.  1.
         11    1    3    3    0    0  0.11536638802E+02 -0.13517226178E+01 -0.12649095191E+02  0.17173258231E+02  0.51100000000E-03 0. -1.
        -11    1    3    3    0    0  0.51378522147E+01 -0.18136418177E+02  0.89180261088E+01  0.20853258250E+02  0.51100000000E-03 0.  1.
        -12    1    3    3    0    0 -0.53826443952E+01  0.34011013607E+02  0.22984749832E+00  0.34435080036E+02  0.00000000000E+00 0.  1.
</event>
<event>
 7    1  0.2809593E-013  0.7246159E+02  0.7816164E-02  0.1226708E+00
        -11   -1    0    0    0    0  0.00000000000E+00  0.00000000000E+00  0.45593999997E+02  0.45594000000E+02  0.51100000000E-03 0.  1.
         11   -1    0    0    0    0 -0.00000000000E+00 -0.00000000000E+00 -0.45593999997E+02  0.45594000000E+02  0.51100000000E-03 0. -1.
    9900012    2    1    2    0    0 -0.13454249385E+02 -0.10113878726E+02  0.82079956787E+01  0.72461586503E+02  0.70000021115E+02 0.  0.
        -12    1    1    2    0    0  0.13454249385E+02  0.10113878726E+02 -0.82079956787E+01  0.18726413497E+02  0.00000000000E+00 0.  1.
         11    1    3    3    0    0 -0.31650364347E+02 -0.18298414551E+01 -0.95942376483E+01  0.33123153222E+02  0.51100000000E-03 0. -1.
        -11    1    3    3    0    0  0.76071360625E+01 -0.12573584581E+02 -0.35530581798E+01  0.15119119385E+02  0.51100000000E-03 0.  1.
        -12    1    3    3    0    0  0.10588978900E+02  0.42895473102E+01  0.21355291507E+02  0.24219313896E+02  0.00000000000E+00 0.  1.
</event>
<event>
 7    1  0.2809593E-013  0.7246149E+02  0.7816164E-02  0.1226708E+00
        -11   -1    0    0    0    0  0.00000000000E+00  0.00000000000E+00  0.45593999997E+02  0.45594000000E+02  0.51100000000E-03 0.  1.
         11   -1    0    0    0    0 -0.00000000000E+00 -0.00000000000E+00 -0.45593999997E+02  0.45594000000E+02  0.51100000000E-03 0. -1.
    9900012    2    1    2    0    0 -0.14785987879E+02 -0.11490768838E+02  0.13733983016E+00  0.72461492897E+02  0.69999899175E+02 0.  0.
        -12    1    1    2    0    0  0.14785987879E+02  0.11490768838E+02 -0.13733983016E+00  0.18726507103E+02  0.00000000000E+00 0.  1.
         11    1    3    3    0    0 -0.24803372049E+02 -0.33349013223E+02 -0.56597642057E+01  0.41945165146E+02  0.51100000000E-03 0. -1.
        -11    1    3    3    0    0  0.73702755179E+01  0.13962505753E+00  0.44167326869E+01  0.85934849889E+01  0.51100000000E-03 0.  1.
        -12    1    3    3    0    0  0.26471086524E+01  0.21718619328E+02  0.13803713490E+01  0.21922842762E+02  0.00000000000E+00 0.  1.
</event>
<event>
 7    1  0.2809593E-013  0.7246157E+02  0.7816164E-02  0.1226708E+00
        -11   -1    0    0    0    0  0.00000000000E+00  0.00000000000E+00  0.45593999997E+02  0.45594000000E+02  0.51100000000E-03 0.  1.
         11   -1    0    0    0    0 -0.00000000000E+00 -0.00000000000E+00 -0.45593999997E+02  0.45594000000E+02  0.51100000000E-03 0. -1.
    9900012    2    1    2    0    0  0.32292934255E+01  0.56055251484E+01 -0.17573528347E+02  0.72461570902E+02  0.70000000791E+02 0.  0.
        -12    1    1    2    0    0 -0.32292934255E+01 -0.56055251484E+01  0.17573528347E+02  0.18726429098E+02  0.00000000000E+00 0.  1.
         11    1    3    3    0    0 -0.76306722452E+01 -0.15241474850E+01 -0.16116814729E+02  0.17896980241E+02  0.51100000000E-03 0. -1.
        -11    1    3    3    0    0 -0.17126504275E+02 -0.45320615449E+01 -0.13156068628E+02  0.22066691472E+02  0.51100000000E-03 0.  1.
        -12    1    3    3    0    0  0.27986469945E+02  0.11661734178E+02  0.11699355010E+02  0.32497899189E+02  0.00000000000E+00 0.  1.
</event>
<event>
 7    1  0.2809593E-013  0.7246158E+02  0.7816164E-02  0.1226708E+00
        -11   -1    0    0    0    0  0.00000000000E+00  0.00000000000E+00  0.45593999997E+02  0.45594000000E+02  0.51100000000E-03 0.  1.
         11   -1    0    0    0    0 -0.00000000000E+00 -0.00000000000E+00 -0.45593999997E+02  0.45594000000E+02  0.51100000000E-03 0. -1.
    9900012    2    1    2    0    0  0.52183885985E+01  0.11245421743E+02 -0.14035229268E+02  0.72461581487E+02  0.70000014580E+02 0.  0.
        -12    1    1    2    0    0 -0.52183885985E+01 -0.11245421743E+02  0.14035229268E+02  0.18726418513E+02  0.00000000000E+00 0.  1.
         11    1    3    3    0    0 -0.25969426579E+01 -0.34687113843E+01 -0.14953436845E+02  0.15568601208E+02  0.51100000000E-03 0. -1.
        -11    1    3    3    0    0 -0.21737272134E+02  0.28655646266E+01  0.95339402964E+01  0.23908502218E+02  0.51100000000E-03 0.  1.
         12    1    3    3    0    0  0.29552603390E+02  0.11848568501E+02 -0.86157327191E+01  0.32984478061E+02  0.00000000000E+00 0. -1.
</event>
<event>
 7    1  0.2809593E-013  0.7246163E+02  0.7816164E-02  0.1226708E+00
        -11   -1    0    0    0    0  0.00000000000E+00  0.00000000000E+00  0.45593999997E+02  0.45594000000E+02  0.51100000000E-03 0. -1.
         11   -1    0    0    0    0 -0.00000000000E+00 -0.00000000000E+00 -0.45593999997E+02  0.45594000000E+02  0.51100000000E-03 0.  1.
    9900012    2    1    2    0    0  0.10012383994E+02 -0.11788275458E+02  0.10557734208E+02  0.72461627604E+02  0.70000074656E+02 0.  0.
        -12    1    1    2    0    0 -0.10012383994E+02  0.11788275458E+02 -0.10557734208E+02  0.18726372396E+02  0.00000000000E+00 0.  1.
         11    1    3    3    0    0 -0.10856504985E+02  0.10000756496E+02  0.91791573148E+01  0.17382052821E+02  0.51100000000E-03 0. -1.
        -11    1    3    3    0    0 -0.86016131856E+01  0.76457162091E+01  0.63292546583E+01  0.13134085067E+02  0.51100000000E-03 0.  1.
        -12    1    3    3    0    0  0.29470502164E+02 -0.29434748163E+02 -0.49506777647E+01  0.41945489717E+02  0.00000000000E+00 0.  1.
</event>
<event>
 7    1  0.2809593E-013  0.7246151E+02  0.7816164E-02  0.1226708E+00
        -11   -1    0    0    0    0  0.00000000000E+00  0.00000000000E+00  0.45593999997E+02  0.45594000000E+02  0.51100000000E-03 0. -1.
         11   -1    0    0    0    0 -0.00000000000E+00 -0.00000000000E+00 -0.45593999997E+02  0.45594000000E+02  0.51100000000E-03 0.  1.
    9900012    2    1    2    0    0 -0.11415819026E+02  0.94862563357E+01  0.11418037987E+02  0.72461506074E+02  0.69999916341E+02 0.  0.
        -12    1    1    2    0    0  0.11415819026E+02 -0.94862563357E+01 -0.11418037987E+02  0.18726493926E+02  0.00000000000E+00 0.  1.
         11    1    3    3    0    0  0.22935353414E+01  0.91208158546E+01 -0.73003454757E+01  0.11905655402E+02  0.51100000000E-03 0. -1.
        -11    1    3    3    0    0  0.69384044654E+01 -0.13740433125E+00 -0.17520289107E+02  0.18844650889E+02  0.51100000000E-03 0.  1.
         12    1    3    3    0    0 -0.20647758833E+02  0.50284481237E+00  0.36238672570E+02  0.41711199783E+02  0.00000000000E+00 0. -1.
</event>
<event>
 7    1  0.2809593E-013  0.7246156E+02  0.7816164E-02  0.1226708E+00
        -11   -1    0    0    0    0  0.00000000000E+00  0.00000000000E+00  0.45593999997E+02  0.45594000000E+02  0.51100000000E-03 0. -1.
         11   -1    0    0    0    0 -0.00000000000E+00 -0.00000000000E+00 -0.45593999997E+02  0.45594000000E+02  0.51100000000E-03 0.  1.
    9900012    2    1    2    0    0 -0.14955348848E+02  0.51284219509E+01  0.10035764473E+02  0.72461555077E+02  0.69999980177E+02 0.  0.
        -12    1    1    2    0    0  0.14955348848E+02 -0.51284219509E+01 -0.10035764473E+02  0.18726444923E+02  0.00000000000E+00 0.  1.
         11    1    3    3    0    0 -0.24533635795E+02 -0.17172081724E+01 -0.10790478925E+02  0.26856703538E+02  0.51100000000E-03 0. -1.
        -11    1    3    3    0    0  0.31719300974E+01 -0.52596248162E+01 -0.10077760611E+02  0.11801951235E+02  0.51100000000E-03 0.  1.
        -12    1    3    3    0    0  0.64063568493E+01  0.12105254940E+02  0.30904004009E+02  0.33802900305E+02  0.00000000000E+00 0.  1.
</event>
<event>
 7    1  0.2809593E-013  0.7246151E+02  0.7816164E-02  0.1226708E+00
        -11   -1    0    0    0    0  0.00000000000E+00  0.00000000000E+00  0.45593999997E+02  0.45594000000E+02  0.51100000000E-03 0.  1.
         11   -1    0    0    0    0 -0.00000000000E+00 -0.00000000000E+00 -0.45593999997E+02  0.45594000000E+02  0.51100000000E-03 0. -1.
    9900012    2    1    2    0    0 -0.18566699578E+01 -0.11680830290E+02 -0.14518694828E+02  0.72461507560E+02  0.69999918277E+02 0.  0.
        -12    1    1    2    0    0  0.18566699578E+01  0.11680830290E+02  0.14518694828E+02  0.18726492440E+02  0.00000000000E+00 0.  1.
         11    1    3    3    0    0  0.10424763398E+02 -0.24475305758E+01 -0.33196548424E+02  0.34880896281E+02  0.51100000000E-03 0. -1.
        -11    1    3    3    0    0 -0.10426707779E+02 -0.51772594447E+01 -0.55846669996E+01  0.12911574506E+02  0.51100000000E-03 0.  1.
        -12    1    3    3    0    0 -0.18547255764E+01 -0.40560402691E+01  0.24262520596E+02  0.24669036773E+02  0.00000000000E+00 0.  1.
</event>
<event>
 7    1  0.2809593E-013  0.7246149E+02  0.7816164E-02  0.1226708E+00
        -11   -1    0    0    0    0  0.00000000000E+00  0.00000000000E+00  0.45593999997E+02  0.45594000000E+02  0.51100000000E-03 0.  1.
         11   -1    0    0    0    0 -0.00000000000E+00 -0.00000000000E+00 -0.45593999997E+02  0.45594000000E+02  0.51100000000E-03 0. -1.
    9900012    2    1    2    0    0  0.20859590695E+01 -0.11568216919E+02 -0.14577629220E+02  0.72461490939E+02  0.69999896626E+02 0.  0.
        -12    1    1    2    0    0 -0.20859590695E+01  0.11568216919E+02  0.14577629220E+02  0.18726509061E+02  0.00000000000E+00 0.  1.
         11    1    3    3    0    0  0.33069579370E+02 -0.67576941778E+01 -0.11226510077E+02  0.35571028085E+02  0.51100000000E-03 0. -1.
        -11    1    3    3    0    0  0.23709699329E+01  0.55446009190E-01  0.15429627430E+01  0.28293651178E+01  0.51100000000E-03 0.  1.
        -12    1    3    3    0    0 -0.33354590233E+02 -0.48659687504E+01 -0.48940818859E+01  0.34061097736E+02  0.00000000000E+00 0.  1.
</event>
<event>
 7    1  0.2809593E-013  0.7246157E+02  0.7816164E-02  0.1226708E+00
        -11   -1    0    0    0    0  0.00000000000E+00  0.00000000000E+00  0.45593999997E+02  0.45594000000E+02  0.51100000000E-03 0. -1.
         11   -1    0    0    0    0 -0.00000000000E+00 -0.00000000000E+00 -0.45593999997E+02  0.45594000000E+02  0.51100000000E-03 0.  1.
    9900012    2    1    2    0    0  0.20208281439E+00 -0.94079773489E+01  0.16190376737E+02  0.72461570171E+02  0.69999999839E+02 0.  0.
        -12    1    1    2    0    0 -0.20208281439E+00  0.94079773489E+01 -0.16190376737E+02  0.18726429829E+02  0.00000000000E+00 0.  1.
         11    1    3    3    0    0 -0.16107032007E+02  0.18078007624E+02  0.11516966585E+02  0.26812149472E+02  0.51100000000E-03 0. -1.
        -11    1    3    3    0    0 -0.84435952431E+01 -0.14169505056E+02  0.58929328168E+01  0.17515588246E+02  0.51100000000E-03 0.  1.
        -12    1    3    3    0    0  0.24752710065E+02 -0.13316479917E+02 -0.12195226651E+01  0.28133832452E+02  0.00000000000E+00 0.  1.
</event>
<event>
 7    1  0.2809593E-013  0.7246155E+02  0.7816164E-02  0.1226708E+00
        -11   -1    0    0    0    0  0.00000000000E+00  0.00000000000E+00  0.45593999997E+02  0.45594000000E+02  0.51100000000E-03 0. -1.
         11   -1    0    0    0    0 -0.00000000000E+00 -0.00000000000E+00 -0.45593999997E+02  0.45594000000E+02  0.51100000000E-03 0.  1.
    9900012    2    1    2    0    0  0.39889629199E+01 -0.16188384813E+02  0.85266769508E+01  0.72461552183E+02  0.69999976406E+02 0.  0.
        -12    1    1    2    0    0 -0.39889629199E+01  0.16188384813E+02 -0.85266769508E+01  0.18726447817E+02  0.00000000000E+00 0.  1.
         11    1    3    3    0    0 -0.54354208128E+00  0.20037185938E+02  0.19785608714E+02  0.28164775354E+02  0.51100000000E-03 0. -1.
        -11    1    3    3    0    0  0.86171668917E+01 -0.12140658878E+02  0.40983291497E+01  0.15441744244E+02  0.51100000000E-03 0.  1.
        -12    1    3    3    0    0 -0.40846618905E+01 -0.24084911873E+02 -0.15357260913E+02  0.28855032584E+02  0.00000000000E+00 0.  1.
</event>
<event>
 7    1  0.2809593E-013  0.7246158E+02  0.7816164E-02  0.1226708E+00
        -11   -1    0    0    0    0  0.00000000000E+00  0.00000000000E+00  0.45593999997E+02  0.45594000000E+02  0.51100000000E-03 0.  1.
         11   -1    0    0    0    0 -0.00000000000E+00 -0.00000000000E+00 -0.45593999997E+02  0.45594000000E+02  0.51100000000E-03 0. -1.
    9900012    2    1    2    0    0  0.14516442952E+02 -0.11713618172E+02 -0.16561538178E+01  0.72461579837E+02  0.70000012431E+02 0.  0.
        -12    1    1    2    0    0 -0.14516442952E+02  0.11713618172E+02  0.16561538178E+01  0.18726420163E+02  0.00000000000E+00 0.  1.
         11    1    3    3    0    0  0.86633668944E+01 -0.11873705955E+02 -0.19850923143E+02  0.24700161314E+02  0.51100000000E-03 0. -1.
        -11    1    3    3    0    0 -0.66973093072E+01 -0.18260286891E+02  0.76251520896E+00  0.19464672075E+02  0.51100000000E-03 0.  1.
         12    1    3    3    0    0  0.12550385365E+02  0.18420374674E+02  0.17432254116E+02  0.28296746448E+02  0.00000000000E+00 0. -1.
</event>
<event>
 7    1  0.2809593E-013  0.7246163E+02  0.7816164E-02  0.1226708E+00
        -11   -1    0    0    0    0  0.00000000000E+00  0.00000000000E+00  0.45593999997E+02  0.45594000000E+02  0.51100000000E-03 0.  1.
         11   -1    0    0    0    0 -0.00000000000E+00 -0.00000000000E+00 -0.45593999997E+02  0.45594000000E+02  0.51100000000E-03 0. -1.
    9900012    2    1    2    0    0 -0.10936342630E+02  0.11295077219E+02  0.10173233445E+02  0.72461627200E+02  0.70000074130E+02 0.  0.
        -12    1    1    2    0    0  0.10936342630E+02 -0.11295077219E+02 -0.10173233445E+02  0.18726372800E+02  0.00000000000E+00 0.  1.
         11    1    3    3    0    0 -0.11482933240E+02 -0.10682834614E+02 -0.10787149629E+02  0.19035317401E+02  0.51100000000E-03 0. -1.
        -11    1    3    3    0    0 -0.15622426300E+02  0.14135224801E+02 -0.51885424798E+01  0.21697597955E+02  0.51100000000E-03 0.  1.
        -12    1    3    3    0    0  0.16169016910E+02  0.78426870323E+01  0.26148925553E+02  0.31728711845E+02  0.00000000000E+00 0.  1.
</event>
<event>
 7    1  0.2809593E-013  0.7246160E+02  0.7816164E-02  0.1226708E+00
        -11   -1    0    0    0    0  0.00000000000E+00  0.00000000000E+00  0.45593999997E+02  0.45594000000E+02  0.51100000000E-03 0.  1.
         11   -1    0    0    0    0 -0.00000000000E+00 -0.00000000000E+00 -0.45593999997E+02  0.45594000000E+02  0.51100000000E-03 0. -1.
    9900012    2    1    2    0    0  0.14470946043E+02 -0.99293798903E+01 -0.65327850267E+01  0.72461597660E+02  0.70000035649E+02 0.  0.
        -12    1    1    2    0    0 -0.14470946043E+02  0.99293798903E+01  0.65327850267E+01  0.18726402340E+02  0.00000000000E+00 0.  1.
         11    1    3    3    0    0  0.97789700194E+01  0.17335042931E+02 -0.30813741699E+01  0.20140179619E+02  0.51100000000E-03 0. -1.
        -11    1    3    3    0    0  0.12112301417E+02 -0.10973460912E+02 -0.21429467376E+02  0.26950821180E+02  0.51100000000E-03 0.  1.
        -12    1    3    3    0    0 -0.74203253935E+01 -0.16290961909E+02  0.17978056519E+02  0.25370596861E+02  0.00000000000E+00 0.  1.
</event>
<event>
 7    1  0.2809593E-013  0.7246160E+02  0.7816164E-02  0.1226708E+00
        -11   -1    0    0    0    0  0.00000000000E+00  0.00000000000E+00  0.45593999997E+02  0.45594000000E+02  0.51100000000E-03 0.  1.
         11   -1    0    0    0    0 -0.00000000000E+00 -0.00000000000E+00 -0.45593999997E+02  0.45594000000E+02  0.51100000000E-03 0. -1.
    9900012    2    1    2    0    0 -0.34537393076E+00  0.17914326872E+02 -0.54438574111E+01  0.72461602217E+02  0.70000041585E+02 0.  0.
        -12    1    1    2    0    0  0.34537393076E+00 -0.17914326872E+02  0.54438574111E+01  0.18726397783E+02  0.00000000000E+00 0.  1.
         11    1    3    3    0    0 -0.16682029345E+01 -0.63378888145E+01 -0.13638061189E+02  0.15131042559E+02  0.51100000000E-03 0. -1.
        -11    1    3    3    0    0 -0.23005917000E+02  0.96834702739E+00  0.43903245023E+01  0.23441093457E+02  0.51100000000E-03 0.  1.
        -12    1    3    3    0    0  0.24328746004E+02  0.23283868659E+02  0.38038792757E+01  0.33889466201E+02  0.00000000000E+00 0.  1.
</event>
<event>
 7    1  0.2809593E-013  0.7246162E+02  0.7816164E-02  0.1226708E+00
        -11   -1    0    0    0    0  0.00000000000E+00  0.00000000000E+00  0.45593999997E+02  0.45594000000E+02  0.51100000000E-03 0. -1.
         11   -1    0    0    0    0 -0.00000000000E+00 -0.00000000000E+00 -0.45593999997E+02  0.45594000000E+02  0.51100000000E-03 0.  1.
    9900012    2    1    2    0    0 -0.11475916999E+02  0.25992508464E+01  0.14567931527E+02  0.72461617410E+02  0.70000061377E+02 0.  0.
        -12    1    1    2    0    0  0.11475916999E+02 -0.25992508464E+01 -0.14567931527E+02  0.18726382590E+02  0.00000000000E+00 0.  1.
         11    1    3    3    0    0 -0.25429969544E+02  0.16166635091E+02 -0.58590060116E+01  0.30698068227E+02  0.51100000000E-03 0. -1.
        -11    1    3    3    0    0 -0.24809929379E+01 -0.94613827083E+01 -0.51739698817E+01  0.11065398922E+02  0.51100000000E-03 0.  1.
        -12    1    3    3    0    0  0.16435045483E+02 -0.41060015364E+01  0.25600907421E+02  0.30698150260E+02  0.00000000000E+00 0.  1.
</event>
<event>
 7    1  0.2809593E-013  0.7246142E+02  0.7816164E-02  0.1226708E+00
        -11   -1    0    0    0    0  0.00000000000E+00  0.00000000000E+00  0.45593999997E+02  0.45594000000E+02  0.51100000000E-03 0. -1.
         11   -1    0    0    0    0 -0.00000000000E+00 -0.00000000000E+00 -0.45593999997E+02  0.45594000000E+02  0.51100000000E-03 0.  1.
    9900012    2    1    2    0    0 -0.10043580808E+02 -0.13569165060E+02 -0.81048796941E+01  0.72461419140E+02  0.69999803093E+02 0.  0.
        -12    1    1    2    0    0  0.10043580808E+02  0.13569165060E+02  0.81048796941E+01  0.18726580860E+02  0.00000000000E+00 0.  1.
         11    1    3    3    0    0 -0.74967757060E+01  0.67657770689E+01  0.92914612105E+01  0.13722559419E+02  0.51100000000E-03 0. -1.
        -11    1    3    3    0    0  0.10897960831E+02 -0.32460707875E+02 -0.91172468474E+00  0.34253384478E+02  0.51100000000E-03 0.  1.
         12    1    3    3    0    0 -0.13444765934E+02  0.12125765746E+02 -0.16484616220E+02  0.24485475243E+02  0.00000000000E+00 0. -1.
</event>
<event>
 7    1  0.2809593E-013  0.7246156E+02  0.7816164E-02  0.1226708E+00
        -11   -1    0    0    0    0  0.00000000000E+00  0.00000000000E+00  0.45593999997E+02  0.45594000000E+02  0.51100000000E-03 0. -1.
         11   -1    0    0    0    0 -0.00000000000E+00 -0.00000000000E+00 -0.45593999997E+02  0.45594000000E+02  0.51100000000E-03 0.  1.
    9900012    2    1    2    0    0  0.12774468102E+02  0.81558078639E+00  0.13668485891E+02  0.72461555760E+02  0.69999981066E+02 0.  0.
        -12    1    1    2    0    0 -0.12774468102E+02 -0.81558078639E+00 -0.13668485891E+02  0.18726444240E+02  0.00000000000E+00 0.  1.
         11    1    3    3    0    0 -0.22026052119E+01 -0.11128935279E+02 -0.21433446443E+01  0.11545501145E+02  0.51100000000E-03 0. -1.
        -11    1    3    3    0    0 -0.81435874805E+01 -0.17891256280E+02 -0.80654085647E+00  0.19673982229E+02  0.51100000000E-03 0.  1.
        -12    1    3    3    0    0  0.23120660795E+02  0.29835772345E+02  0.16618371392E+02  0.41242072386E+02  0.00000000000E+00 0.  1.
</event>
<event>
 7    1  0.2809593E-013  0.7246168E+02  0.7816164E-02  0.1226708E+00
        -11   -1    0    0    0    0  0.00000000000E+00  0.00000000000E+00  0.45593999997E+02  0.45594000000E+02  0.51100000000E-03 0.  1.
         11   -1    0    0    0    0 -0.00000000000E+00 -0.00000000000E+00 -0.45593999997E+02  0.45594000000E+02  0.51100000000E-03 0. -1.
    9900012    2    1    2    0    0 -0.13390736297E+02  0.95176103968E+01 -0.89876699958E+01  0.72461683272E+02  0.70000147175E+02 0.  0.
        -12    1    1    2    0    0  0.13390736297E+02 -0.95176103968E+01  0.89876699958E+01  0.18726316728E+02  0.00000000000E+00 0.  1.
         11    1    3    3    0    0  0.17674294098E+02  0.59753294339E+00 -0.16683213915E+02  0.24311876610E+02  0.51100000000E-03 0. -1.
        -11    1    3    3    0    0 -0.10524759911E+02  0.79254913552E+01 -0.13328062562E+02  0.18740897426E+02  0.51100000000E-03 0.  1.
        -12    1    3    3    0    0 -0.20540270483E+02  0.99458609816E+00  0.21023606481E+02  0.29408909237E+02  0.00000000000E+00 0.  1.
</event>
<event>
 7    1  0.2809593E-013  0.7246159E+02  0.7816164E-02  0.1226708E+00
        -11   -1    0    0    0    0  0.00000000000E+00  0.00000000000E+00  0.45593999997E+02  0.45594000000E+02  0.51100000000E-03 0.  1.
         11   -1    0    0    0    0 -0.00000000000E+00 -0.00000000000E+00 -0.45593999997E+02  0.45594000000E+02  0.51100000000E-03 0. -1.
    9900012    2    1    2    0    0 -0.16118868333E+02 -0.25520048516E+01  0.91841075582E+01  0.72461588792E+02  0.70000024096E+02 0.  0.
        -12    1    1    2    0    0  0.16118868333E+02  0.25520048516E+01 -0.91841075582E+01  0.18726411208E+02  0.00000000000E+00 0.  1.
         11    1    3    3    0    0 -0.20763530908E+02  0.93838715691E+01  0.34416843627E+01  0.23044011216E+02  0.51100000000E-03 0. -1.
        -11    1    3    3    0    0 -0.28215466754E+01  0.12971026046E+02 -0.12036246642E+02  0.17918701846E+02  0.51100000000E-03 0.  1.
         12    1    3    3    0    0  0.74662092503E+01 -0.24906902467E+02  0.17778669838E+02  0.31498875730E+02  0.00000000000E+00 0. -1.
</event>
<event>
 7    1  0.2809593E-013  0.7246157E+02  0.7816164E-02  0.1226708E+00
        -11   -1    0    0    0    0  0.00000000000E+00  0.00000000000E+00  0.45593999997E+02  0.45594000000E+02  0.51100000000E-03 0. -1.
         11   -1    0    0    0    0 -0.00000000000E+00 -0.00000000000E+00 -0.45593999997E+02  0.45594000000E+02  0.51100000000E-03 0.  1.
    9900012    2    1    2    0    0  0.18576387698E+02  0.78753288201E+00  0.22308644239E+01  0.72461570975E+02  0.70000000887E+02 0.  0.
        -12    1    1    2    0    0 -0.18576387698E+02 -0.78753288201E+00 -0.22308644239E+01  0.18726429025E+02  0.00000000000E+00 0.  1.
         11    1    3    3    0    0  0.14288510617E+02  0.61432378503E+01 -0.75997067570E+00  0.15571719964E+02  0.51100000000E-03 0. -1.
        -11    1    3    3    0    0 -0.87210325779E+01  0.14540656180E+02  0.21055021483E+02  0.27033331671E+02  0.51100000000E-03 0.  1.
         12    1    3    3    0    0  0.13008909658E+02 -0.19896361148E+02 -0.18064186383E+02  0.29856519340E+02  0.00000000000E+00 0. -1.
</event>
<event>
 7    1  0.2809593E-013  0.7246153E+02  0.7816164E-02  0.1226708E+00
        -11   -1    0    0    0    0  0.00000000000E+00  0.00000000000E+00  0.45593999997E+02  0.45594000000E+02  0.51100000000E-03 0. -1.
         11   -1    0    0    0    0 -0.00000000000E+00 -0.00000000000E+00 -0.45593999997E+02  0.45594000000E+02  0.51100000000E-03 0.  1.
    9900012    2    1    2    0    0  0.46330282148E+01  0.17207223808E+02  0.57556057700E+01  0.72461534787E+02  0.69999953745E+02 0.  0.
        -12    1    1    2    0    0 -0.46330282148E+01 -0.17207223808E+02 -0.57556057700E+01  0.18726465213E+02  0.00000000000E+00 0.  1.
         11    1    3    3    0    0  0.92598542784E+01  0.40868574948E+02  0.13392583076E+02  0.43992574388E+02  0.51100000000E-03 0. -1.
        -11    1    3    3    0    0  0.19735069196E+01  0.44663654771E+00  0.66694233872E+00  0.21304990288E+01  0.51100000000E-03 0.  1.
        -12    1    3    3    0    0 -0.66003329832E+01 -0.24107987688E+02 -0.83039196450E+01  0.26338461370E+02  0.00000000000E+00 0.  1.
</event>
<event>
 7    1  0.2809593E-013  0.7246152E+02  0.7816164E-02  0.1226708E+00
        -11   -1    0    0    0    0  0.00000000000E+00  0.00000000000E+00  0.45593999997E+02  0.45594000000E+02  0.51100000000E-03 0. -1.
         11   -1    0    0    0    0 -0.00000000000E+00 -0.00000000000E+00 -0.45593999997E+02  0.45594000000E+02  0.51100000000E-03 0.  1.
    9900012    2    1    2    0    0  0.86239571877E+01  0.12640463015E+02  0.10794768047E+02  0.72461522488E+02  0.69999937723E+02 0.  0.
        -12    1    1    2    0    0 -0.86239571877E+01 -0.12640463015E+02 -0.10794768047E+02  0.18726477512E+02  0.00000000000E+00 0.  1.
         11    1    3    3    0    0 -0.34541573031E+00 -0.28184568170E+00  0.13177659992E+02  0.13185198980E+02  0.51100000000E-03 0. -1.
        -11    1    3    3    0    0  0.12978428080E+02 -0.18078580404E+02 -0.13581723881E+02  0.26071783381E+02  0.51100000000E-03 0.  1.
         12    1    3    3    0    0 -0.40090551617E+01  0.31000889101E+02  0.11198831936E+02  0.33204540127E+02  0.00000000000E+00 0. -1.
</event>
<event>
 7    1  0.2809593E-013  0.7246202E+02  0.7816164E-02  0.1226707E+00
        -11   -1    0    0    0    0  0.00000000000E+00  0.00000000000E+00  0.45593999997E+02  0.45594000000E+02  0.51100000000E-03 0. -1.
         11   -1    0    0    0    0 -0.00000000000E+00 -0.00000000000E+00 -0.45593999997E+02  0.45594000000E+02  0.51100000000E-03 0.  1.
    9900012    2    1    2    0    0 -0.11333024004E+02 -0.49624909072E+01  0.14056974143E+02  0.72462021490E+02  0.70000587764E+02 0.  0.
        -12    1    1    2    0    0  0.11333024004E+02  0.49624909072E+01 -0.14056974143E+02  0.18725978510E+02  0.00000000000E+00 0.  1.
         11    1    3    3    0    0  0.12123394693E+02  0.13943456138E+02 -0.49863551898E+01  0.19137931087E+02  0.51100000000E-03 0. -1.
        -11    1    3    3    0    0  0.41351942813E+01 -0.21446551685E+02  0.57154838070E+01  0.22577005256E+02  0.51100000000E-03 0.  1.
        -12    1    3    3    0    0 -0.27591612978E+02  0.25406046399E+01  0.13327845526E+02  0.30747085147E+02  0.00000000000E+00 0.  1.
</event>
<event>
 7    1  0.2809593E-013  0.7246139E+02  0.7816164E-02  0.1226709E+00
        -11   -1    0    0    0    0  0.00000000000E+00  0.00000000000E+00  0.45593999997E+02  0.45594000000E+02  0.51100000000E-03 0. -1.
         11   -1    0    0    0    0 -0.00000000000E+00 -0.00000000000E+00 -0.45593999997E+02  0.45594000000E+02  0.51100000000E-03 0.  1.
    9900012    2    1    2    0    0 -0.16482967666E+02  0.84239977615E+01  0.28344427953E+01  0.72461387190E+02  0.69999761472E+02 0.  0.
        -12    1    1    2    0    0  0.16482967666E+02 -0.84239977615E+01 -0.28344427953E+01  0.18726612810E+02  0.00000000000E+00 0.  1.
         11    1    3    3    0    0 -0.92164070553E+01  0.29896089122E+02  0.10587132689E+01  0.31302382942E+02  0.51100000000E-03 0. -1.
        -11    1    3    3    0    0 -0.78032082862E+01 -0.18087998780E+01 -0.13875441642E+02  0.16021538552E+02  0.51100000000E-03 0.  1.
        -12    1    3    3    0    0  0.53664767526E+00 -0.19663291483E+02  0.15651171168E+02  0.25137465696E+02  0.00000000000E+00 0.  1.
</event>
<event>
 7    1  0.2809593E-013  0.7246156E+02  0.7816164E-02  0.1226708E+00
        -11   -1    0    0    0    0  0.00000000000E+00  0.00000000000E+00  0.45593999997E+02  0.45594000000E+02  0.51100000000E-03 0.  1.
         11   -1    0    0    0    0 -0.00000000000E+00 -0.00000000000E+00 -0.45593999997E+02  0.45594000000E+02  0.51100000000E-03 0. -1.
    9900012    2    1    2    0    0 -0.18436908746E+02 -0.31943100399E+01  0.74596399098E+00  0.72461556584E+02  0.69999982140E+02 0.  0.
        -12    1    1    2    0    0  0.18436908746E+02  0.31943100399E+01 -0.74596399098E+00  0.18726443416E+02  0.00000000000E+00 0.  1.
         11    1    3    3    0    0 -0.26467139311E+02  0.25802995392E+02 -0.65380278197E+01  0.37537312670E+02  0.51100000000E-03 0. -1.
        -11    1    3    3    0    0  0.32600074293E+01 -0.22277185203E+01  0.66400660644E+01  0.77253385587E+01  0.51100000000E-03 0.  1.
        -12    1    3    3    0    0  0.47702231353E+01 -0.26769586911E+02  0.64392574624E+00  0.27198905355E+02  0.00000000000E+00 0.  1.
</event>
<event>
 7    1  0.2809593E-013  0.7246156E+02  0.7816164E-02  0.1226708E+00
        -11   -1    0    0    0    0  0.00000000000E+00  0.00000000000E+00  0.45593999997E+02  0.45594000000E+02  0.51100000000E-03 0. -1.
         11   -1    0    0    0    0 -0.00000000000E+00 -0.00000000000E+00 -0.45593999997E+02  0.45594000000E+02  0.51100000000E-03 0.  1.
    9900012    2    1    2    0    0 -0.22233313970E+01  0.15515617333E+02  0.10247051149E+02  0.72461557707E+02  0.69999983602E+02 0.  0.
        -12    1    1    2    0    0  0.22233313970E+01 -0.15515617333E+02 -0.10247051149E+02  0.18726442293E+02  0.00000000000E+00 0.  1.
         11    1    3    3    0    0 -0.18026478683E+02  0.23836346765E+02 -0.16369399451E+02  0.34074662133E+02  0.51100000000E-03 0. -1.
        -11    1    3    3    0    0  0.53657182946E+01  0.40029334823E+01 -0.61942083486E+00  0.67229526038E+01  0.51100000000E-03 0.  1.
        -12    1    3    3    0    0  0.10437428992E+02 -0.12323662914E+02  0.27235871435E+02  0.31663942970E+02  0.00000000000E+00 0.  1.
</event>
<event>
 7    1  0.2809593E-013  0.7246152E+02  0.7816164E-02  0.1226708E+00
        -11   -1    0    0    0    0  0.00000000000E+00  0.00000000000E+00  0.45593999997E+02  0.45594000000E+02  0.51100000000E-03 0.  1.
         11   -1    0    0    0    0 -0.00000000000E+00 -0.00000000000E+00 -0.45593999997E+02  0.45594000000E+02  0.51100000000E-03 0. -1.
    9900012    2    1    2    0    0 -0.14297071983E+02 -0.81228098154E+01 -0.89607407874E+01  0.72461516559E+02  0.69999930000E+02 0.  0.
        -12    1    1    2    0    0  0.14297071983E+02  0.81228098154E+01  0.89607407874E+01  0.18726483441E+02  0.00000000000E+00 0.  1.
         11    1    3    3    0    0 -0.64919217281E+01 -0.16565686949E+02 -0.12270493869E+02  0.21613237884E+02  0.51100000000E-03 0. -1.
        -11    1    3    3    0    0  0.13207333033E+02 -0.13972159319E+02  0.56387500912E+01  0.20036226809E+02  0.51100000000E-03 0.  1.
        -12    1    3    3    0    0 -0.21012483288E+02  0.22415036453E+02 -0.23289970098E+01  0.30812051866E+02  0.00000000000E+00 0.  1.
</event>
<event>
 7    1  0.2809593E-013  0.7246155E+02  0.7816164E-02  0.1226708E+00
        -11   -1    0    0    0    0  0.00000000000E+00  0.00000000000E+00  0.45593999997E+02  0.45594000000E+02  0.51100000000E-03 0. -1.
         11   -1    0    0    0    0 -0.00000000000E+00 -0.00000000000E+00 -0.45593999997E+02  0.45594000000E+02  0.51100000000E-03 0.  1.
    9900012    2    1    2    0    0 -0.22424011800E+01 -0.11253399057E+02  0.14799075488E+02  0.72461548422E+02  0.69999971508E+02 0.  0.
        -12    1    1    2    0    0  0.22424011800E+01  0.11253399057E+02 -0.14799075488E+02  0.18726451578E+02  0.00000000000E+00 0.  1.
         11    1    3    3    0    0 -0.37430720585E+01 -0.62308599087E+01  0.26301545622E+02  0.27287460601E+02  0.51100000000E-03 0. -1.
        -11    1    3    3    0    0 -0.18942027170E+02 -0.21321550844E+01  0.38487466244E+01  0.19446319175E+02  0.51100000000E-03 0.  1.
         12    1    3    3    0    0  0.20442698049E+02 -0.28903840635E+01 -0.15351216758E+02  0.25727768646E+02  0.00000000000E+00 0. -1.
</event>
<event>
 7    1  0.2809593E-013  0.7246157E+02  0.7816164E-02  0.1226708E+00
        -11   -1    0    0    0    0  0.00000000000E+00  0.00000000000E+00  0.45593999997E+02  0.45594000000E+02  0.51100000000E-03 0.  1.
         11   -1    0    0    0    0 -0.00000000000E+00 -0.00000000000E+00 -0.45593999997E+02  0.45594000000E+02  0.51100000000E-03 0. -1.
    9900012    2    1    2    0    0  0.25986912432E+01 -0.18528317194E+02 -0.79200080091E+00  0.72461574834E+02  0.70000005914E+02 0.  0.
        -12    1    1    2    0    0 -0.25986912432E+01  0.18528317194E+02  0.79200080091E+00  0.18726425166E+02  0.00000000000E+00 0.  1.
         11    1    3    3    0    0  0.19525997089E+02 -0.27919133406E+02 -0.32762394115E+01  0.34226836217E+02  0.51100000000E-03 0. -1.
        -11    1    3    3    0    0 -0.32983277690E+01 -0.23637786576E+01 -0.13541303909E+02  0.14136241630E+02  0.51100000000E-03 0.  1.
        -12    1    3    3    0    0 -0.13628978077E+02  0.11754594869E+02  0.16025542519E+02  0.24098496987E+02  0.00000000000E+00 0.  1.
</event>
<event>
 7    1  0.2809593E-013  0.7246152E+02  0.7816164E-02  0.1226708E+00
        -11   -1    0    0    0    0  0.00000000000E+00  0.00000000000E+00  0.45593999997E+02  0.45594000000E+02  0.51100000000E-03 0. -1.
         11   -1    0    0    0    0 -0.00000000000E+00 -0.00000000000E+00 -0.45593999997E+02  0.45594000000E+02  0.51100000000E-03 0.  1.
    9900012    2    1    2    0    0  0.76566951919E+01 -0.12973955224E+02  0.11123513340E+02  0.72461520234E+02  0.69999934787E+02 0.  0.
        -12    1    1    2    0    0 -0.76566951919E+01  0.12973955224E+02 -0.11123513340E+02  0.18726479766E+02  0.00000000000E+00 0.  1.
         11    1    3    3    0    0  0.10685959460E+02 -0.46371640308E+01  0.29557224035E+02  0.31769836523E+02  0.51100000000E-03 0. -1.
        -11    1    3    3    0    0  0.12178213911E+02 -0.15207334241E+02 -0.83695467737E+01  0.21204273679E+02  0.51100000000E-03 0.  1.
        -12    1    3    3    0    0 -0.15207478178E+02  0.68705430484E+01 -0.10064163920E+02  0.19487410032E+02  0.00000000000E+00 0.  1.
</event>
<event>
 7    1  0.2809593E-013  0.7246155E+02  0.7816164E-02  0.1226708E+00
        -11   -1    0    0    0    0  0.00000000000E+00  0.00000000000E+00  0.45593999997E+02  0.45594000000E+02  0.51100000000E-03 0. -1.
         11   -1    0    0    0    0 -0.00000000000E+00 -0.00000000000E+00 -0.45593999997E+02  0.45594000000E+02  0.51100000000E-03 0.  1.
    9900012    2    1    2    0    0  0.12333495902E+02  0.98302883745E+01  0.10096043035E+02  0.72461554110E+02  0.69999978917E+02 0.  0.
        -12    1    1    2    0    0 -0.12333495902E+02 -0.98302883745E+01 -0.10096043035E+02  0.18726445890E+02  0.00000000000E+00 0.  1.
         11    1    3    3    0    0  0.18100326047E+02  0.16126768905E+01  0.13358889380E+02  0.22553989791E+02  0.51100000000E-03 0. -1.
        -11    1    3    3    0    0  0.16580796654E+02  0.18402134510E+02 -0.50645984851E+01  0.25282632978E+02  0.51100000000E-03 0.  1.
         12    1    3    3    0    0 -0.22347626798E+02 -0.10184523026E+02  0.18017521399E+01  0.24624931341E+02  0.00000000000E+00 0. -1.
</event>
<event>
 7    1  0.2809593E-013  0.7246154E+02  0.7816164E-02  0.1226708E+00
        -11   -1    0    0    0    0  0.00000000000E+00  0.00000000000E+00  0.45593999997E+02  0.45594000000E+02  0.51100000000E-03 0.  1.
         11   -1    0    0    0    0 -0.00000000000E+00 -0.00000000000E+00 -0.45593999997E+02  0.45594000000E+02  0.51100000000E-03 0. -1.
    9900012    2    1    2    0    0 -0.93747077741E+01 -0.15772424147E+02 -0.37450943369E+01  0.72461541688E+02  0.69999962735E+02 0.  0.
        -12    1    1    2    0    0  0.93747077741E+01  0.15772424147E+02  0.37450943369E+01  0.18726458312E+02  0.00000000000E+00 0.  1.
         11    1    3    3    0    0  0.97919082382E+01 -0.19333921600E+02  0.19025484653E+02  0.28838360875E+02  0.51100000000E-03 0. -1.
        -11    1    3    3    0    0 -0.99616059573E+00  0.11026865860E+02  0.27591441469E+01  0.11410389271E+02  0.51100000000E-03 0.  1.
         12    1    3    3    0    0 -0.18170455417E+02 -0.74653684072E+01 -0.25529723137E+02  0.32212791542E+02  0.00000000000E+00 0. -1.
</event>
<event>
 7    1  0.2809593E-013  0.7246157E+02  0.7816164E-02  0.1226708E+00
        -11   -1    0    0    0    0  0.00000000000E+00  0.00000000000E+00  0.45593999997E+02  0.45594000000E+02  0.51100000000E-03 0.  1.
         11   -1    0    0    0    0 -0.00000000000E+00 -0.00000000000E+00 -0.45593999997E+02  0.45594000000E+02  0.51100000000E-03 0. -1.
    9900012    2    1    2    0    0  0.14790731807E+01  0.13668268488E+02 -0.12714949124E+02  0.72461570758E+02  0.70000000604E+02 0.  0.
        -12    1    1    2    0    0 -0.14790731807E+01 -0.13668268488E+02  0.12714949124E+02  0.18726429242E+02  0.00000000000E+00 0.  1.
         11    1    3    3    0    0  0.42929358999E+00 -0.10252739636E+02 -0.27956299730E+02  0.29780155438E+02  0.51100000000E-03 0. -1.
        -11    1    3    3    0    0 -0.14200313859E+02  0.72032822051E+01  0.10207050216E+01  0.15955501472E+02  0.51100000000E-03 0.  1.
        -12    1    3    3    0    0  0.15250093450E+02  0.16717725919E+02  0.14220645585E+02  0.26725913848E+02  0.00000000000E+00 0.  1.
</event>
<event>
 7    1  0.2809593E-013  0.7246158E+02  0.7816164E-02  0.1226708E+00
        -11   -1    0    0    0    0  0.00000000000E+00  0.00000000000E+00  0.45593999997E+02  0.45594000000E+02  0.51100000000E-03 0.  1.
         11   -1    0    0    0    0 -0.00000000000E+00 -0.00000000000E+00 -0.45593999997E+02  0.45594000000E+02  0.51100000000E-03 0. -1.
    9900012    2    1    2    0    0  0.29901330086E+01  0.55152214290E+01 -0.17644268255E+02  0.72461581093E+02  0.70000014068E+02 0.  0.
        -12    1    1    2    0    0 -0.29901330086E+01 -0.55152214290E+01  0.17644268255E+02  0.18726418907E+02  0.00000000000E+00 0.  1.
         11    1    3    3    0    0 -0.79792636758E+01 -0.56411940619E+00 -0.10143550110E+02  0.12918145711E+02  0.51100000000E-03 0. -1.
        -11    1    3    3    0    0  0.73444340071E+01  0.49088869783E+01 -0.32794990551E+02  0.33963940993E+02  0.51100000000E-03 0.  1.
         12    1    3    3    0    0  0.36249626773E+01  0.11704538569E+01  0.25294272407E+02  0.25579494390E+02  0.00000000000E+00 0. -1.
</event>
<event>
 7    1  0.2809593E-013  0.7246157E+02  0.7816164E-02  0.1226708E+00
        -11   -1    0    0    0    0  0.00000000000E+00  0.00000000000E+00  0.45593999997E+02  0.45594000000E+02  0.51100000000E-03 0.  1.
         11   -1    0    0    0    0 -0.00000000000E+00 -0.00000000000E+00 -0.45593999997E+02  0.45594000000E+02  0.51100000000E-03 0. -1.
    9900012    2    1    2    0    0 -0.21833421831E+01  0.10327289105E+02 -0.15468010301E+02  0.72461568786E+02  0.69999998035E+02 0.  0.
        -12    1    1    2    0    0  0.21833421831E+01 -0.10327289105E+02  0.15468010301E+02  0.18726431214E+02  0.00000000000E+00 0.  1.
         11    1    3    3    0    0 -0.44901296641E+01  0.19683034732E+01 -0.43097788833E+01  0.65276088460E+01  0.51100000000E-03 0. -1.
        -11    1    3    3    0    0 -0.69404038832E+01  0.34733099062E+02  0.10508945820E+01  0.35435317921E+02  0.51100000000E-03 0.  1.
         12    1    3    3    0    0  0.92471913641E+01 -0.26374113430E+02 -0.12209125999E+02  0.30498642019E+02  0.00000000000E+00 0. -1.
</event>
<event>
 7    1  0.2809593E-013  0.7246156E+02  0.7816164E-02  0.1226708E+00
        -11   -1    0    0    0    0  0.00000000000E+00  0.00000000000E+00  0.45593999997E+02  0.45594000000E+02  0.51100000000E-03 0. -1.
         11   -1    0    0    0    0 -0.00000000000E+00 -0.00000000000E+00 -0.45593999997E+02  0.45594000000E+02  0.51100000000E-03 0.  1.
    9900012    2    1    2    0    0  0.27153236856E+01 -0.12145974144E+02  0.13992204022E+02  0.72461562965E+02  0.69999990453E+02 0.  0.
        -12    1    1    2    0    0 -0.27153236856E+01  0.12145974144E+02 -0.13992204022E+02  0.18726437035E+02  0.00000000000E+00 0.  1.
         11    1    3    3    0    0  0.84163456330E-01 -0.23896953589E+02  0.68489486526E+01  0.24859194923E+02  0.51100000000E-03 0. -1.
        -11    1    3    3    0    0 -0.17482478003E+02 -0.73021115725E+01  0.60001219206E+01  0.19873583821E+02  0.51100000000E-03 0.  1.
        -12    1    3    3    0    0  0.20113638233E+02  0.19053091018E+02  0.11431334491E+01  0.27728784221E+02  0.00000000000E+00 0.  1.
</event>
<event>
 7    1  0.2809593E-013  0.7246156E+02  0.7816164E-02  0.1226708E+00
        -11   -1    0    0    0    0  0.00000000000E+00  0.00000000000E+00  0.45593999997E+02  0.45594000000E+02  0.51100000000E-03 0.  1.
         11   -1    0    0    0    0 -0.00000000000E+00 -0.00000000000E+00 -0.45593999997E+02  0.45594000000E+02  0.51100000000E-03 0. -1.
    9900012    2    1    2    0    0 -0.18610344556E+02  0.24129299871E+00 -0.20679335649E+01  0.72461561576E+02  0.69999988643E+02 0.  0.
        -12    1    1    2    0    0  0.18610344556E+02 -0.24129299871E+00  0.20679335649E+01  0.18726438424E+02  0.00000000000E+00 0.  1.
         11    1    3    3    0    0 -0.24506225506E+01 -0.58562526016E+01 -0.80312041181E+00  0.63989255408E+01  0.51100000000E-03 0. -1.
        -11    1    3    3    0    0 -0.40152294806E+02  0.83200943206E+01 -0.61879837346E+01  0.41469529665E+02  0.51100000000E-03 0.  1.
         12    1    3    3    0    0  0.23992572800E+02 -0.22225487202E+01  0.49231705814E+01  0.24593106371E+02  0.00000000000E+00 0. -1.
</event>
<event>
 7    1  0.2809593E-013  0.7246156E+02  0.7816164E-02  0.1226708E+00
        -11   -1    0    0    0    0  0.00000000000E+00  0.00000000000E+00  0.45593999997E+02  0.45594000000E+02  0.51100000000E-03 0.  1.
         11   -1    0    0    0    0 -0.00000000000E+00 -0.00000000000E+00 -0.45593999997E+02  0.45594000000E+02  0.51100000000E-03 0. -1.
    9900012    2    1    2    0    0  0.11215405262E+02 -0.14980026986E+02 -0.70205208655E+00  0.72461564119E+02  0.69999991955E+02 0.  0.
        -12    1    1    2    0    0 -0.11215405262E+02  0.14980026986E+02  0.70205208655E+00  0.18726435881E+02  0.00000000000E+00 0.  1.
         11    1    3    3    0    0  0.12237063781E+02 -0.42161456360E+01 -0.20979246246E+02  0.24650565659E+02  0.51100000000E-03 0. -1.
        -11    1    3    3    0    0 -0.18936669795E+02  0.48250354119E+01  0.86817912846E+01  0.21383449904E+02  0.51100000000E-03 0.  1.
         12    1    3    3    0    0  0.17915011275E+02 -0.15588916762E+02  0.11595402875E+02  0.26427548555E+02  0.00000000000E+00 0. -1.
</event>
<event>
 7    1  0.2809593E-013  0.7246159E+02  0.7816164E-02  0.1226708E+00
        -11   -1    0    0    0    0  0.00000000000E+00  0.00000000000E+00  0.45593999997E+02  0.45594000000E+02  0.51100000000E-03 0. -1.
         11   -1    0    0    0    0 -0.00000000000E+00 -0.00000000000E+00 -0.45593999997E+02  0.45594000000E+02  0.51100000000E-03 0.  1.
    9900012    2    1    2    0    0  0.40471430841E+01 -0.22041837735E+01  0.18150502795E+02  0.72461586970E+02  0.70000021723E+02 0.  0.
        -12    1    1    2    0    0 -0.40471430841E+01  0.22041837735E+01 -0.18150502795E+02  0.18726413030E+02  0.00000000000E+00 0.  1.
         11    1    3    3    0    0 -0.13747315117E+02  0.58225810519E+01  0.88242415091E+01  0.17342386269E+02  0.51100000000E-03 0. -1.
        -11    1    3    3    0    0 -0.13268325411E+02  0.16595920886E+01 -0.10513284895E+02  0.17009757925E+02  0.51100000000E-03 0.  1.
        -12    1    3    3    0    0  0.31062783613E+02 -0.96863569140E+01  0.19839546181E+02  0.38109442776E+02  0.00000000000E+00 0.  1.
</event>
<event>
 7    1  0.2809593E-013  0.7246157E+02  0.7816164E-02  0.1226708E+00
        -11   -1    0    0    0    0  0.00000000000E+00  0.00000000000E+00  0.45593999997E+02  0.45594000000E+02  0.51100000000E-03 0. -1.
         11   -1    0    0    0    0 -0.00000000000E+00 -0.00000000000E+00 -0.45593999997E+02  0.45594000000E+02  0.51100000000E-03 0.  1.
    9900012    2    1    2    0    0  0.13640397184E+02 -0.42133976499E+01  0.12118822527E+02  0.72461574433E+02  0.70000005391E+02 0.  0.
        -12    1    1    2    0    0 -0.13640397184E+02  0.42133976499E+01 -0.12118822527E+02  0.18726425567E+02  0.00000000000E+00 0.  1.
         11    1    3    3    0    0  0.47678175342E+01 -0.80321198100E+01  0.13489433857E+02  0.16407676823E+02  0.51100000000E-03 0. -1.
        -11    1    3    3    0    0 -0.13136931223E+02 -0.30062906427E+01  0.20336414536E+02  0.24396444451E+02  0.51100000000E-03 0.  1.
        -12    1    3    3    0    0  0.22009510872E+02  0.68250128027E+01 -0.21707025866E+02  0.31657453159E+02  0.00000000000E+00 0.  1.
</event>
<event>
 7    1  0.2809593E-013  0.7246156E+02  0.7816164E-02  0.1226708E+00
        -11   -1    0    0    0    0  0.00000000000E+00  0.00000000000E+00  0.45593999997E+02  0.45594000000E+02  0.51100000000E-03 0. -1.
         11   -1    0    0    0    0 -0.00000000000E+00 -0.00000000000E+00 -0.45593999997E+02  0.45594000000E+02  0.51100000000E-03 0.  1.
    9900012    2    1    2    0    0 -0.28283891091E+01  0.79516798021E+01  0.16716777707E+02  0.72461557371E+02  0.69999983165E+02 0.  0.
        -12    1    1    2    0    0  0.28283891091E+01 -0.79516798021E+01 -0.16716777707E+02  0.18726442629E+02  0.00000000000E+00 0.  1.
         11    1    3    3    0    0  0.13985287804E+02 -0.85024840161E+01  0.56777330287E+01  0.17323889922E+02  0.51100000000E-03 0. -1.
        -11    1    3    3    0    0  0.15204944226E+02  0.79739009732E+01  0.13619166376E+02  0.21914723787E+02  0.51100000000E-03 0.  1.
        -12    1    3    3    0    0 -0.32018621140E+02  0.84802628450E+01 -0.25801216974E+01  0.33222943662E+02  0.00000000000E+00 0.  1.
</event>
<event>
 7    1  0.2809593E-013  0.7246155E+02  0.7816164E-02  0.1226708E+00
        -11   -1    0    0    0    0  0.00000000000E+00  0.00000000000E+00  0.45593999997E+02  0.45594000000E+02  0.51100000000E-03 0. -1.
         11   -1    0    0    0    0 -0.00000000000E+00 -0.00000000000E+00 -0.45593999997E+02  0.45594000000E+02  0.51100000000E-03 0.  1.
    9900012    2    1    2    0    0 -0.13607962367E+02 -0.11301781443E+02  0.61459754696E+01  0.72461550309E+02  0.69999973965E+02 0.  0.
        -12    1    1    2    0    0  0.13607962367E+02  0.11301781443E+02 -0.61459754696E+01  0.18726449691E+02  0.00000000000E+00 0.  1.
         11    1    3    3    0    0  0.10358305734E+02 -0.14099252897E+02  0.16284480735E+02  0.23901207982E+02  0.51100000000E-03 0. -1.
        -11    1    3    3    0    0 -0.67215241503E+01  0.10515836506E+02  0.13443317744E+02  0.18343513746E+02  0.51100000000E-03 0.  1.
        -12    1    3    3    0    0 -0.17244743951E+02 -0.77183650518E+01 -0.23581823009E+02  0.30216828580E+02  0.00000000000E+00 0.  1.
</event>
<event>
 7    1  0.2809593E-013  0.7246159E+02  0.7816164E-02  0.1226708E+00
        -11   -1    0    0    0    0  0.00000000000E+00  0.00000000000E+00  0.45593999997E+02  0.45594000000E+02  0.51100000000E-03 0.  1.
         11   -1    0    0    0    0 -0.00000000000E+00 -0.00000000000E+00 -0.45593999997E+02  0.45594000000E+02  0.51100000000E-03 0. -1.
    9900012    2    1    2    0    0  0.14917121181E+02  0.52506727241E+01  0.10029375459E+02  0.72461589759E+02  0.70000025357E+02 0.  0.
        -12    1    1    2    0    0 -0.14917121181E+02 -0.52506727241E+01 -0.10029375459E+02  0.18726410241E+02  0.00000000000E+00 0.  1.
         11    1    3    3    0    0  0.25928701093E+02  0.13255342951E+01 -0.12260047688E+02  0.28711728459E+02  0.51100000000E-03 0. -1.
        -11    1    3    3    0    0 -0.18319787302E+02  0.10448906840E-01 -0.16708056397E+01  0.18395823105E+02  0.51100000000E-03 0.  1.
         12    1    3    3    0    0  0.73082073909E+01  0.39146895222E+01  0.23960228786E+02  0.25354038196E+02  0.00000000000E+00 0. -1.
</event>
<event>
 7    1  0.2809593E-013  0.7246189E+02  0.7816164E-02  0.1226707E+00
        -11   -1    0    0    0    0  0.00000000000E+00  0.00000000000E+00  0.45593999997E+02  0.45594000000E+02  0.51100000000E-03 0. -1.
         11   -1    0    0    0    0 -0.00000000000E+00 -0.00000000000E+00 -0.45593999997E+02  0.45594000000E+02  0.51100000000E-03 0.  1.
    9900012    2    1    2    0    0 -0.82806548349E+01  0.84090086853E+00  0.16774707235E+02  0.72461890911E+02  0.70000417662E+02 0.  0.
        -12    1    1    2    0    0  0.82806548349E+01 -0.84090086853E+00 -0.16774707235E+02  0.18726109089E+02  0.00000000000E+00 0.  1.
         11    1    3    3    0    0 -0.99165721435E+00 -0.54698269462E+00 -0.36175770316E+01  0.37907041483E+01  0.51100000000E-03 0. -1.
        -11    1    3    3    0    0  0.27403501182E+02  0.44012000373E+01  0.19347037317E+02  0.33832385255E+02  0.51100000000E-03 0.  1.
         12    1    3    3    0    0 -0.34692498803E+02 -0.30133164742E+01  0.10452469496E+01  0.34838801508E+02  0.00000000000E+00 0. -1.
</event>
<event>
 7    1  0.2809593E-013  0.7246160E+02  0.7816164E-02  0.1226708E+00
        -11   -1    0    0    0    0  0.00000000000E+00  0.00000000000E+00  0.45593999997E+02  0.45594000000E+02  0.51100000000E-03 0.  1.
         11   -1    0    0    0    0 -0.00000000000E+00 -0.00000000000E+00 -0.45593999997E+02  0.45594000000E+02  0.51100000000E-03 0. -1.
    9900012    2    1    2    0    0  0.49756216033E+00 -0.13957106513E+02  0.12475163124E+02  0.72461599244E+02  0.70000037712E+02 0.  0.
        -12    1    1    2    0    0 -0.49756216033E+00  0.13957106513E+02 -0.12475163124E+02  0.18726400756E+02  0.00000000000E+00 0.  1.
         11    1    3    3    0    0  0.69566926226E+01  0.66951439547E+01 -0.17724467651E+02  0.20183589338E+02  0.51100000000E-03 0. -1.
        -11    1    3    3    0    0  0.75844211659E+01 -0.86433882503E+01 -0.49875025814E+01  0.12534224632E+02  0.51100000000E-03 0.  1.
        -12    1    3    3    0    0 -0.14043551628E+02 -0.12008862217E+02  0.35187133356E+02  0.39743785274E+02  0.00000000000E+00 0.  1.
</event>
<event>
 7    1  0.2809593E-013  0.7246157E+02  0.7816164E-02  0.1226708E+00
        -11   -1    0    0    0    0  0.00000000000E+00  0.00000000000E+00  0.45593999997E+02  0.45594000000E+02  0.51100000000E-03 0. -1.
         11   -1    0    0    0    0 -0.00000000000E+00 -0.00000000000E+00 -0.45593999997E+02  0.45594000000E+02  0.51100000000E-03 0.  1.
    9900012    2    1    2    0    0  0.18568585966E+02  0.26185576347E+00  0.24120665790E+01  0.72461574329E+02  0.70000005256E+02 0.  0.
        -12    1    1    2    0    0 -0.18568585966E+02 -0.26185576347E+00 -0.24120665790E+01  0.18726425671E+02  0.00000000000E+00 0.  1.
         11    1    3    3    0    0 -0.73290850742E+01  0.17088243530E+02  0.33074483394E+01  0.18885517460E+02  0.51100000000E-03 0. -1.
        -11    1    3    3    0    0  0.24493245095E+02 -0.28371989087E+01 -0.18659348066E+02  0.30921513925E+02  0.51100000000E-03 0.  1.
         12    1    3    3    0    0  0.14044259457E+01 -0.13989188857E+02  0.17763966305E+02  0.22654542944E+02  0.00000000000E+00 0. -1.
</event>
<event>
 7    1  0.2809593E-013  0.7246160E+02  0.7816164E-02  0.1226708E+00
        -11   -1    0    0    0    0  0.00000000000E+00  0.00000000000E+00  0.45593999997E+02  0.45594000000E+02  0.51100000000E-03 0.  1.
         11   -1    0    0    0    0 -0.00000000000E+00 -0.00000000000E+00 -0.45593999997E+02  0.45594000000E+02  0.51100000000E-03 0. -1.
    9900012    2    1    2    0    0 -0.70984297069E+01  0.16849700971E+02 -0.40469748885E+01  0.72461597973E+02  0.70000036057E+02 0.  0.
        -12    1    1    2    0    0  0.70984297069E+01 -0.16849700971E+02  0.40469748885E+01  0.18726402027E+02  0.00000000000E+00 0.  1.
         11    1    3    3    0    0 -0.23258192963E+02  0.65261710193E+01 -0.20624775169E+02  0.31763434939E+02  0.51100000000E-03 0. -1.
        -11    1    3    3    0    0 -0.29527903217E+01  0.73674794102E+01  0.19579198804E+02  0.21126849022E+02  0.51100000000E-03 0.  1.
        -12    1    3    3    0    0  0.19112553578E+02  0.29560505416E+01 -0.30013985236E+01  0.19571314012E+02  0.00000000000E+00 0.  1.
</event>
<event>
 7    1  0.2809593E-013  0.7246218E+02  0.7816164E-02  0.1226706E+00
        -11   -1    0    0    0    0  0.00000000000E+00  0.00000000000E+00  0.45593999997E+02  0.45594000000E+02  0.51100000000E-03 0.  1.
         11   -1    0    0    0    0 -0.00000000000E+00 -0.00000000000E+00 -0.45593999997E+02  0.45594000000E+02  0.51100000000E-03 0. -1.
    9900012    2    1    2    0    0  0.10557851392E+02 -0.11803102020E+02  0.99937420126E+01  0.72462180319E+02  0.70000794666E+02 0.  0.
        -12    1    1    2    0    0 -0.10557851392E+02  0.11803102020E+02 -0.99937420126E+01  0.18725819681E+02  0.00000000000E+00 0.  1.
         11    1    3    3    0    0  0.33436740214E+02 -0.19433155670E+02  0.14712031038E+01  0.38701777405E+02  0.51100000000E-03 0. -1.
        -11    1    3    3    0    0 -0.61700785187E+00 -0.54918293407E+01  0.54076809164E+01  0.77320050020E+01  0.51100000000E-03 0.  1.
        -12    1    3    3    0    0 -0.22261880970E+02  0.13121882991E+02  0.31148579924E+01  0.26028397912E+02  0.00000000000E+00 0.  1.
</event>
<event>
 7    1  0.2809593E-013  0.7246159E+02  0.7816164E-02  0.1226708E+00
        -11   -1    0    0    0    0  0.00000000000E+00  0.00000000000E+00  0.45593999997E+02  0.45594000000E+02  0.51100000000E-03 0.  1.
         11   -1    0    0    0    0 -0.00000000000E+00 -0.00000000000E+00 -0.45593999997E+02  0.45594000000E+02  0.51100000000E-03 0. -1.
    9900012    2    1    2    0    0 -0.15548455392E+02 -0.57790936938E+01 -0.86905812516E+01  0.72461585728E+02  0.70000020105E+02 0.  0.
        -12    1    1    2    0    0  0.15548455392E+02  0.57790936938E+01  0.86905812516E+01  0.18726414272E+02  0.00000000000E+00 0.  1.
         11    1    3    3    0    0 -0.19679123662E+02  0.40377222573E+01 -0.61606342056E+01  0.21012484936E+02  0.51100000000E-03 0. -1.
        -11    1    3    3    0    0 -0.19714480757E+01  0.75921345958E+01 -0.22758354289E+02  0.24072179076E+02  0.51100000000E-03 0.  1.
        -12    1    3    3    0    0  0.61021163453E+01 -0.17408950547E+02  0.20228407243E+02  0.27376921716E+02  0.00000000000E+00 0.  1.
</event>
<event>
 7    1  0.2809593E-013  0.7246157E+02  0.7816164E-02  0.1226708E+00
        -11   -1    0    0    0    0  0.00000000000E+00  0.00000000000E+00  0.45593999997E+02  0.45594000000E+02  0.51100000000E-03 0.  1.
         11   -1    0    0    0    0 -0.00000000000E+00 -0.00000000000E+00 -0.45593999997E+02  0.45594000000E+02  0.51100000000E-03 0. -1.
    9900012    2    1    2    0    0 -0.62775613604E+01  0.15681156772E+02 -0.80853410677E+01  0.72461569627E+02  0.69999999130E+02 0.  0.
        -12    1    1    2    0    0  0.62775613604E+01 -0.15681156772E+02  0.80853410677E+01  0.18726430373E+02  0.00000000000E+00 0.  1.
         11    1    3    3    0    0  0.87590400591E+00 -0.60000227265E+00  0.45764811910E+01  0.46980198922E+01  0.51100000000E-03 0. -1.
        -11    1    3    3    0    0  0.82601864320E+01  0.17006943271E+02  0.22485591776E+02  0.29378029837E+02  0.51100000000E-03 0.  1.
         12    1    3    3    0    0 -0.15413651798E+02 -0.72578422641E+00 -0.35147414034E+02  0.38385519898E+02  0.00000000000E+00 0. -1.
</event>
<event>
 7    1  0.2809593E-013  0.7246167E+02  0.7816164E-02  0.1226708E+00
        -11   -1    0    0    0    0  0.00000000000E+00  0.00000000000E+00  0.45593999997E+02  0.45594000000E+02  0.51100000000E-03 0.  1.
         11   -1    0    0    0    0 -0.00000000000E+00 -0.00000000000E+00 -0.45593999997E+02  0.45594000000E+02  0.51100000000E-03 0. -1.
    9900012    2    1    2    0    0 -0.58846658496E+01 -0.15792972694E+01 -0.17707401450E+02  0.72461667254E+02  0.70000126307E+02 0.  0.
        -12    1    1    2    0    0  0.58846658496E+01  0.15792972694E+01  0.17707401450E+02  0.18726332746E+02  0.00000000000E+00 0.  1.
         11    1    3    3    0    0  0.17100047039E+02 -0.40640685747E+01 -0.10273906095E+02  0.20358816489E+02  0.51100000000E-03 0. -1.
        -11    1    3    3    0    0 -0.51214088469E+01  0.20164525333E+02 -0.15235363713E+02  0.25786686841E+02  0.51100000000E-03 0.  1.
         12    1    3    3    0    0 -0.17863304042E+02 -0.17679754028E+02  0.78018683584E+01  0.26316163924E+02  0.00000000000E+00 0. -1.
</event>
<event>
 7    1  0.2809593E-013  0.7246158E+02  0.7816164E-02  0.1226708E+00
        -11   -1    0    0    0    0  0.00000000000E+00  0.00000000000E+00  0.45593999997E+02  0.45594000000E+02  0.51100000000E-03 0.  1.
         11   -1    0    0    0    0 -0.00000000000E+00 -0.00000000000E+00 -0.45593999997E+02  0.45594000000E+02  0.51100000000E-03 0. -1.
    9900012    2    1    2    0    0 -0.15210047508E+02 -0.62076754912E+01 -0.89887691815E+01  0.72461581453E+02  0.70000014536E+02 0.  0.
        -12    1    1    2    0    0  0.15210047508E+02  0.62076754912E+01  0.89887691815E+01  0.18726418547E+02  0.00000000000E+00 0.  1.
         11    1    3    3    0    0 -0.20262666628E+02 -0.10888108960E+02 -0.31488444912E+02  0.38995496392E+02  0.51100000000E-03 0. -1.
        -11    1    3    3    0    0 -0.48583799258E+00 -0.71432681058E+01 -0.32903905082E+00  0.71673275873E+01  0.51100000000E-03 0.  1.
        -12    1    3    3    0    0  0.55384571124E+01  0.11823701575E+02  0.22828714781E+02  0.26298757474E+02  0.00000000000E+00 0.  1.
</event>
<event>
 7    1  0.2873043E-013  0.7246175E+02  0.7816164E-02  0.1226708E+00
        -11   -1    0    0    0    0  0.00000000000E+00  0.00000000000E+00  0.45593999997E+02  0.45594000000E+02  0.51100000000E-03 0. -1.
         11   -1    0    0    0    0 -0.00000000000E+00 -0.00000000000E+00 -0.45593999997E+02  0.45594000000E+02  0.51100000000E-03 0.  1.
    9900012    2    1    2    0    0 -0.17723651135E+01  0.64955235857E+01  0.17473960173E+02  0.72461751340E+02  0.70000235845E+02 0.  0.
        -12    1    1    2    0    0  0.17723651135E+01 -0.64955235857E+01 -0.17473960173E+02  0.18726248660E+02  0.00000000000E+00 0.  1.
         11    1    3    3    0    0  0.15382178916E+02 -0.35939272896E+01  0.14057352155E+02  0.21145611635E+02  0.51100000000E-03 0. -1.
        -11    1    3    3    0    0  0.32328011239E+01  0.17959038856E+02 -0.14300013677E+02  0.23183366261E+02  0.51100000000E-03 0.  1.
         12    1    3    3    0    0 -0.20387345153E+02 -0.78695879809E+01  0.17716621696E+02  0.28132773444E+02  0.00000000000E+00 0. -1.
</event>
<event>
 7    1  0.2809593E-013  0.7246156E+02  0.7816164E-02  0.1226708E+00
        -11   -1    0    0    0    0  0.00000000000E+00  0.00000000000E+00  0.45593999997E+02  0.45594000000E+02  0.51100000000E-03 0.  1.
         11   -1    0    0    0    0 -0.00000000000E+00 -0.00000000000E+00 -0.45593999997E+02  0.45594000000E+02  0.51100000000E-03 0. -1.
    9900012    2    1    2    0    0 -0.16729246120E+02 -0.45289241411E+01  0.70922916797E+01  0.72461563315E+02  0.69999990909E+02 0.  0.
        -12    1    1    2    0    0  0.16729246120E+02  0.45289241411E+01 -0.70922916797E+01  0.18726436685E+02  0.00000000000E+00 0.  1.
         11    1    3    3    0    0 -0.64319224825E+01  0.22558154525E+02 -0.83485832174E+01  0.24898570328E+02  0.51100000000E-03 0. -1.
        -11    1    3    3    0    0 -0.14755605419E+02  0.20695023699E+01  0.88840091176E+01  0.17347517102E+02  0.51100000000E-03 0.  1.
        -12    1    3    3    0    0  0.44582817807E+01 -0.29156581036E+02  0.65568657796E+01  0.30215475886E+02  0.00000000000E+00 0.  1.
</event>
<event>
 7    1  0.2809593E-013  0.7246157E+02  0.7816164E-02  0.1226708E+00
        -11   -1    0    0    0    0  0.00000000000E+00  0.00000000000E+00  0.45593999997E+02  0.45594000000E+02  0.51100000000E-03 0.  1.
         11   -1    0    0    0    0 -0.00000000000E+00 -0.00000000000E+00 -0.45593999997E+02  0.45594000000E+02  0.51100000000E-03 0. -1.
    9900012    2    1    2    0    0 -0.33496675862E+01  0.12701433290E+02 -0.13346623302E+02  0.72461573909E+02  0.70000004709E+02 0.  0.
        -12    1    1    2    0    0  0.33496675862E+01 -0.12701433290E+02  0.13346623302E+02  0.18726426091E+02  0.00000000000E+00 0.  1.
         11    1    3    3    0    0  0.74142462425E+01  0.60130663069E+01  0.46419354848E+01  0.10614875367E+02  0.51100000000E-03 0. -1.
        -11    1    3    3    0    0  0.10273447096E+02  0.17194990942E+02  0.12297046566E+02  0.23503803591E+02  0.51100000000E-03 0.  1.
        -12    1    3    3    0    0 -0.21037360924E+02 -0.10506623959E+02 -0.30285605353E+02  0.38342894951E+02  0.00000000000E+00 0.  1.
</event>
<event>
 7    1  0.2809593E-013  0.7246160E+02  0.7816164E-02  0.1226708E+00
        -11   -1    0    0    0    0  0.00000000000E+00  0.00000000000E+00  0.45593999997E+02  0.45594000000E+02  0.51100000000E-03 0.  1.
         11   -1    0    0    0    0 -0.00000000000E+00 -0.00000000000E+00 -0.45593999997E+02  0.45594000000E+02  0.51100000000E-03 0. -1.
    9900012    2    1    2    0    0 -0.33235082499E+01  0.15516189663E+02 -0.99438549265E+01  0.72461598863E+02  0.70000037216E+02 0.  0.
        -12    1    1    2    0    0  0.33235082499E+01 -0.15516189663E+02  0.99438549265E+01  0.18726401137E+02  0.00000000000E+00 0.  1.
         11    1    3    3    0    0 -0.17517622042E+02 -0.58344093561E+01 -0.70835272092E+01  0.19775838099E+02  0.51100000000E-03 0. -1.
        -11    1    3    3    0    0  0.14242737460E+02 -0.87963077778E+01  0.10446934713E+02  0.19732436394E+02  0.51100000000E-03 0.  1.
         12    1    3    3    0    0 -0.48623668358E-01  0.30146906797E+02 -0.13307262430E+02  0.32953324370E+02  0.00000000000E+00 0. -1.
</event>
<event>
 7    1  0.2809593E-013  0.7246159E+02  0.7816164E-02  0.1226708E+00
        -11   -1    0    0    0    0  0.00000000000E+00  0.00000000000E+00  0.45593999997E+02  0.45594000000E+02  0.51100000000E-03 0.  1.
         11   -1    0    0    0    0 -0.00000000000E+00 -0.00000000000E+00 -0.45593999997E+02  0.45594000000E+02  0.51100000000E-03 0. -1.
    9900012    2    1    2    0    0  0.82689840656E+01  0.96813260600E+01 -0.13732230416E+02  0.72461592871E+02  0.70000029411E+02 0.  0.
        -12    1    1    2    0    0 -0.82689840656E+01 -0.96813260600E+01  0.13732230416E+02  0.18726407129E+02  0.00000000000E+00 0.  1.
         11    1    3    3    0    0 -0.10881517796E+01  0.65979985591E+01 -0.12690720770E+02  0.14344756994E+02  0.51100000000E-03 0. -1.
        -11    1    3    3    0    0  0.12362591067E+02 -0.21382726810E+02 -0.15862540695E+02  0.29354298855E+02  0.51100000000E-03 0.  1.
        -12    1    3    3    0    0 -0.30054552217E+01  0.24466054311E+02  0.14821031049E+02  0.28762537023E+02  0.00000000000E+00 0.  1.
</event>
<event>
 7    1  0.2809593E-013  0.7246158E+02  0.7816164E-02  0.1226708E+00
        -11   -1    0    0    0    0  0.00000000000E+00  0.00000000000E+00  0.45593999997E+02  0.45594000000E+02  0.51100000000E-03 0.  1.
         11   -1    0    0    0    0 -0.00000000000E+00 -0.00000000000E+00 -0.45593999997E+02  0.45594000000E+02  0.51100000000E-03 0. -1.
    9900012    2    1    2    0    0 -0.87243809192E+01 -0.15225078923E+02 -0.65391721327E+01  0.72461584892E+02  0.70000019016E+02 0.  0.
        -12    1    1    2    0    0  0.87243809192E+01  0.15225078923E+02  0.65391721327E+01  0.18726415108E+02  0.00000000000E+00 0.  1.
         11    1    3    3    0    0 -0.11342084416E+02 -0.48055913656E+01  0.23247925437E+01  0.12535599224E+02  0.51100000000E-03 0. -1.
        -11    1    3    3    0    0  0.67051264721E+01 -0.12431840349E+02  0.23405075226E+02  0.27336915006E+02  0.51100000000E-03 0.  1.
        -12    1    3    3    0    0 -0.40874229752E+01  0.20123527919E+01 -0.32269039902E+02  0.32589070661E+02  0.00000000000E+00 0.  1.
</event>
<event>
 7    1  0.2809593E-013  0.7246169E+02  0.7816164E-02  0.1226708E+00
        -11   -1    0    0    0    0  0.00000000000E+00  0.00000000000E+00  0.45593999997E+02  0.45594000000E+02  0.51100000000E-03 0.  1.
         11   -1    0    0    0    0 -0.00000000000E+00 -0.00000000000E+00 -0.45593999997E+02  0.45594000000E+02  0.51100000000E-03 0. -1.
    9900012    2    1    2    0    0 -0.85476683418E+01 -0.14030167158E+02 -0.89870194141E+01  0.72461688497E+02  0.70000153981E+02 0.  0.
        -12    1    1    2    0    0  0.85476683418E+01  0.14030167158E+02  0.89870194141E+01  0.18726311503E+02  0.00000000000E+00 0.  1.
         11    1    3    3    0    0 -0.29685429736E+01 -0.16385090519E+02 -0.66429816735E+01  0.17927984953E+02  0.51100000000E-03 0. -1.
        -11    1    3    3    0    0 -0.28848227957E+02  0.76757293113E+01  0.32170671805E+01  0.30024766415E+02  0.51100000000E-03 0.  1.
         12    1    3    3    0    0  0.23269102589E+02 -0.53208059502E+01 -0.55611049211E+01  0.24508937129E+02  0.00000000000E+00 0. -1.
</event>
<event>
 7    1  0.2809593E-013  0.7246156E+02  0.7816164E-02  0.1226708E+00
        -11   -1    0    0    0    0  0.00000000000E+00  0.00000000000E+00  0.45593999997E+02  0.45594000000E+02  0.51100000000E-03 0.  1.
         11   -1    0    0    0    0 -0.00000000000E+00 -0.00000000000E+00 -0.45593999997E+02  0.45594000000E+02  0.51100000000E-03 0. -1.
    9900012    2    1    2    0    0  0.17158864712E+02 -0.65827394961E+01  0.35944792826E+01  0.72461564707E+02  0.69999992721E+02 0.  0.
        -12    1    1    2    0    0 -0.17158864712E+02  0.65827394961E+01 -0.35944792826E+01  0.18726435293E+02  0.00000000000E+00 0.  1.
         11    1    3    3    0    0 -0.11373559384E+02  0.25870144403E+01  0.16094491719E+02  0.19876698939E+02  0.51100000000E-03 0.  1.
        -11    1    3    3    0    0  0.11263065830E+02 -0.24798362542E+02 -0.28910234470E+01  0.27389294505E+02  0.51100000000E-03 0. -1.
         12    1    3    3    0    0  0.17269358266E+02  0.15628608605E+02 -0.96089889897E+01  0.25195571263E+02  0.00000000000E+00 0. -1.
</event>
<event>
 7    1  0.2809593E-013  0.7246156E+02  0.7816164E-02  0.1226708E+00
        -11   -1    0    0    0    0  0.00000000000E+00  0.00000000000E+00  0.45593999997E+02  0.45594000000E+02  0.51100000000E-03 0. -1.
         11   -1    0    0    0    0 -0.00000000000E+00 -0.00000000000E+00 -0.45593999997E+02  0.45594000000E+02  0.51100000000E-03 0.  1.
    9900012    2    1    2    0    0  0.18428050347E+02  0.13470047762E+01 -0.30450054756E+01  0.72461560941E+02  0.69999987816E+02 0.  0.
        -12    1    1    2    0    0 -0.18428050347E+02 -0.13470047762E+01  0.30450054756E+01  0.18726439059E+02  0.00000000000E+00 0.  1.
         11    1    3    3    0    0  0.60123439627E+00 -0.24736164610E+01 -0.60967006046E+01  0.66068161559E+01  0.51100000000E-03 0. -1.
        -11    1    3    3    0    0  0.41396034969E+02  0.47651025485E+01 -0.20554742825E+01  0.41720053790E+02  0.51100000000E-03 0.  1.
         12    1    3    3    0    0 -0.23569219018E+02 -0.94448131139E+00  0.51071694115E+01  0.24134690996E+02  0.00000000000E+00 0. -1.
</event>
<event>
 7    1  0.2809593E-013  0.7246157E+02  0.7816164E-02  0.1226708E+00
        -11   -1    0    0    0    0  0.00000000000E+00  0.00000000000E+00  0.45593999997E+02  0.45594000000E+02  0.51100000000E-03 0.  1.
         11   -1    0    0    0    0 -0.00000000000E+00 -0.00000000000E+00 -0.45593999997E+02  0.45594000000E+02  0.51100000000E-03 0. -1.
    9900012    2    1    2    0    0 -0.13024668602E+02  0.17580669762E+01  0.13339652283E+02  0.72461571758E+02  0.70000001906E+02 0.  0.
        -12    1    1    2    0    0  0.13024668602E+02 -0.17580669762E+01 -0.13339652283E+02  0.18726428242E+02  0.00000000000E+00 0.  1.
         11    1    3    3    0    0 -0.32209455412E+02  0.16837804939E+00  0.90916506727E+01  0.33468425140E+02  0.51100000000E-03 0. -1.
        -11    1    3    3    0    0 -0.87418824498E+01 -0.18135008193E+01 -0.38423293455E+01  0.97197113665E+01  0.51100000000E-03 0.  1.
        -12    1    3    3    0    0  0.27926669260E+02  0.34031897461E+01  0.80903309562E+01  0.29273435251E+02  0.00000000000E+00 0.  1.
</event>
<event>
 7    1  0.2809593E-013  0.7246156E+02  0.7816164E-02  0.1226708E+00
        -11   -1    0    0    0    0  0.00000000000E+00  0.00000000000E+00  0.45593999997E+02  0.45594000000E+02  0.51100000000E-03 0.  1.
         11   -1    0    0    0    0 -0.00000000000E+00 -0.00000000000E+00 -0.45593999997E+02  0.45594000000E+02  0.51100000000E-03 0. -1.
    9900012    2    1    2    0    0 -0.14856385985E+02 -0.11037481755E+02 -0.28533120651E+01  0.72461558860E+02  0.69999985104E+02 0.  0.
        -12    1    1    2    0    0  0.14856385985E+02  0.11037481755E+02  0.28533120651E+01  0.18726441140E+02  0.00000000000E+00 0.  1.
         11    1    3    3    0    0  0.17752972305E+02  0.43092991161E+01 -0.55466865717E+00  0.18276918288E+02  0.51100000000E-03 0. -1.
        -11    1    3    3    0    0  0.21439722825E-01 -0.19904571952E+02 -0.65711288382E+01  0.20961206519E+02  0.51100000000E-03 0.  1.
         12    1    3    3    0    0 -0.32630798013E+02  0.45577910805E+01  0.42724854303E+01  0.33223434053E+02  0.00000000000E+00 0. -1.
</event>
<event>
 7    1  0.2809593E-013  0.7246160E+02  0.7816164E-02  0.1226708E+00
        -11   -1    0    0    0    0  0.00000000000E+00  0.00000000000E+00  0.45593999997E+02  0.45594000000E+02  0.51100000000E-03 0. -1.
         11   -1    0    0    0    0 -0.00000000000E+00 -0.00000000000E+00 -0.45593999997E+02  0.45594000000E+02  0.51100000000E-03 0.  1.
    9900012    2    1    2    0    0 -0.14118664741E+02  0.62940115216E+01  0.10570094395E+02  0.72461596965E+02  0.70000034744E+02 0.  0.
        -12    1    1    2    0    0  0.14118664741E+02 -0.62940115216E+01 -0.10570094395E+02  0.18726403035E+02  0.00000000000E+00 0.  1.
         11    1    3    3    0    0 -0.23327482568E+00  0.15102030186E+02  0.88962960497E+01  0.17529113399E+02  0.51100000000E-03 0. -1.
        -11    1    3    3    0    0  0.10357310335E+02 -0.39553050258E+01  0.20869612994E+02  0.23631738446E+02  0.51100000000E-03 0.  1.
        -12    1    3    3    0    0 -0.24242700250E+02 -0.48527136383E+01 -0.19195814648E+02  0.31300745120E+02  0.00000000000E+00 0.  1.
</event>
<event>
 7    1  0.2809593E-013  0.7246158E+02  0.7816164E-02  0.1226708E+00
        -11   -1    0    0    0    0  0.00000000000E+00  0.00000000000E+00  0.45593999997E+02  0.45594000000E+02  0.51100000000E-03 0.  1.
         11   -1    0    0    0    0 -0.00000000000E+00 -0.00000000000E+00 -0.45593999997E+02  0.45594000000E+02  0.51100000000E-03 0. -1.
    9900012    2    1    2    0    0  0.15538382047E+02  0.89318734456E+01  0.54276201911E+01  0.72461581741E+02  0.70000014911E+02 0.  0.
        -12    1    1    2    0    0 -0.15538382047E+02 -0.89318734456E+01 -0.54276201911E+01  0.18726418259E+02  0.00000000000E+00 0.  1.
         11    1    3    3    0    0 -0.10468329470E+01  0.43318952708E+01  0.10488071734E+02  0.11395649381E+02  0.51100000000E-03 0. -1.
        -11    1    3    3    0    0 -0.94284603263E+01 -0.18457661732E+02  0.10202283500E+02  0.23101249525E+02  0.51100000000E-03 0.  1.
         12    1    3    3    0    0  0.26013675320E+02  0.23057639907E+02 -0.15262735043E+02  0.37964682835E+02  0.00000000000E+00 0. -1.
</event>
<event>
 7    1  0.2809593E-013  0.7246153E+02  0.7816164E-02  0.1226708E+00
        -11   -1    0    0    0    0  0.00000000000E+00  0.00000000000E+00  0.45593999997E+02  0.45594000000E+02  0.51100000000E-03 0.  1.
         11   -1    0    0    0    0 -0.00000000000E+00 -0.00000000000E+00 -0.45593999997E+02  0.45594000000E+02  0.51100000000E-03 0. -1.
    9900012    2    1    2    0    0  0.28898230482E+00  0.18529864305E+02 -0.26909391400E+01  0.72461533825E+02  0.69999952492E+02 0.  0.
        -12    1    1    2    0    0 -0.28898230482E+00 -0.18529864305E+02  0.26909391400E+01  0.18726466175E+02  0.00000000000E+00 0.  1.
         11    1    3    3    0    0  0.62091274799E+01 -0.12842429131E+02 -0.91110002237E+01  0.16926062016E+02  0.51100000000E-03 0. -1.
        -11    1    3    3    0    0  0.13498474586E+02  0.63658225924E+01  0.16557914224E+02  0.22291187432E+02  0.51100000000E-03 0.  1.
         12    1    3    3    0    0 -0.19418619761E+02  0.25006470844E+02 -0.10137853140E+02  0.33244284377E+02  0.00000000000E+00 0. -1.
</event>
<event>
 7    1  0.2809593E-013  0.7246156E+02  0.7816164E-02  0.1226708E+00
        -11   -1    0    0    0    0  0.00000000000E+00  0.00000000000E+00  0.45593999997E+02  0.45594000000E+02  0.51100000000E-03 0.  1.
         11   -1    0    0    0    0 -0.00000000000E+00 -0.00000000000E+00 -0.45593999997E+02  0.45594000000E+02  0.51100000000E-03 0. -1.
    9900012    2    1    2    0    0 -0.27097906006E+01  0.11936534064E+02 -0.14172358893E+02  0.72461559677E+02  0.69999986169E+02 0.  0.
        -12    1    1    2    0    0  0.27097906006E+01 -0.11936534064E+02  0.14172358893E+02  0.18726440323E+02  0.00000000000E+00 0.  1.
         11    1    3    3    0    0  0.14570906005E+02  0.61631604287E+01  0.95308901867E+01  0.18469805529E+02  0.51100000000E-03 0. -1.
        -11    1    3    3    0    0  0.36388939686E+01 -0.77962943797E+01  0.92728092574E+01  0.12649456398E+02  0.51100000000E-03 0.  1.
         12    1    3    3    0    0 -0.20919590574E+02  0.13569668015E+02 -0.32976058337E+02  0.41342297750E+02  0.00000000000E+00 0. -1.
</event>
<event>
 7    1  0.2809593E-013  0.7246159E+02  0.7816164E-02  0.1226708E+00
        -11   -1    0    0    0    0  0.00000000000E+00  0.00000000000E+00  0.45593999997E+02  0.45594000000E+02  0.51100000000E-03 0.  1.
         11   -1    0    0    0    0 -0.00000000000E+00 -0.00000000000E+00 -0.45593999997E+02  0.45594000000E+02  0.51100000000E-03 0. -1.
    9900012    2    1    2    0    0 -0.71705624868E+00  0.41173756946E+01 -0.18254081405E+02  0.72461589767E+02  0.70000025367E+02 0.  0.
        -12    1    1    2    0    0  0.71705624868E+00 -0.41173756946E+01  0.18254081405E+02  0.18726410233E+02  0.00000000000E+00 0.  1.
         11    1    3    3    0    0 -0.48222958298E+01 -0.16993162504E+02 -0.11537773240E+02  0.21098396161E+02  0.51100000000E-03 0. -1.
        -11    1    3    3    0    0 -0.35542934052E+01 -0.48320070410E+01  0.15333527875E+02  0.16465065169E+02  0.51100000000E-03 0.  1.
         12    1    3    3    0    0  0.76595329863E+01  0.25942545240E+02 -0.22049836039E+02  0.34898128438E+02  0.00000000000E+00 0. -1.
</event>
<event>
 7    1  0.2809593E-013  0.7246158E+02  0.7816164E-02  0.1226708E+00
        -11   -1    0    0    0    0  0.00000000000E+00  0.00000000000E+00  0.45593999997E+02  0.45594000000E+02  0.51100000000E-03 0.  1.
         11   -1    0    0    0    0 -0.00000000000E+00 -0.00000000000E+00 -0.45593999997E+02  0.45594000000E+02  0.51100000000E-03 0. -1.
    9900012    2    1    2    0    0 -0.24075575187E+01 -0.13682959163E+02  0.12556243335E+02  0.72461576119E+02  0.70000007588E+02 0.  0.
        -12    1    1    2    0    0  0.24075575187E+01  0.13682959163E+02 -0.12556243335E+02  0.18726423881E+02  0.00000000000E+00 0.  1.
         11    1    3    3    0    0  0.23310095759E+02  0.17386804791E+02 -0.26483814739E+00  0.29081466342E+02  0.51100000000E-03 0. -1.
        -11    1    3    3    0    0 -0.13615798851E+01 -0.39715468449E+01  0.42003137114E+01  0.59388315063E+01  0.51100000000E-03 0.  1.
        -12    1    3    3    0    0 -0.24356073392E+02 -0.27098217109E+02  0.86207677711E+01  0.37441278271E+02  0.00000000000E+00 0.  1.
</event>
<event>
 7    1  0.2809593E-013  0.7246157E+02  0.7816164E-02  0.1226708E+00
        -11   -1    0    0    0    0  0.00000000000E+00  0.00000000000E+00  0.45593999997E+02  0.45594000000E+02  0.51100000000E-03 0.  1.
         11   -1    0    0    0    0 -0.00000000000E+00 -0.00000000000E+00 -0.45593999997E+02  0.45594000000E+02  0.51100000000E-03 0. -1.
    9900012    2    1    2    0    0 -0.14693878421E+02 -0.55256437899E+01  0.10209614855E+02  0.72461573811E+02  0.70000004581E+02 0.  0.
        -12    1    1    2    0    0  0.14693878421E+02  0.55256437899E+01 -0.10209614855E+02  0.18726426189E+02  0.00000000000E+00 0.  1.
         11    1    3    3    0    0 -0.32969387894E+01 -0.27388486503E+00  0.10954874230E+02  0.11443517290E+02  0.51100000000E-03 0. -1.
        -11    1    3    3    0    0 -0.11191767482E+02 -0.14021330026E+02  0.26721100766E+02  0.32184943398E+02  0.51100000000E-03 0.  1.
         12    1    3    3    0    0 -0.20517214940E+00  0.87695711015E+01 -0.27466360142E+02  0.28833113123E+02  0.00000000000E+00 0. -1.
</event>
<event>
 7    1  0.2809593E-013  0.7246156E+02  0.7816164E-02  0.1226708E+00
        -11   -1    0    0    0    0  0.00000000000E+00  0.00000000000E+00  0.45593999997E+02  0.45594000000E+02  0.51100000000E-03 0.  1.
         11   -1    0    0    0    0 -0.00000000000E+00 -0.00000000000E+00 -0.45593999997E+02  0.45594000000E+02  0.51100000000E-03 0. -1.
    9900012    2    1    2    0    0  0.15400871154E+01  0.17965910773E+02  0.50531072414E+01  0.72461555836E+02  0.69999981165E+02 0.  0.
        -12    1    1    2    0    0 -0.15400871154E+01 -0.17965910773E+02 -0.50531072414E+01  0.18726444164E+02  0.00000000000E+00 0.  1.
         11    1    3    3    0    0 -0.42045349731E+00 -0.87679845678E+01  0.52982825249E+01  0.10253103555E+02  0.51100000000E-03 0. -1.
        -11    1    3    3    0    0 -0.25378449991E+02  0.29374266845E+01  0.34325735384E+01  0.25777446748E+02  0.51100000000E-03 0.  1.
         12    1    3    3    0    0  0.27338990604E+02  0.23796468657E+02 -0.36777488218E+01  0.36431005533E+02  0.00000000000E+00 0. -1.
</event>
<event>
 7    1  0.2809593E-013  0.7246156E+02  0.7816164E-02  0.1226708E+00
        -11   -1    0    0    0    0  0.00000000000E+00  0.00000000000E+00  0.45593999997E+02  0.45594000000E+02  0.51100000000E-03 0. -1.
         11   -1    0    0    0    0 -0.00000000000E+00 -0.00000000000E+00 -0.45593999997E+02  0.45594000000E+02  0.51100000000E-03 0.  1.
    9900012    2    1    2    0    0  0.12995803225E+02  0.12309412193E+02  0.55015610719E+01  0.72461556018E+02  0.69999981402E+02 0.  0.
        -12    1    1    2    0    0 -0.12995803225E+02 -0.12309412193E+02 -0.55015610719E+01  0.18726443982E+02  0.00000000000E+00 0.  1.
         11    1    3    3    0    0 -0.17719925830E+02  0.70273296670E-01  0.40332175601E+01  0.18173264811E+02  0.51100000000E-03 0.  1.
        -11    1    3    3    0    0 -0.10175214496E+01  0.14233569583E+02  0.14113330153E+02  0.20070275067E+02  0.51100000000E-03 0. -1.
        -12    1    3    3    0    0  0.31733250505E+02 -0.19944306874E+01 -0.12644986641E+02  0.34218016140E+02  0.00000000000E+00 0.  1.
</event>
<event>
 7    1  0.2809593E-013  0.7246158E+02  0.7816164E-02  0.1226708E+00
        -11   -1    0    0    0    0  0.00000000000E+00  0.00000000000E+00  0.45593999997E+02  0.45594000000E+02  0.51100000000E-03 0. -1.
         11   -1    0    0    0    0 -0.00000000000E+00 -0.00000000000E+00 -0.45593999997E+02  0.45594000000E+02  0.51100000000E-03 0.  1.
    9900012    2    1    2    0    0 -0.51875563789E+01  0.11826701593E+02  0.13560871586E+02  0.72461578828E+02  0.70000011117E+02 0.  0.
        -12    1    1    2    0    0  0.51875563789E+01 -0.11826701593E+02 -0.13560871586E+02  0.18726421172E+02  0.00000000000E+00 0.  1.
         11    1    3    3    0    0 -0.12611848103E+02  0.98645823445E+01  0.29899743835E+01  0.16288297777E+02  0.51100000000E-03 0. -1.
        -11    1    3    3    0    0 -0.17771741688E+02  0.12086136180E+02 -0.83716930155E+01  0.23065011047E+02  0.51100000000E-03 0.  1.
         12    1    3    3    0    0  0.25196033412E+02 -0.10124016931E+02  0.18942590218E+02  0.33108270004E+02  0.00000000000E+00 0. -1.
</event>
<event>
 7    1  0.2809593E-013  0.7246155E+02  0.7816164E-02  0.1226708E+00
        -11   -1    0    0    0    0  0.00000000000E+00  0.00000000000E+00  0.45593999997E+02  0.45594000000E+02  0.51100000000E-03 0.  1.
         11   -1    0    0    0    0 -0.00000000000E+00 -0.00000000000E+00 -0.45593999997E+02  0.45594000000E+02  0.51100000000E-03 0. -1.
    9900012    2    1    2    0    0  0.14732279461E+02  0.99784911256E+01  0.58368999107E+01  0.72461554960E+02  0.69999980024E+02 0.  0.
        -12    1    1    2    0    0 -0.14732279461E+02 -0.99784911256E+01 -0.58368999107E+01  0.18726445040E+02  0.00000000000E+00 0.  1.
         11    1    3    3    0    0 -0.10645172873E+01 -0.19022224702E+02 -0.14353822943E+02  0.23853940199E+02  0.51100000000E-03 0. -1.
        -11    1    3    3    0    0  0.38694461909E+01 -0.49119845055E+01  0.89962275788E+01  0.10955926091E+02  0.51100000000E-03 0.  1.
        -12    1    3    3    0    0  0.11927350558E+02  0.33912700334E+02  0.11194495275E+02  0.37651688670E+02  0.00000000000E+00 0.  1.
</event>
<event>
 7    1  0.2809593E-013  0.7246145E+02  0.7816164E-02  0.1226708E+00
        -11   -1    0    0    0    0  0.00000000000E+00  0.00000000000E+00  0.45593999997E+02  0.45594000000E+02  0.51100000000E-03 0.  1.
         11   -1    0    0    0    0 -0.00000000000E+00 -0.00000000000E+00 -0.45593999997E+02  0.45594000000E+02  0.51100000000E-03 0. -1.
    9900012    2    1    2    0    0 -0.54564388079E+01 -0.66544125742E+01 -0.16632193227E+02  0.72461447121E+02  0.69999839544E+02 0.  0.
        -12    1    1    2    0    0  0.54564388079E+01  0.66544125742E+01  0.16632193227E+02  0.18726552879E+02  0.00000000000E+00 0.  1.
         11    1    3    3    0    0  0.13833481723E+01 -0.81904059576E+01 -0.35533973169E+02  0.36491912136E+02  0.51100000000E-03 0. -1.
        -11    1    3    3    0    0 -0.12420518756E+01  0.81148055316E+01 -0.56346457820E+01  0.99570073329E+01  0.51100000000E-03 0.  1.
        -12    1    3    3    0    0 -0.55977351046E+01 -0.65788121482E+01  0.24536425723E+02  0.26012527652E+02  0.00000000000E+00 0.  1.
</event>
<event>
 7    1  0.2809593E-013  0.7246159E+02  0.7816164E-02  0.1226708E+00
        -11   -1    0    0    0    0  0.00000000000E+00  0.00000000000E+00  0.45593999997E+02  0.45594000000E+02  0.51100000000E-03 0. -1.
         11   -1    0    0    0    0 -0.00000000000E+00 -0.00000000000E+00 -0.45593999997E+02  0.45594000000E+02  0.51100000000E-03 0.  1.
    9900012    2    1    2    0    0  0.36110713773E+01 -0.10577072444E+02 -0.15025443844E+02  0.72461594560E+02  0.70000031611E+02 0.  0.
        -12    1    1    2    0    0 -0.36110713773E+01  0.10577072444E+02  0.15025443844E+02  0.18726405440E+02  0.00000000000E+00 0.  1.
         11    1    3    3    0    0 -0.15822343522E+02 -0.10848759550E+02  0.49834314721E+01  0.19821118228E+02  0.51100000000E-03 0. -1.
        -11    1    3    3    0    0  0.97268141138E+01  0.45691500524E+01  0.13635415771E+02  0.17361238680E+02  0.51100000000E-03 0.  1.
        -12    1    3    3    0    0  0.97066007853E+01 -0.42974629465E+01 -0.33644291087E+02  0.35279237652E+02  0.00000000000E+00 0.  1.
</event>
<event>
 7    1  0.2809593E-013  0.7246154E+02  0.7816164E-02  0.1226708E+00
        -11   -1    0    0    0    0  0.00000000000E+00  0.00000000000E+00  0.45593999997E+02  0.45594000000E+02  0.51100000000E-03 0. -1.
         11   -1    0    0    0    0 -0.00000000000E+00 -0.00000000000E+00 -0.45593999997E+02  0.45594000000E+02  0.51100000000E-03 0.  1.
    9900012    2    1    2    0    0 -0.14415293942E+02 -0.11906974682E+02  0.10504423978E+01  0.72461543455E+02  0.69999965037E+02 0.  0.
        -12    1    1    2    0    0  0.14415293942E+02  0.11906974682E+02 -0.10504423978E+01  0.18726456545E+02  0.00000000000E+00 0.  1.
         11    1    3    3    0    0  0.48460545936E+01 -0.11088640955E+02  0.16569472262E+02  0.20518031452E+02  0.51100000000E-03 0. -1.
        -11    1    3    3    0    0 -0.65140229126E+01 -0.20950201787E+02  0.24828533577E+01  0.22079583567E+02  0.51100000000E-03 0.  1.
        -12    1    3    3    0    0 -0.12747325623E+02  0.20131868061E+02 -0.18001883221E+02  0.29863928436E+02  0.00000000000E+00 0.  1.
</event>
<event>
 7    1  0.2809593E-013  0.7246156E+02  0.7816164E-02  0.1226708E+00
        -11   -1    0    0    0    0  0.00000000000E+00  0.00000000000E+00  0.45593999997E+02  0.45594000000E+02  0.51100000000E-03 0. -1.
         11   -1    0    0    0    0 -0.00000000000E+00 -0.00000000000E+00 -0.45593999997E+02  0.45594000000E+02  0.51100000000E-03 0.  1.
    9900012    2    1    2    0    0 -0.14969103006E+02  0.18639133609E+01  0.11096453715E+02  0.72461561394E+02  0.69999988406E+02 0.  0.
        -12    1    1    2    0    0  0.14969103006E+02 -0.18639133609E+01 -0.11096453715E+02  0.18726438606E+02  0.00000000000E+00 0.  1.
         11    1    3    3    0    0 -0.74078384314E+01 -0.12066983066E+02  0.11179348897E+02  0.18040676056E+02  0.51100000000E-03 0. -1.
        -11    1    3    3    0    0 -0.40645436647E+01  0.24025317337E+02  0.20098660675E+02  0.31586271536E+02  0.51100000000E-03 0.  1.
         12    1    3    3    0    0 -0.34967209095E+01 -0.10094420911E+02 -0.20181555857E+02  0.22834613802E+02  0.00000000000E+00 0. -1.
</event>
<event>
 7    1  0.2809593E-013  0.7246156E+02  0.7816164E-02  0.1226708E+00
        -11   -1    0    0    0    0  0.00000000000E+00  0.00000000000E+00  0.45593999997E+02  0.45594000000E+02  0.51100000000E-03 0.  1.
         11   -1    0    0    0    0 -0.00000000000E+00 -0.00000000000E+00 -0.45593999997E+02  0.45594000000E+02  0.51100000000E-03 0. -1.
    9900012    2    1    2    0    0  0.16374257286E+02  0.21649712499E+01 -0.88247561138E+01  0.72461555526E+02  0.69999980761E+02 0.  0.
        -12    1    1    2    0    0 -0.16374257286E+02 -0.21649712499E+01  0.88247561138E+01  0.18726444474E+02  0.00000000000E+00 0.  1.
         11    1    3    3    0    0  0.84996203038E+01 -0.11885255639E+02  0.56846197955E+00  0.14622790302E+02  0.51100000000E-03 0. -1.
        -11    1    3    3    0    0 -0.17834787095E+02 -0.10590471464E+02 -0.79027739430E+01  0.22196656343E+02  0.51100000000E-03 0.  1.
         12    1    3    3    0    0  0.25709424077E+02  0.24640698353E+02 -0.14904441504E+01  0.35642108881E+02  0.00000000000E+00 0. -1.
</event>
<event>
 7    1  0.2809593E-013  0.7246153E+02  0.7816164E-02  0.1226708E+00
        -11   -1    0    0    0    0  0.00000000000E+00  0.00000000000E+00  0.45593999997E+02  0.45594000000E+02  0.51100000000E-03 0. -1.
         11   -1    0    0    0    0 -0.00000000000E+00 -0.00000000000E+00 -0.45593999997E+02  0.45594000000E+02  0.51100000000E-03 0.  1.
    9900012    2    1    2    0    0 -0.19855601687E+01  0.18062196139E+02  0.45271919004E+01  0.72461525558E+02  0.69999941722E+02 0.  0.
        -12    1    1    2    0    0  0.19855601687E+01 -0.18062196139E+02 -0.45271919004E+01  0.18726474442E+02  0.00000000000E+00 0.  1.
         11    1    3    3    0    0 -0.17699816734E+01  0.37213652796E+01 -0.54793904482E+01  0.68560276118E+01  0.51100000000E-03 0. -1.
        -11    1    3    3    0    0  0.10461820582E+01 -0.34594190751E+01 -0.25559469271E+02  0.25813727877E+02  0.51100000000E-03 0.  1.
         12    1    3    3    0    0 -0.12617605534E+01  0.17800249934E+02  0.35566051619E+02  0.39791770069E+02  0.00000000000E+00 0. -1.
</event>
<event>
 7    1  0.2809593E-013  0.7246155E+02  0.7816164E-02  0.1226708E+00
        -11   -1    0    0    0    0  0.00000000000E+00  0.00000000000E+00  0.45593999997E+02  0.45594000000E+02  0.51100000000E-03 0. -1.
         11   -1    0    0    0    0 -0.00000000000E+00 -0.00000000000E+00 -0.45593999997E+02  0.45594000000E+02  0.51100000000E-03 0.  1.
    9900012    2    1    2    0    0 -0.13980379524E+02 -0.22218593342E+01  0.12259373758E+02  0.72461550377E+02  0.69999974054E+02 0.  0.
        -12    1    1    2    0    0  0.13980379524E+02  0.22218593342E+01 -0.12259373758E+02  0.18726449623E+02  0.00000000000E+00 0.  1.
         11    1    3    3    0    0  0.32408509682E+00 -0.96868825737E+00  0.26059861909E+01  0.27990270413E+01  0.51100000000E-03 0. -1.
        -11    1    3    3    0    0  0.10312535630E+02 -0.29433638795E+02  0.80486040964E+01  0.32209742502E+02  0.51100000000E-03 0.  1.
         12    1    3    3    0    0 -0.24617000251E+02  0.28180467719E+02  0.16047834705E+01  0.37452780834E+02  0.00000000000E+00 0. -1.
</event>
<event>
 7    1  0.2809593E-013  0.7246162E+02  0.7816164E-02  0.1226708E+00
        -11   -1    0    0    0    0  0.00000000000E+00  0.00000000000E+00  0.45593999997E+02  0.45594000000E+02  0.51100000000E-03 0. -1.
         11   -1    0    0    0    0 -0.00000000000E+00 -0.00000000000E+00 -0.45593999997E+02  0.45594000000E+02  0.51100000000E-03 0.  1.
    9900012    2    1    2    0    0  0.91752462277E+01  0.14122999203E+02  0.81873815693E+01  0.72461615758E+02  0.70000059224E+02 0.  0.
        -12    1    1    2    0    0 -0.91752462277E+01 -0.14122999203E+02 -0.81873815693E+01  0.18726384242E+02  0.00000000000E+00 0.  1.
         11    1    3    3    0    0 -0.11820846596E+02  0.18571288273E+02 -0.64209779040E+01  0.22931509323E+02  0.51100000000E-03 0. -1.
        -11    1    3    3    0    0  0.16955542379E+02 -0.17136474828E+01 -0.13037507944E+02  0.21457017937E+02  0.51100000000E-03 0.  1.
        -12    1    3    3    0    0  0.40405504438E+01 -0.27346415869E+01  0.27645867418E+02  0.28073088497E+02  0.00000000000E+00 0.  1.
</event>
<event>
 7    1  0.2809593E-013  0.7246159E+02  0.7816164E-02  0.1226708E+00
        -11   -1    0    0    0    0  0.00000000000E+00  0.00000000000E+00  0.45593999997E+02  0.45594000000E+02  0.51100000000E-03 0. -1.
         11   -1    0    0    0    0 -0.00000000000E+00 -0.00000000000E+00 -0.45593999997E+02  0.45594000000E+02  0.51100000000E-03 0.  1.
    9900012    2    1    2    0    0  0.77553759405E+01  0.13584196698E+02  0.10295740669E+02  0.72461587320E+02  0.70000022180E+02 0.  0.
        -12    1    1    2    0    0 -0.77553759405E+01 -0.13584196698E+02 -0.10295740669E+02  0.18726412680E+02  0.00000000000E+00 0.  1.
         11    1    3    3    0    0  0.67474963923E+01  0.44172766044E+01 -0.14107768190E+02  0.16250235805E+02  0.51100000000E-03 0.  1.
        -11    1    3    3    0    0  0.15117664427E+02 -0.15857280341E+02  0.10386503864E+02  0.24246166301E+02  0.51100000000E-03 0. -1.
         12    1    3    3    0    0 -0.14109784878E+02  0.25024200435E+02  0.14017004995E+02  0.31965185214E+02  0.00000000000E+00 0. -1.
</event>
<event>
 7    1  0.2809593E-013  0.7246167E+02  0.7816164E-02  0.1226708E+00
        -11   -1    0    0    0    0  0.00000000000E+00  0.00000000000E+00  0.45593999997E+02  0.45594000000E+02  0.51100000000E-03 0.  1.
         11   -1    0    0    0    0 -0.00000000000E+00 -0.00000000000E+00 -0.45593999997E+02  0.45594000000E+02  0.51100000000E-03 0. -1.
    9900012    2    1    2    0    0 -0.17673985770E+02  0.54632472644E+01 -0.29083453046E+01  0.72461673182E+02  0.70000134030E+02 0.  0.
        -12    1    1    2    0    0  0.17673985770E+02 -0.54632472644E+01  0.29083453046E+01  0.18726326818E+02  0.00000000000E+00 0.  1.
         11    1    3    3    0    0 -0.13272377669E+01 -0.16490460748E+02  0.12254314400E+02  0.20587983812E+02  0.51100000000E-03 0. -1.
        -11    1    3    3    0    0  0.18983945898E+01 -0.64884142121E+01  0.83229121475E+01  0.10722606394E+02  0.51100000000E-03 0.  1.
         12    1    3    3    0    0 -0.18245142593E+02  0.28442122224E+02 -0.23485571852E+02  0.41151082976E+02  0.00000000000E+00 0. -1.
</event>
<event>
 7    1  0.2809593E-013  0.7246156E+02  0.7816164E-02  0.1226708E+00
        -11   -1    0    0    0    0  0.00000000000E+00  0.00000000000E+00  0.45593999997E+02  0.45594000000E+02  0.51100000000E-03 0.  1.
         11   -1    0    0    0    0 -0.00000000000E+00 -0.00000000000E+00 -0.45593999997E+02  0.45594000000E+02  0.51100000000E-03 0. -1.
    9900012    2    1    2    0    0 -0.81946721053E+01  0.39450495177E+01 -0.16369590000E+02  0.72461560312E+02  0.69999986997E+02 0.  0.
        -12    1    1    2    0    0  0.81946721053E+01 -0.39450495177E+01  0.16369590000E+02  0.18726439688E+02  0.00000000000E+00 0.  1.
         11    1    3    3    0    0  0.52510200678E+01  0.20579612067E+01 -0.65248369103E+00  0.56775127748E+01  0.51100000000E-03 0. -1.
        -11    1    3    3    0    0 -0.28299404163E+02 -0.74343961536E+01  0.13877639676E+02  0.32383875701E+02  0.51100000000E-03 0.  1.
         12    1    3    3    0    0  0.14853711990E+02  0.93214844645E+01 -0.29594745984E+02  0.34400171837E+02  0.00000000000E+00 0. -1.
</event>
<event>
 7    1  0.2809593E-013  0.7246155E+02  0.7816164E-02  0.1226708E+00
        -11   -1    0    0    0    0  0.00000000000E+00  0.00000000000E+00  0.45593999997E+02  0.45594000000E+02  0.51100000000E-03 0. -1.
         11   -1    0    0    0    0 -0.00000000000E+00 -0.00000000000E+00 -0.45593999997E+02  0.45594000000E+02  0.51100000000E-03 0.  1.
    9900012    2    1    2    0    0 -0.25865953711E+01  0.86047315258E+00  0.18526976558E+02  0.72461554794E+02  0.69999979809E+02 0.  0.
        -12    1    1    2    0    0  0.25865953711E+01 -0.86047315258E+00 -0.18526976558E+02  0.18726445206E+02  0.00000000000E+00 0.  1.
         11    1    3    3    0    0 -0.13745408855E+02  0.17395858111E+02  0.22991101696E+02  0.31939675976E+02  0.51100000000E-03 0. -1.
        -11    1    3    3    0    0 -0.66359580054E+01  0.77256720985E+01 -0.13584966766E+01  0.10274602742E+02  0.51100000000E-03 0.  1.
        -12    1    3    3    0    0  0.17794771490E+02 -0.24261057057E+02 -0.31056284613E+01  0.30247276076E+02  0.00000000000E+00 0.  1.
</event>
<event>
 7    1  0.2809593E-013  0.7246152E+02  0.7816164E-02  0.1226708E+00
        -11   -1    0    0    0    0  0.00000000000E+00  0.00000000000E+00  0.45593999997E+02  0.45594000000E+02  0.51100000000E-03 0.  1.
         11   -1    0    0    0    0 -0.00000000000E+00 -0.00000000000E+00 -0.45593999997E+02  0.45594000000E+02  0.51100000000E-03 0. -1.
    9900012    2    1    2    0    0 -0.13167967667E+02  0.65779351335E+00 -0.13298615262E+02  0.72461515208E+02  0.69999928240E+02 0.  0.
        -12    1    1    2    0    0  0.13167967667E+02 -0.65779351335E+00  0.13298615262E+02  0.18726484792E+02  0.00000000000E+00 0.  1.
         11    1    3    3    0    0  0.73157020405E+01 -0.15055639873E+02 -0.17635587033E+02  0.24314722260E+02  0.51100000000E-03 0. -1.
        -11    1    3    3    0    0 -0.72399917965E+01 -0.77188126987E+01  0.15697432746E+02  0.18931638751E+02  0.51100000000E-03 0.  1.
         12    1    3    3    0    0 -0.13243677911E+02  0.23432246085E+02 -0.11360460975E+02  0.29215154197E+02  0.00000000000E+00 0. -1.
</event>
<event>
 7    1  0.2809593E-013  0.7246150E+02  0.7816164E-02  0.1226708E+00
        -11   -1    0    0    0    0  0.00000000000E+00  0.00000000000E+00  0.45593999997E+02  0.45594000000E+02  0.51100000000E-03 0. -1.
         11   -1    0    0    0    0 -0.00000000000E+00 -0.00000000000E+00 -0.45593999997E+02  0.45594000000E+02  0.51100000000E-03 0.  1.
    9900012    2    1    2    0    0 -0.10537301960E+02 -0.14558688520E+02  0.52622948126E+01  0.72461497638E+02  0.69999905352E+02 0.  0.
        -12    1    1    2    0    0  0.10537301960E+02  0.14558688520E+02 -0.52622948126E+01  0.18726502362E+02  0.00000000000E+00 0.  1.
         11    1    3    3    0    0 -0.54309882394E+01 -0.22166539106E+01 -0.93003247882E+01  0.10995691394E+02  0.51100000000E-03 0. -1.
        -11    1    3    3    0    0 -0.28896948984E+02  0.42175431593E+01  0.14210876506E+02  0.32477228056E+02  0.51100000000E-03 0.  1.
         12    1    3    3    0    0  0.23790635264E+02 -0.16559577769E+02  0.35174309436E+00  0.28988578188E+02  0.00000000000E+00 0. -1.
</event>
<event>
 7    1  0.2809593E-013  0.7246161E+02  0.7816164E-02  0.1226708E+00
        -11   -1    0    0    0    0  0.00000000000E+00  0.00000000000E+00  0.45593999997E+02  0.45594000000E+02  0.51100000000E-03 0. -1.
         11   -1    0    0    0    0 -0.00000000000E+00 -0.00000000000E+00 -0.45593999997E+02  0.45594000000E+02  0.51100000000E-03 0.  1.
    9900012    2    1    2    0    0 -0.58045936207E+01 -0.10667593894E+02 -0.14254367196E+02  0.72461605506E+02  0.70000045869E+02 0.  0.
        -12    1    1    2    0    0  0.58045936207E+01  0.10667593894E+02  0.14254367196E+02  0.18726394494E+02  0.00000000000E+00 0.  1.
         11    1    3    3    0    0  0.89453133945E+01 -0.21606583283E+02 -0.36454560075E+01  0.23667539430E+02  0.51100000000E-03 0. -1.
        -11    1    3    3    0    0 -0.56659000431E+01  0.22019252133E+02 -0.21113485141E+02  0.31027876866E+02  0.51100000000E-03 0.  1.
         12    1    3    3    0    0 -0.90840069721E+01 -0.11080262744E+02  0.10504573952E+02  0.17766189210E+02  0.00000000000E+00 0. -1.
</event>
<event>
 7    1  0.2809593E-013  0.7246153E+02  0.7816164E-02  0.1226708E+00
        -11   -1    0    0    0    0  0.00000000000E+00  0.00000000000E+00  0.45593999997E+02  0.45594000000E+02  0.51100000000E-03 0.  1.
         11   -1    0    0    0    0 -0.00000000000E+00 -0.00000000000E+00 -0.45593999997E+02  0.45594000000E+02  0.51100000000E-03 0. -1.
    9900012    2    1    2    0    0 -0.16748726497E+02  0.50810221282E+01  0.66591463437E+01  0.72461525287E+02  0.69999941370E+02 0.  0.
        -12    1    1    2    0    0  0.16748726497E+02 -0.50810221282E+01 -0.66591463437E+01  0.18726474713E+02  0.00000000000E+00 0.  1.
         11    1    3    3    0    0 -0.25397950407E+02  0.12903127757E+01 -0.16604821973E+02  0.30371712249E+02  0.51100000000E-03 0. -1.
        -11    1    3    3    0    0 -0.30289621597E+01 -0.22438269082E+01 -0.76328405786E+01  0.85129094039E+01  0.51100000000E-03 0.  1.
        -12    1    3    3    0    0  0.11678186069E+02  0.60345362607E+01  0.30896808895E+02  0.33576903634E+02  0.00000000000E+00 0.  1.
</event>
<event>
 7    1  0.2809593E-013  0.7246154E+02  0.7816164E-02  0.1226708E+00
        -11   -1    0    0    0    0  0.00000000000E+00  0.00000000000E+00  0.45593999997E+02  0.45594000000E+02  0.51100000000E-03 0.  1.
         11   -1    0    0    0    0 -0.00000000000E+00 -0.00000000000E+00 -0.45593999997E+02  0.45594000000E+02  0.51100000000E-03 0. -1.
    9900012    2    1    2    0    0  0.21357519611E+01  0.16790366109E+02  0.80126398571E+01  0.72461542033E+02  0.69999963184E+02 0.  0.
        -12    1    1    2    0    0 -0.21357519611E+01 -0.16790366109E+02 -0.80126398571E+01  0.18726457967E+02  0.00000000000E+00 0.  1.
         11    1    3    3    0    0 -0.31499976870E+01  0.98498448037E+01 -0.14317661027E+02  0.17661748091E+02  0.51100000000E-03 0. -1.
        -11    1    3    3    0    0 -0.80636810167E+01  0.93510284255E+01 -0.12409130051E+02  0.17505747428E+02  0.51100000000E-03 0.  1.
        -12    1    3    3    0    0  0.13349430665E+02 -0.24105071201E+01  0.34739430935E+02  0.37294046513E+02  0.00000000000E+00 0.  1.
</event>
<event>
 7    1  0.2809593E-013  0.7246157E+02  0.7816164E-02  0.1226708E+00
        -11   -1    0    0    0    0  0.00000000000E+00  0.00000000000E+00  0.45593999997E+02  0.45594000000E+02  0.51100000000E-03 0. -1.
         11   -1    0    0    0    0 -0.00000000000E+00 -0.00000000000E+00 -0.45593999997E+02  0.45594000000E+02  0.51100000000E-03 0.  1.
    9900012    2    1    2    0    0 -0.49760698410E+00 -0.41703308621E+01  0.18249383520E+02  0.72461567583E+02  0.69999996468E+02 0.  0.
        -12    1    1    2    0    0  0.49760698410E+00  0.41703308621E+01 -0.18249383520E+02  0.18726432417E+02  0.00000000000E+00 0.  1.
         11    1    3    3    0    0 -0.97449403491E+01 -0.19906050693E+02 -0.41526213111E+01  0.22549035026E+02  0.51100000000E-03 0. -1.
        -11    1    3    3    0    0  0.92669249542E+01 -0.11876627559E+02  0.12240395081E+01  0.15113849717E+02  0.51100000000E-03 0.  1.
         12    1    3    3    0    0 -0.19591589125E-01  0.27612347390E+02  0.21177965323E+02  0.34798682840E+02  0.00000000000E+00 0. -1.
</event>
<event>
 7    1  0.2809593E-013  0.7246161E+02  0.7816164E-02  0.1226708E+00
        -11   -1    0    0    0    0  0.00000000000E+00  0.00000000000E+00  0.45593999997E+02  0.45594000000E+02  0.51100000000E-03 0. -1.
         11   -1    0    0    0    0 -0.00000000000E+00 -0.00000000000E+00 -0.45593999997E+02  0.45594000000E+02  0.51100000000E-03 0.  1.
    9900012    2    1    2    0    0  0.18444735998E+02  0.19300496119E+01  0.25969609117E+01  0.72461612641E+02  0.70000055164E+02 0.  0.
        -12    1    1    2    0    0 -0.18444735998E+02 -0.19300496119E+01 -0.25969609117E+01  0.18726387359E+02  0.00000000000E+00 0.  1.
         11    1    3    3    0    0  0.21650443727E+02  0.21912095120E+02  0.19609907733E+02  0.36516162281E+02  0.51100000000E-03 0. -1.
        -11    1    3    3    0    0 -0.10484843051E+02 -0.92696366940E+00 -0.95880806381E+01  0.14238064687E+02  0.51100000000E-03 0.  1.
        -12    1    3    3    0    0  0.72791353214E+01 -0.19055081839E+02 -0.74248661834E+01  0.21707385673E+02  0.00000000000E+00 0.  1.
</event>
<event>
 7    1  0.2809593E-013  0.7246151E+02  0.7816164E-02  0.1226708E+00
        -11   -1    0    0    0    0  0.00000000000E+00  0.00000000000E+00  0.45593999997E+02  0.45594000000E+02  0.51100000000E-03 0.  1.
         11   -1    0    0    0    0 -0.00000000000E+00 -0.00000000000E+00 -0.45593999997E+02  0.45594000000E+02  0.51100000000E-03 0. -1.
    9900012    2    1    2    0    0 -0.82698247309E+00  0.14891342973E+02 -0.11324548199E+02  0.72461511075E+02  0.69999922855E+02 0.  0.
        -12    1    1    2    0    0  0.82698247309E+00 -0.14891342973E+02  0.11324548199E+02  0.18726488925E+02  0.00000000000E+00 0.  1.
         11    1    3    3    0    0 -0.14123474648E+02  0.29112943055E+02 -0.93251837381E+01  0.33674842857E+02  0.51100000000E-03 0. -1.
        -11    1    3    3    0    0  0.23146957366E+01  0.10036410137E+02  0.47110583285E+01  0.11326138601E+02  0.51100000000E-03 0.  1.
        -12    1    3    3    0    0  0.10981796438E+02 -0.24258010219E+02 -0.67104227894E+01  0.27460529616E+02  0.00000000000E+00 0.  1.
</event>
<event>
 7    1  0.2809593E-013  0.7246153E+02  0.7816164E-02  0.1226708E+00
        -11   -1    0    0    0    0  0.00000000000E+00  0.00000000000E+00  0.45593999997E+02  0.45594000000E+02  0.51100000000E-03 0.  1.
         11   -1    0    0    0    0 -0.00000000000E+00 -0.00000000000E+00 -0.45593999997E+02  0.45594000000E+02  0.51100000000E-03 0. -1.
    9900012    2    1    2    0    0 -0.75988981198E+01 -0.53951608553E+01 -0.16242837109E+02  0.72461527544E+02  0.69999944310E+02 0.  0.
        -12    1    1    2    0    0  0.75988981198E+01  0.53951608553E+01  0.16242837109E+02  0.18726472456E+02  0.00000000000E+00 0.  1.
         11    1    3    3    0    0  0.60833277399E+01  0.25571885248E+02 -0.39734104622E+01  0.26584134037E+02  0.51100000000E-03 0. -1.
        -11    1    3    3    0    0 -0.20662343069E+01  0.31053703457E+01  0.47659046296E+01  0.60519828482E+01  0.51100000000E-03 0.  1.
        -12    1    3    3    0    0 -0.11615991553E+02 -0.34072416449E+02 -0.17035331276E+02  0.39825410659E+02  0.00000000000E+00 0.  1.
</event>
<event>
 7    1  0.2809593E-013  0.7246158E+02  0.7816164E-02  0.1226708E+00
        -11   -1    0    0    0    0  0.00000000000E+00  0.00000000000E+00  0.45593999997E+02  0.45594000000E+02  0.51100000000E-03 0.  1.
         11   -1    0    0    0    0 -0.00000000000E+00 -0.00000000000E+00 -0.45593999997E+02  0.45594000000E+02  0.51100000000E-03 0. -1.
    9900012    2    1    2    0    0 -0.31443058048E+00 -0.13820538813E+02 -0.12632212591E+02  0.72461576032E+02  0.70000007475E+02 0.  0.
        -12    1    1    2    0    0  0.31443058048E+00  0.13820538813E+02  0.12632212591E+02  0.18726423968E+02  0.00000000000E+00 0.  1.
         11    1    3    3    0    0  0.17099739794E+02 -0.30822036587E+01 -0.21646831200E+02  0.27757636457E+02  0.51100000000E-03 0. -1.
        -11    1    3    3    0    0  0.89950113247E+01 -0.13152331944E+02 -0.18586994972E+01  0.16042095511E+02  0.51100000000E-03 0.  1.
        -12    1    3    3    0    0 -0.26409181699E+02  0.24139967895E+01  0.10873318106E+02  0.28661844064E+02  0.00000000000E+00 0.  1.
</event>
<event>
 7    1  0.2809593E-013  0.7246155E+02  0.7816164E-02  0.1226708E+00
        -11   -1    0    0    0    0  0.00000000000E+00  0.00000000000E+00  0.45593999997E+02  0.45594000000E+02  0.51100000000E-03 0.  1.
         11   -1    0    0    0    0 -0.00000000000E+00 -0.00000000000E+00 -0.45593999997E+02  0.45594000000E+02  0.51100000000E-03 0. -1.
    9900012    2    1    2    0    0  0.45257185982E+01 -0.11427705921E+02 -0.14128175866E+02  0.72461549595E+02  0.69999973036E+02 0.  0.
        -12    1    1    2    0    0 -0.45257185982E+01  0.11427705921E+02  0.14128175866E+02  0.18726450405E+02  0.00000000000E+00 0.  1.
         11    1    3    3    0    0  0.24356589219E+02 -0.12851514989E+02 -0.98972071766E+01  0.29263622231E+02  0.51100000000E-03 0. -1.
        -11    1    3    3    0    0 -0.11415760724E+01 -0.18978259089E+01 -0.19011418128E+02  0.19139983245E+02  0.51100000000E-03 0.  1.
        -12    1    3    3    0    0 -0.18689294549E+02  0.33216349761E+01  0.14780449439E+02  0.24057944120E+02  0.00000000000E+00 0.  1.
</event>
<event>
 7    1  0.2809593E-013  0.7246155E+02  0.7816164E-02  0.1226708E+00
        -11   -1    0    0    0    0  0.00000000000E+00  0.00000000000E+00  0.45593999997E+02  0.45594000000E+02  0.51100000000E-03 0. -1.
         11   -1    0    0    0    0 -0.00000000000E+00 -0.00000000000E+00 -0.45593999997E+02  0.45594000000E+02  0.51100000000E-03 0.  1.
    9900012    2    1    2    0    0  0.17667479502E+02  0.52247853196E+01  0.33528772719E+01  0.72461548131E+02  0.69999971128E+02 0.  0.
        -12    1    1    2    0    0 -0.17667479502E+02 -0.52247853196E+01 -0.33528772719E+01  0.18726451869E+02  0.00000000000E+00 0.  1.
         11    1    3    3    0    0 -0.42710780426E+01  0.16988193029E+02 -0.27596053531E+01  0.17732913805E+02  0.51100000000E-03 0. -1.
        -11    1    3    3    0    0 -0.68990395604E+01  0.90102293707E+00 -0.15188269833E+02  0.16706050699E+02  0.51100000000E-03 0.  1.
         12    1    3    3    0    0  0.28837597105E+02 -0.12664430647E+02  0.21300752458E+02  0.38022583627E+02  0.00000000000E+00 0. -1.
</event>
<event>
 7    1  0.2809593E-013  0.7246160E+02  0.7816164E-02  0.1226708E+00
        -11   -1    0    0    0    0  0.00000000000E+00  0.00000000000E+00  0.45593999997E+02  0.45594000000E+02  0.51100000000E-03 0.  1.
         11   -1    0    0    0    0 -0.00000000000E+00 -0.00000000000E+00 -0.45593999997E+02  0.45594000000E+02  0.51100000000E-03 0. -1.
    9900012    2    1    2    0    0 -0.14493735901E+02  0.19472622768E+00 -0.11856291562E+02  0.72461602902E+02  0.70000042477E+02 0.  0.
        -12    1    1    2    0    0  0.14493735901E+02 -0.19472622768E+00  0.11856291562E+02  0.18726397098E+02  0.00000000000E+00 0.  1.
         11    1    3    3    0    0 -0.15266141624E+02 -0.12431967530E+02  0.25641316354E+02  0.32327789924E+02  0.51100000000E-03 0. -1.
        -11    1    3    3    0    0  0.31307444427E+01  0.28300444447E+01 -0.10433159440E+02  0.11254400405E+02  0.51100000000E-03 0.  1.
        -12    1    3    3    0    0 -0.23583387202E+01  0.97966493128E+01 -0.27064448476E+02  0.28879412573E+02  0.00000000000E+00 0.  1.
</event>
<event>
 7    1  0.2809593E-013  0.7246157E+02  0.7816164E-02  0.1226708E+00
        -11   -1    0    0    0    0  0.00000000000E+00  0.00000000000E+00  0.45593999997E+02  0.45594000000E+02  0.51100000000E-03 0.  1.
         11   -1    0    0    0    0 -0.00000000000E+00 -0.00000000000E+00 -0.45593999997E+02  0.45594000000E+02  0.51100000000E-03 0. -1.
    9900012    2    1    2    0    0 -0.81191633336E+01  0.11500175544E+02 -0.12349265904E+02  0.72461568969E+02  0.69999998274E+02 0.  0.
        -12    1    1    2    0    0  0.81191633336E+01 -0.11500175544E+02  0.12349265904E+02  0.18726431031E+02  0.00000000000E+00 0.  1.
         11    1    3    3    0    0  0.23418016572E+01 -0.12419467130E+00 -0.68662579639E+00  0.24435454904E+01  0.51100000000E-03 0. -1.
        -11    1    3    3    0    0 -0.18653353847E+02 -0.24950773711E+02 -0.90741938612E+01  0.32447337533E+02  0.51100000000E-03 0.  1.
         12    1    3    3    0    0  0.81923888560E+01  0.36575143927E+02 -0.25884462463E+01  0.37570685945E+02  0.00000000000E+00 0. -1.
</event>
<event>
 7    1  0.2809593E-013  0.7246156E+02  0.7816164E-02  0.1226708E+00
        -11   -1    0    0    0    0  0.00000000000E+00  0.00000000000E+00  0.45593999997E+02  0.45594000000E+02  0.51100000000E-03 0.  1.
         11   -1    0    0    0    0 -0.00000000000E+00 -0.00000000000E+00 -0.45593999997E+02  0.45594000000E+02  0.51100000000E-03 0. -1.
    9900012    2    1    2    0    0 -0.25906581337E+01 -0.27017492844E+01 -0.18348533761E+02  0.72461557467E+02  0.69999983291E+02 0.  0.
        -12    1    1    2    0    0  0.25906581337E+01  0.27017492844E+01  0.18348533761E+02  0.18726442533E+02  0.00000000000E+00 0.  1.
         11    1    3    3    0    0 -0.48147262223E+01 -0.43022760573E+01 -0.12719857772E+02  0.14264850153E+02  0.51100000000E-03 0. -1.
        -11    1    3    3    0    0 -0.32994610919E+01 -0.27351742225E+02  0.23827132200E+01  0.27652876321E+02  0.51100000000E-03 0.  1.
        -12    1    3    3    0    0  0.55235291806E+01  0.28952268998E+02 -0.80113892085E+01  0.30543830994E+02  0.00000000000E+00 0.  1.
</event>
<event>
 7    1  0.2809593E-013  0.7246157E+02  0.7816164E-02  0.1226708E+00
        -11   -1    0    0    0    0  0.00000000000E+00  0.00000000000E+00  0.45593999997E+02  0.45594000000E+02  0.51100000000E-03 0. -1.
         11   -1    0    0    0    0 -0.00000000000E+00 -0.00000000000E+00 -0.45593999997E+02  0.45594000000E+02  0.51100000000E-03 0.  1.
    9900012    2    1    2    0    0  0.34166666096E+01  0.18237748577E+02  0.25278817353E+01  0.72461567613E+02  0.69999996506E+02 0.  0.
        -12    1    1    2    0    0 -0.34166666096E+01 -0.18237748577E+02 -0.25278817353E+01  0.18726432387E+02  0.00000000000E+00 0.  1.
         11    1    3    3    0    0 -0.12291786826E+02 -0.10253215105E+02 -0.85247189916E+01  0.18135249585E+02  0.51100000000E-03 0. -1.
        -11    1    3    3    0    0  0.50257016893E+01 -0.68094824052E+01 -0.89931612580E+01  0.12349237943E+02  0.51100000000E-03 0.  1.
         12    1    3    3    0    0  0.10682751746E+02  0.35300446088E+02  0.20045761985E+02  0.41977080085E+02  0.00000000000E+00 0. -1.
</event>
<event>
 7    1  0.2809593E-013  0.7246176E+02  0.7816164E-02  0.1226708E+00
        -11   -1    0    0    0    0  0.00000000000E+00  0.00000000000E+00  0.45593999997E+02  0.45594000000E+02  0.51100000000E-03 0.  1.
         11   -1    0    0    0    0 -0.00000000000E+00 -0.00000000000E+00 -0.45593999997E+02  0.45594000000E+02  0.51100000000E-03 0. -1.
    9900012    2    1    2    0    0  0.51312128551E+01  0.95041482238E+01 -0.15297512678E+02  0.72461759775E+02  0.70000246834E+02 0.  0.
        -12    1    1    2    0    0 -0.51312128551E+01 -0.95041482238E+01  0.15297512678E+02  0.18726240225E+02  0.00000000000E+00 0.  1.
         11    1    3    3    0    0  0.10043968543E+02  0.31552763975E+01  0.56816263871E+01  0.11963191543E+02  0.51100000000E-03 0. -1.
        -11    1    3    3    0    0  0.38994354018E+01  0.65212840751E+01  0.18525225896E+02  0.20022905313E+02  0.51100000000E-03 0.  1.
         12    1    3    3    0    0 -0.88121910895E+01 -0.17241224880E+00 -0.39504364961E+02  0.40475662919E+02  0.00000000000E+00 0. -1.
</event>
<event>
 7    1  0.2809593E-013  0.7246156E+02  0.7816164E-02  0.1226708E+00
        -11   -1    0    0    0    0  0.00000000000E+00  0.00000000000E+00  0.45593999997E+02  0.45594000000E+02  0.51100000000E-03 0. -1.
         11   -1    0    0    0    0 -0.00000000000E+00 -0.00000000000E+00 -0.45593999997E+02  0.45594000000E+02  0.51100000000E-03 0.  1.
    9900012    2    1    2    0    0  0.10986039029E+02 -0.15164798932E+02 -0.12359064362E+00  0.72461562676E+02  0.69999990076E+02 0.  0.
        -12    1    1    2    0    0 -0.10986039029E+02  0.15164798932E+02  0.12359064362E+00  0.18726437324E+02  0.00000000000E+00 0.  1.
         11    1    3    3    0    0 -0.18507860191E+01  0.36781081770E+00  0.32213265932E+01  0.37333147426E+01  0.51100000000E-03 0. -1.
        -11    1    3    3    0    0 -0.22687358329E+02  0.40528125088E+01  0.11213150113E+02  0.25629597205E+02  0.51100000000E-03 0.  1.
         12    1    3    3    0    0  0.35524183377E+02 -0.19585422258E+02 -0.14558067350E+02  0.43098650728E+02  0.00000000000E+00 0. -1.
</event>
<event>
 7    1  0.2809593E-013  0.7246151E+02  0.7816164E-02  0.1226708E+00
        -11   -1    0    0    0    0  0.00000000000E+00  0.00000000000E+00  0.45593999997E+02  0.45594000000E+02  0.51100000000E-03 0.  1.
         11   -1    0    0    0    0 -0.00000000000E+00 -0.00000000000E+00 -0.45593999997E+02  0.45594000000E+02  0.51100000000E-03 0. -1.
    9900012    2    1    2    0    0  0.40287257842E+01 -0.41220241467E+00 -0.18283347838E+02  0.72461512064E+02  0.69999924143E+02 0.  0.
        -12    1    1    2    0    0 -0.40287257842E+01  0.41220241467E+00  0.18283347838E+02  0.18726487936E+02  0.00000000000E+00 0.  1.
         11    1    3    3    0    0  0.12000967632E+02  0.39837739653E+01  0.73897236285E+01  0.14645876371E+02  0.51100000000E-03 0. -1.
        -11    1    3    3    0    0  0.15328082399E+02  0.14810836800E+02 -0.76275016427E+01  0.22638237085E+02  0.51100000000E-03 0.  1.
         12    1    3    3    0    0 -0.23300324246E+02 -0.19206813180E+02 -0.18045569824E+02  0.35177398608E+02  0.00000000000E+00 0. -1.
</event>
<event>
 7    1  0.2809593E-013  0.7246158E+02  0.7816164E-02  0.1226708E+00
        -11   -1    0    0    0    0  0.00000000000E+00  0.00000000000E+00  0.45593999997E+02  0.45594000000E+02  0.51100000000E-03 0.  1.
         11   -1    0    0    0    0 -0.00000000000E+00 -0.00000000000E+00 -0.45593999997E+02  0.45594000000E+02  0.51100000000E-03 0. -1.
    9900012    2    1    2    0    0 -0.14317942342E+01 -0.16581895230E+02 -0.85831017682E+01  0.72461576954E+02  0.70000008675E+02 0.  0.
        -12    1    1    2    0    0  0.14317942342E+01  0.16581895230E+02  0.85831017682E+01  0.18726423046E+02  0.00000000000E+00 0.  1.
         11    1    3    3    0    0 -0.10808677678E+02 -0.23057221048E+02 -0.13200080244E+02  0.28682835883E+02  0.51100000000E-03 0. -1.
        -11    1    3    3    0    0  0.19934389079E+02 -0.10917120974E+02 -0.73752721005E+00  0.22739994392E+02  0.51100000000E-03 0.  1.
        -12    1    3    3    0    0 -0.10557505635E+02  0.17392446792E+02  0.53545056859E+01  0.21038746678E+02  0.00000000000E+00 0.  1.
</event>
<event>
 7    1  0.2809593E-013  0.7246193E+02  0.7816164E-02  0.1226707E+00
        -11   -1    0    0    0    0  0.00000000000E+00  0.00000000000E+00  0.45593999997E+02  0.45594000000E+02  0.51100000000E-03 0.  1.
         11   -1    0    0    0    0 -0.00000000000E+00 -0.00000000000E+00 -0.45593999997E+02  0.45594000000E+02  0.51100000000E-03 0. -1.
    9900012    2    1    2    0    0  0.12903583249E+00 -0.26545337980E+01 -0.18536519601E+02  0.72461928366E+02  0.70000466453E+02 0.  0.
        -12    1    1    2    0    0 -0.12903583249E+00  0.26545337980E+01  0.18536519601E+02  0.18726071634E+02  0.00000000000E+00 0.  1.
         11    1    3    3    0    0 -0.29756407841E+01 -0.11076750413E+02 -0.96208217294E+01  0.14970272168E+02  0.51100000000E-03 0. -1.
        -11    1    3    3    0    0  0.59673852091E-01 -0.16267485726E+02  0.15618818481E+02  0.22551765869E+02  0.51100000000E-03 0.  1.
        -12    1    3    3    0    0  0.30450027645E+01  0.24689702340E+02 -0.24534516353E+02  0.34939890328E+02  0.00000000000E+00 0.  1.
</event>
<event>
 7    1  0.2809593E-013  0.7246153E+02  0.7816164E-02  0.1226708E+00
        -11   -1    0    0    0    0  0.00000000000E+00  0.00000000000E+00  0.45593999997E+02  0.45594000000E+02  0.51100000000E-03 0.  1.
         11   -1    0    0    0    0 -0.00000000000E+00 -0.00000000000E+00 -0.45593999997E+02  0.45594000000E+02  0.51100000000E-03 0. -1.
    9900012    2    1    2    0    0 -0.15270079310E+02 -0.86925407416E+01 -0.64764984220E+01  0.72461531606E+02  0.69999949602E+02 0.  0.
        -12    1    1    2    0    0  0.15270079310E+02  0.86925407416E+01  0.64764984220E+01  0.18726468394E+02  0.00000000000E+00 0.  1.
         11    1    3    3    0    0 -0.18559158025E+01 -0.10360531013E+01 -0.14673738490E+02  0.14826882040E+02  0.51100000000E-03 0. -1.
        -11    1    3    3    0    0 -0.33129745862E+02 -0.99138792374E+01 -0.32358500899E+01  0.34732344989E+02  0.51100000000E-03 0.  1.
        -12    1    3    3    0    0  0.19715582354E+02  0.22573915971E+01  0.11433090158E+02  0.22902304577E+02  0.00000000000E+00 0.  1.
</event>
<event>
 7    1  0.2809593E-013  0.7246151E+02  0.7816164E-02  0.1226708E+00
        -11   -1    0    0    0    0  0.00000000000E+00  0.00000000000E+00  0.45593999997E+02  0.45594000000E+02  0.51100000000E-03 0.  1.
         11   -1    0    0    0    0 -0.00000000000E+00 -0.00000000000E+00 -0.45593999997E+02  0.45594000000E+02  0.51100000000E-03 0. -1.
    9900012    2    1    2    0    0 -0.94472104401E+01  0.10024240041E+02 -0.12686463391E+02  0.72461507353E+02  0.69999918007E+02 0.  0.
        -12    1    1    2    0    0  0.94472104401E+01 -0.10024240041E+02  0.12686463391E+02  0.18726492647E+02  0.00000000000E+00 0.  1.
         11    1    3    3    0    0 -0.16327544807E+02  0.47215145817E+01  0.34876833484E+01  0.17350658627E+02  0.51100000000E-03 0. -1.
        -11    1    3    3    0    0 -0.29837271166E+01 -0.16497223021E+02  0.10101427054E+02  0.19572936001E+02  0.51100000000E-03 0.  1.
         12    1    3    3    0    0  0.98640614836E+01  0.21799948480E+02 -0.26275573793E+02  0.35537912725E+02  0.00000000000E+00 0. -1.
</event>
<event>
 7    1  0.2809593E-013  0.7246118E+02  0.7816164E-02  0.1226709E+00
        -11   -1    0    0    0    0  0.00000000000E+00  0.00000000000E+00  0.45593999997E+02  0.45594000000E+02  0.51100000000E-03 0. -1.
         11   -1    0    0    0    0 -0.00000000000E+00 -0.00000000000E+00 -0.45593999997E+02  0.45594000000E+02  0.51100000000E-03 0.  1.
    9900012    2    1    2    0    0 -0.11715980157E+01 -0.18651728940E+02  0.11975684127E+01  0.72461179542E+02  0.69999490970E+02 0.  0.
        -12    1    1    2    0    0  0.11715980157E+01  0.18651728940E+02 -0.11975684127E+01  0.18726820458E+02  0.00000000000E+00 0.  1.
         11    1    3    3    0    0 -0.26534805810E+01  0.89374099533E+01  0.61235252395E+01  0.11154183856E+02  0.51100000000E-03 0. -1.
        -11    1    3    3    0    0 -0.96146031665E+00  0.15939126514E+02  0.47295484812E+01  0.16653792032E+02  0.51100000000E-03 0.  1.
        -12    1    3    3    0    0  0.24433428820E+01 -0.43528265407E+02 -0.96555053079E+01  0.44653203654E+02  0.00000000000E+00 0.  1.
</event>
<event>
 7    1  0.2809593E-013  0.7246162E+02  0.7816164E-02  0.1226708E+00
        -11   -1    0    0    0    0  0.00000000000E+00  0.00000000000E+00  0.45593999997E+02  0.45594000000E+02  0.51100000000E-03 0. -1.
         11   -1    0    0    0    0 -0.00000000000E+00 -0.00000000000E+00 -0.45593999997E+02  0.45594000000E+02  0.51100000000E-03 0.  1.
    9900012    2    1    2    0    0 -0.15526720647E+02  0.19208060979E+01 -0.10291196121E+02  0.72461621073E+02  0.70000066148E+02 0.  0.
        -12    1    1    2    0    0  0.15526720647E+02 -0.19208060979E+01  0.10291196121E+02  0.18726378927E+02  0.00000000000E+00 0.  1.
         11    1    3    3    0    0 -0.22373340640E+02  0.21425365119E+01 -0.16042757615E+02  0.27613889735E+02  0.51100000000E-03 0. -1.
        -11    1    3    3    0    0 -0.19071381964E+01 -0.86464795788E+01 -0.16936591756E+02  0.19111434425E+02  0.51100000000E-03 0.  1.
         12    1    3    3    0    0  0.87537581893E+01  0.84247491647E+01  0.22688153250E+02  0.25736296913E+02  0.00000000000E+00 0. -1.
</event>
<event>
 7    1  0.2809593E-013  0.7246155E+02  0.7816164E-02  0.1226708E+00
        -11   -1    0    0    0    0  0.00000000000E+00  0.00000000000E+00  0.45593999997E+02  0.45594000000E+02  0.51100000000E-03 0. -1.
         11   -1    0    0    0    0 -0.00000000000E+00 -0.00000000000E+00 -0.45593999997E+02  0.45594000000E+02  0.51100000000E-03 0.  1.
    9900012    2    1    2    0    0  0.63463558894E+01 -0.15519735065E+01  0.17549791041E+02  0.72461547575E+02  0.69999970404E+02 0.  0.
        -12    1    1    2    0    0 -0.63463558894E+01  0.15519735065E+01 -0.17549791041E+02  0.18726452425E+02  0.00000000000E+00 0.  1.
         11    1    3    3    0    0  0.18235113544E+02 -0.17902660949E+01 -0.35774555493E+00  0.18326276239E+02  0.51100000000E-03 0. -1.
        -11    1    3    3    0    0 -0.31977940673E+01 -0.77911083628E+00 -0.17426129085E+02  0.17734228930E+02  0.51100000000E-03 0.  1.
         12    1    3    3    0    0 -0.86909635874E+01  0.10174034246E+01  0.35333665681E+02  0.36401042406E+02  0.00000000000E+00 0. -1.
</event>
<event>
 7    1  0.2809593E-013  0.7246151E+02  0.7816164E-02  0.1226708E+00
        -11   -1    0    0    0    0  0.00000000000E+00  0.00000000000E+00  0.45593999997E+02  0.45594000000E+02  0.51100000000E-03 0. -1.
         11   -1    0    0    0    0 -0.00000000000E+00 -0.00000000000E+00 -0.45593999997E+02  0.45594000000E+02  0.51100000000E-03 0.  1.
    9900012    2    1    2    0    0  0.15840494425E+02 -0.39290735422E+01  0.91827322289E+01  0.72461509306E+02  0.69999920551E+02 0.  0.
        -12    1    1    2    0    0 -0.15840494425E+02  0.39290735422E+01 -0.91827322289E+01  0.18726490694E+02  0.00000000000E+00 0.  1.
         11    1    3    3    0    0  0.20998110401E+02  0.10393825397E+01 -0.64584659696E+01  0.21993470381E+02  0.51100000000E-03 0.  1.
        -11    1    3    3    0    0  0.60910794787E+01 -0.15083914141E+02  0.27019586652E+02  0.31538607740E+02  0.51100000000E-03 0. -1.
        -12    1    3    3    0    0 -0.11248695455E+02  0.10115458059E+02 -0.11378388454E+02  0.18929431185E+02  0.00000000000E+00 0.  1.
</event>
<event>
 7    1  0.2809593E-013  0.7246156E+02  0.7816164E-02  0.1226708E+00
        -11   -1    0    0    0    0  0.00000000000E+00  0.00000000000E+00  0.45593999997E+02  0.45594000000E+02  0.51100000000E-03 0.  1.
         11   -1    0    0    0    0 -0.00000000000E+00 -0.00000000000E+00 -0.45593999997E+02  0.45594000000E+02  0.51100000000E-03 0. -1.
    9900012    2    1    2    0    0 -0.77206724857E+01  0.53089781357E+01 -0.16213744971E+02  0.72461559910E+02  0.69999986472E+02 0.  0.
        -12    1    1    2    0    0  0.77206724857E+01 -0.53089781357E+01  0.16213744971E+02  0.18726440090E+02  0.00000000000E+00 0.  1.
         11    1    3    3    0    0 -0.35993716186E+02 -0.83815231115E+01 -0.23595462234E+01  0.37031945576E+02  0.51100000000E-03 0. -1.
        -11    1    3    3    0    0  0.14687105734E+02  0.22906643167E+01 -0.67273963927E+01  0.16316129453E+02  0.51100000000E-03 0.  1.
        -12    1    3    3    0    0  0.13585937966E+02  0.11399836931E+02 -0.71268023544E+01  0.19113484880E+02  0.00000000000E+00 0.  1.
</event>
<event>
 7    1  0.2809593E-013  0.7246152E+02  0.7816164E-02  0.1226708E+00
        -11   -1    0    0    0    0  0.00000000000E+00  0.00000000000E+00  0.45593999997E+02  0.45594000000E+02  0.51100000000E-03 0. -1.
         11   -1    0    0    0    0 -0.00000000000E+00 -0.00000000000E+00 -0.45593999997E+02  0.45594000000E+02  0.51100000000E-03 0.  1.
    9900012    2    1    2    0    0  0.12180633251E+02  0.14177210786E+02 -0.11488158471E+01  0.72461523826E+02  0.69999939466E+02 0.  0.
        -12    1    1    2    0    0 -0.12180633251E+02 -0.14177210786E+02  0.11488158471E+01  0.18726476174E+02  0.00000000000E+00 0.  1.
         11    1    3    3    0    0  0.40436896718E+00  0.63782461092E+01 -0.10667089345E+01  0.64794603096E+01  0.51100000000E-03 0. -1.
        -11    1    3    3    0    0  0.28615381408E+02  0.59115460013E+01 -0.23206586778E+02  0.37313966547E+02  0.51100000000E-03 0.  1.
         12    1    3    3    0    0 -0.16839117125E+02  0.18874186752E+01  0.23124479866E+02  0.28668096970E+02  0.00000000000E+00 0. -1.
</event>
<event>
 7    1  0.2809593E-013  0.7246112E+02  0.7816164E-02  0.1226709E+00
        -11   -1    0    0    0    0  0.00000000000E+00  0.00000000000E+00  0.45593999997E+02  0.45594000000E+02  0.51100000000E-03 0. -1.
         11   -1    0    0    0    0 -0.00000000000E+00 -0.00000000000E+00 -0.45593999997E+02  0.45594000000E+02  0.51100000000E-03 0.  1.
    9900012    2    1    2    0    0  0.95786719278E+01  0.15255418777E+02  0.51202640950E+01  0.72461124597E+02  0.69999419393E+02 0.  0.
        -12    1    1    2    0    0 -0.95786719278E+01 -0.15255418777E+02 -0.51202640950E+01  0.18726875403E+02  0.00000000000E+00 0.  1.
         11    1    3    3    0    0  0.91129600137E+01  0.10496514309E+02  0.69216247671E+01  0.15528417258E+02  0.51100000000E-03 0. -1.
        -11    1    3    3    0    0 -0.22781972500E+02  0.14596376106E+01  0.15649239706E+02  0.27677563415E+02  0.51100000000E-03 0.  1.
         12    1    3    3    0    0  0.23247684414E+02  0.32992668574E+01 -0.17450600378E+02  0.29255143924E+02  0.00000000000E+00 0. -1.
</event>
<event>
 7    1  0.2809593E-013  0.7246158E+02  0.7816164E-02  0.1226708E+00
        -11   -1    0    0    0    0  0.00000000000E+00  0.00000000000E+00  0.45593999997E+02  0.45594000000E+02  0.51100000000E-03 0.  1.
         11   -1    0    0    0    0 -0.00000000000E+00 -0.00000000000E+00 -0.45593999997E+02  0.45594000000E+02  0.51100000000E-03 0. -1.
    9900012    2    1    2    0    0 -0.46889815495E+01 -0.13743649842E+02 -0.11823891284E+02  0.72461578451E+02  0.70000010625E+02 0.  0.
        -12    1    1    2    0    0  0.46889815495E+01  0.13743649842E+02  0.11823891284E+02  0.18726421549E+02  0.00000000000E+00 0.  1.
         11    1    3    3    0    0  0.68305146488E+01 -0.36910744275E+02 -0.10645363609E+02  0.39017723408E+02  0.51100000000E-03 0. -1.
        -11    1    3    3    0    0  0.29132605998E+01 -0.12951684534E+01  0.34153387415E+01  0.46721609161E+01  0.51100000000E-03 0.  1.
        -12    1    3    3    0    0 -0.14432756798E+02  0.24462262886E+02 -0.45938664156E+01  0.28771694127E+02  0.00000000000E+00 0.  1.
</event>
<event>
 7    1  0.2809593E-013  0.7246155E+02  0.7816164E-02  0.1226708E+00
        -11   -1    0    0    0    0  0.00000000000E+00  0.00000000000E+00  0.45593999997E+02  0.45594000000E+02  0.51100000000E-03 0.  1.
         11   -1    0    0    0    0 -0.00000000000E+00 -0.00000000000E+00 -0.45593999997E+02  0.45594000000E+02  0.51100000000E-03 0. -1.
    9900012    2    1    2    0    0  0.55891370694E+01 -0.12246216461E+02 -0.13018134955E+02  0.72461545224E+02  0.69999967341E+02 0.  0.
        -12    1    1    2    0    0 -0.55891370694E+01  0.12246216461E+02  0.13018134955E+02  0.18726454776E+02  0.00000000000E+00 0.  1.
         11    1    3    3    0    0 -0.23677092144E+02  0.37699294604E+01 -0.11409810440E+01  0.24002476925E+02  0.51100000000E-03 0. -1.
        -11    1    3    3    0    0 -0.22579716969E+01 -0.41177066468E+01 -0.13931352762E+02  0.14701582712E+02  0.51100000000E-03 0.  1.
        -12    1    3    3    0    0  0.31524200910E+02 -0.11898439275E+02  0.20541988507E+01  0.33757485587E+02  0.00000000000E+00 0.  1.
</event>
<event>
 7    1  0.2809593E-013  0.7246166E+02  0.7816164E-02  0.1226708E+00
        -11   -1    0    0    0    0  0.00000000000E+00  0.00000000000E+00  0.45593999997E+02  0.45594000000E+02  0.51100000000E-03 0.  1.
         11   -1    0    0    0    0 -0.00000000000E+00 -0.00000000000E+00 -0.45593999997E+02  0.45594000000E+02  0.51100000000E-03 0. -1.
    9900012    2    1    2    0    0 -0.17462441714E+01  0.97251542931E+01 -0.15907482365E+02  0.72461655190E+02  0.70000110593E+02 0.  0.
        -12    1    1    2    0    0  0.17462441714E+01 -0.97251542931E+01  0.15907482365E+02  0.18726344810E+02  0.00000000000E+00 0.  1.
         11    1    3    3    0    0  0.80306617206E+01  0.80764749142E+01 -0.32126011649E+02  0.34085210861E+02  0.51100000000E-03 0. -1.
        -11    1    3    3    0    0  0.54735147997E+01 -0.12682925767E+02  0.55570863218E+01  0.14889498948E+02  0.51100000000E-03 0.  1.
        -12    1    3    3    0    0 -0.15250420692E+02  0.14331605145E+02  0.10661442962E+02  0.23486945382E+02  0.00000000000E+00 0.  1.
</event>
<event>
 7    1  0.2809593E-013  0.7246136E+02  0.7816164E-02  0.1226709E+00
        -11   -1    0    0    0    0  0.00000000000E+00  0.00000000000E+00  0.45593999997E+02  0.45594000000E+02  0.51100000000E-03 0.  1.
         11   -1    0    0    0    0 -0.00000000000E+00 -0.00000000000E+00 -0.45593999997E+02  0.45594000000E+02  0.51100000000E-03 0. -1.
    9900012    2    1    2    0    0 -0.17037823138E+02 -0.76932323694E+01 -0.11017901325E+01  0.72461356332E+02  0.69999721273E+02 0.  0.
        -12    1    1    2    0    0  0.17037823138E+02  0.76932323694E+01  0.11017901325E+01  0.18726643668E+02  0.00000000000E+00 0.  1.
         11    1    3    3    0    0 -0.89858211364E+00  0.20354481978E+02  0.37456585548E+01  0.20715751125E+02  0.51100000000E-03 0. -1.
        -11    1    3    3    0    0 -0.83869889904E+01 -0.24121774959E+02  0.15323342945E+02  0.29782653521E+02  0.51100000000E-03 0.  1.
         12    1    3    3    0    0 -0.77522520344E+01 -0.39259393888E+01 -0.20170791632E+02  0.21962951686E+02  0.00000000000E+00 0. -1.
</event>
<event>
 7    1  0.2809593E-013  0.7246143E+02  0.7816164E-02  0.1226708E+00
        -11   -1    0    0    0    0  0.00000000000E+00  0.00000000000E+00  0.45593999997E+02  0.45594000000E+02  0.51100000000E-03 0.  1.
         11   -1    0    0    0    0 -0.00000000000E+00 -0.00000000000E+00 -0.45593999997E+02  0.45594000000E+02  0.51100000000E-03 0. -1.
    9900012    2    1    2    0    0  0.11403954036E+01  0.11304866731E+02 -0.14885692190E+02  0.72461432097E+02  0.69999819971E+02 0.  0.
        -12    1    1    2    0    0 -0.11403954036E+01 -0.11304866731E+02  0.14885692190E+02  0.18726567903E+02  0.00000000000E+00 0.  1.
         11    1    3    3    0    0 -0.84221894809E+01  0.23472889534E+02 -0.12266918998E+02  0.27791853495E+02  0.51100000000E-03 0. -1.
        -11    1    3    3    0    0  0.21841357478E+02 -0.32821953336E+01 -0.13613455646E+02  0.25945016430E+02  0.51100000000E-03 0.  1.
        -12    1    3    3    0    0 -0.12278772593E+02 -0.88858274698E+01  0.10994682454E+02  0.18724562171E+02  0.00000000000E+00 0.  1.
</event>
<event>
 7    1  0.2809593E-013  0.7246163E+02  0.7816164E-02  0.1226708E+00
        -11   -1    0    0    0    0  0.00000000000E+00  0.00000000000E+00  0.45593999997E+02  0.45594000000E+02  0.51100000000E-03 0. -1.
         11   -1    0    0    0    0 -0.00000000000E+00 -0.00000000000E+00 -0.45593999997E+02  0.45594000000E+02  0.51100000000E-03 0.  1.
    9900012    2    1    2    0    0  0.73217774252E+01  0.16635191166E+02  0.45098714503E+01  0.72461629548E+02  0.70000077189E+02 0.  0.
        -12    1    1    2    0    0 -0.73217774252E+01 -0.16635191166E+02 -0.45098714503E+01  0.18726370452E+02  0.00000000000E+00 0.  1.
         11    1    3    3    0    0 -0.11526225713E+02 -0.11263344644E+01 -0.41975704525E+01  0.12318364603E+02  0.51100000000E-03 0.  1.
        -11    1    3    3    0    0  0.37556479767E+02  0.94647485703E+01  0.27505549566E+01  0.38828291114E+02  0.51100000000E-03 0. -1.
         12    1    3    3    0    0 -0.18708476629E+02  0.82967770602E+01  0.59568869461E+01  0.21314973832E+02  0.00000000000E+00 0. -1.
</event>
<event>
 7    1  0.2862616E-013  0.7246159E+02  0.7816164E-02  0.1226708E+00
        -11   -1    0    0    0    0  0.00000000000E+00  0.00000000000E+00  0.45593999997E+02  0.45594000000E+02  0.51100000000E-03 0. -1.
         11   -1    0    0    0    0 -0.00000000000E+00 -0.00000000000E+00 -0.45593999997E+02  0.45594000000E+02  0.51100000000E-03 0.  1.
    9900012    2    1    2    0    0 -0.36942368070E+01 -0.71628643279E+01  0.16903387239E+02  0.72461587874E+02  0.70000022901E+02 0.  0.
        -12    1    1    2    0    0  0.36942368070E+01  0.71628643279E+01 -0.16903387239E+02  0.18726412126E+02  0.00000000000E+00 0.  1.
         11    1    3    3    0    0 -0.22143032244E+02 -0.53116876977E+01  0.19694282598E+02  0.30106355981E+02  0.51100000000E-03 0. -1.
        -11    1    3    3    0    0  0.98439309838E+01  0.87148918230E+01  0.14999446632E+02  0.19945819518E+02  0.51100000000E-03 0.  1.
        -12    1    3    3    0    0  0.86048644531E+01 -0.10566068453E+02 -0.17790341992E+02  0.22409412375E+02  0.00000000000E+00 0.  1.
</event>
<event>
 7    1  0.2809593E-013  0.7246155E+02  0.7816164E-02  0.1226708E+00
        -11   -1    0    0    0    0  0.00000000000E+00  0.00000000000E+00  0.45593999997E+02  0.45594000000E+02  0.51100000000E-03 0. -1.
         11   -1    0    0    0    0 -0.00000000000E+00 -0.00000000000E+00 -0.45593999997E+02  0.45594000000E+02  0.51100000000E-03 0.  1.
    9900012    2    1    2    0    0  0.11292168138E+02  0.39689930739E+01  0.14401867780E+02  0.72461554453E+02  0.69999979364E+02 0.  0.
        -12    1    1    2    0    0 -0.11292168138E+02 -0.39689930739E+01 -0.14401867780E+02  0.18726445547E+02  0.00000000000E+00 0.  1.
         11    1    3    3    0    0  0.80695039407E+01  0.89814050510E+00 -0.28732366108E+01  0.86127254164E+01  0.51100000000E-03 0. -1.
        -11    1    3    3    0    0  0.21734995895E+02 -0.20473719067E+02  0.12620786357E+01  0.29886051291E+02  0.51100000000E-03 0.  1.
         12    1    3    3    0    0 -0.18512331698E+02  0.23544571635E+02  0.16013025755E+02  0.33962777746E+02  0.00000000000E+00 0. -1.
</event>
<event>
 7    1  0.2809593E-013  0.7246161E+02  0.7816164E-02  0.1226708E+00
        -11   -1    0    0    0    0  0.00000000000E+00  0.00000000000E+00  0.45593999997E+02  0.45594000000E+02  0.51100000000E-03 0.  1.
         11   -1    0    0    0    0 -0.00000000000E+00 -0.00000000000E+00 -0.45593999997E+02  0.45594000000E+02  0.51100000000E-03 0. -1.
    9900012    2    1    2    0    0 -0.56815816348E+01 -0.14520708362E+02 -0.10370461921E+02  0.72461606282E+02  0.70000046881E+02 0.  0.
        -12    1    1    2    0    0  0.56815816348E+01  0.14520708362E+02  0.10370461921E+02  0.18726393718E+02  0.00000000000E+00 0.  1.
         11    1    3    3    0    0 -0.11758919686E+02  0.20389160411E+02  0.27896459056E+01  0.23701733670E+02  0.51100000000E-03 0. -1.
        -11    1    3    3    0    0  0.10347852825E+02  0.11510219534E+01 -0.97552844073E+00  0.10457273336E+02  0.51100000000E-03 0.  1.
         12    1    3    3    0    0 -0.42705147744E+01 -0.36060890727E+02 -0.12184579386E+02  0.38302599276E+02  0.00000000000E+00 0. -1.
</event>
<event>
 7    1  0.2809593E-013  0.7246157E+02  0.7816164E-02  0.1226708E+00
        -11   -1    0    0    0    0  0.00000000000E+00  0.00000000000E+00  0.45593999997E+02  0.45594000000E+02  0.51100000000E-03 0. -1.
         11   -1    0    0    0    0 -0.00000000000E+00 -0.00000000000E+00 -0.45593999997E+02  0.45594000000E+02  0.51100000000E-03 0.  1.
    9900012    2    1    2    0    0 -0.54063792253E+01  0.65419068533E+01  0.16692922551E+02  0.72461570952E+02  0.70000000857E+02 0.  0.
        -12    1    1    2    0    0  0.54063792253E+01 -0.65419068533E+01 -0.16692922551E+02  0.18726429048E+02  0.00000000000E+00 0.  1.
         11    1    3    3    0    0 -0.28013038570E+02 -0.33512260792E+00  0.28943297370E+02  0.40280976900E+02  0.51100000000E-03 0. -1.
        -11    1    3    3    0    0 -0.15417490394E+01 -0.16941454492E+01  0.18395566156E+01  0.29378712883E+01  0.51100000000E-03 0.  1.
        -12    1    3    3    0    0  0.24148408384E+02  0.85711749104E+01 -0.14089931435E+02  0.29242722764E+02  0.00000000000E+00 0.  1.
</event>
<event>
 7    1  0.2809593E-013  0.7246154E+02  0.7816164E-02  0.1226708E+00
        -11   -1    0    0    0    0  0.00000000000E+00  0.00000000000E+00  0.45593999997E+02  0.45594000000E+02  0.51100000000E-03 0. -1.
         11   -1    0    0    0    0 -0.00000000000E+00 -0.00000000000E+00 -0.45593999997E+02  0.45594000000E+02  0.51100000000E-03 0.  1.
    9900012    2    1    2    0    0 -0.11719290048E+02 -0.10113696967E+02  0.10538113236E+02  0.72461535941E+02  0.69999955248E+02 0.  0.
        -12    1    1    2    0    0  0.11719290048E+02  0.10113696967E+02 -0.10538113236E+02  0.18726464059E+02  0.00000000000E+00 0.  1.
         11    1    3    3    0    0  0.61220721180E+01 -0.56603994784E+01  0.20542956302E+01  0.85872009451E+01  0.51100000000E-03 0. -1.
        -11    1    3    3    0    0  0.13369766281E+02 -0.20519549457E+02  0.14197987561E+02  0.28308751498E+02  0.51100000000E-03 0.  1.
         12    1    3    3    0    0 -0.31211128447E+02  0.16066251968E+02 -0.57141699547E+01  0.35565583498E+02  0.00000000000E+00 0. -1.
</event>
<event>
 7    1  0.2809593E-013  0.7246156E+02  0.7816164E-02  0.1226708E+00
        -11   -1    0    0    0    0  0.00000000000E+00  0.00000000000E+00  0.45593999997E+02  0.45594000000E+02  0.51100000000E-03 0.  1.
         11   -1    0    0    0    0 -0.00000000000E+00 -0.00000000000E+00 -0.45593999997E+02  0.45594000000E+02  0.51100000000E-03 0. -1.
    9900012    2    1    2    0    0 -0.10269056137E+02  0.15402124792E+02  0.28284991533E+01  0.72461564955E+02  0.69999993044E+02 0.  0.
        -12    1    1    2    0    0  0.10269056137E+02 -0.15402124792E+02 -0.28284991533E+01  0.18726435045E+02  0.00000000000E+00 0.  1.
         11    1    3    3    0    0 -0.17729014425E+02  0.10364645642E+02  0.85942255084E+01  0.22262177435E+02  0.51100000000E-03 0. -1.
        -11    1    3    3    0    0  0.36447180540E+01 -0.20302271891E+02  0.67202653680E+01  0.21693966454E+02  0.51100000000E-03 0.  1.
         12    1    3    3    0    0  0.38152402343E+01  0.25339751041E+02 -0.12485991723E+02  0.28505421066E+02  0.00000000000E+00 0. -1.
</event>
<event>
 7    1  0.2809593E-013  0.7246155E+02  0.7816164E-02  0.1226708E+00
        -11   -1    0    0    0    0  0.00000000000E+00  0.00000000000E+00  0.45593999997E+02  0.45594000000E+02  0.51100000000E-03 0. -1.
         11   -1    0    0    0    0 -0.00000000000E+00 -0.00000000000E+00 -0.45593999997E+02  0.45594000000E+02  0.51100000000E-03 0.  1.
    9900012    2    1    2    0    0  0.16065119685E+02  0.95930734266E+01  0.75159223160E+00  0.72461547610E+02  0.69999970449E+02 0.  0.
        -12    1    1    2    0    0 -0.16065119685E+02 -0.95930734266E+01 -0.75159223160E+00  0.18726452390E+02  0.00000000000E+00 0.  1.
         11    1    3    3    0    0  0.60940904072E+01  0.23171917974E+02  0.21482699580E+02  0.32180461494E+02  0.51100000000E-03 0. -1.
        -11    1    3    3    0    0 -0.94699773820E+01 -0.23472940663E+01 -0.13572402464E+02  0.16715273553E+02  0.51100000000E-03 0.  1.
        -12    1    3    3    0    0  0.19441006659E+02 -0.11231550481E+02 -0.71587048840E+01  0.23565812563E+02  0.00000000000E+00 0.  1.
</event>
<event>
 7    1  0.2809593E-013  0.7246158E+02  0.7816164E-02  0.1226708E+00
        -11   -1    0    0    0    0  0.00000000000E+00  0.00000000000E+00  0.45593999997E+02  0.45594000000E+02  0.51100000000E-03 0. -1.
         11   -1    0    0    0    0 -0.00000000000E+00 -0.00000000000E+00 -0.45593999997E+02  0.45594000000E+02  0.51100000000E-03 0.  1.
    9900012    2    1    2    0    0 -0.93512680134E+01  0.39015990696E+00  0.16219752531E+02  0.72461579883E+02  0.70000012491E+02 0.  0.
        -12    1    1    2    0    0  0.93512680134E+01 -0.39015990696E+00 -0.16219752531E+02  0.18726420117E+02  0.00000000000E+00 0.  1.
         11    1    3    3    0    0  0.14576507455E+02 -0.88152415127E+00  0.30554418635E+02  0.33864792230E+02  0.51100000000E-03 0. -1.
        -11    1    3    3    0    0 -0.18924943079E+02 -0.39121967962E+00  0.41469770939E+01  0.19377924106E+02  0.51100000000E-03 0.  1.
        -12    1    3    3    0    0 -0.50028323900E+01  0.16629037379E+01 -0.18481643198E+02  0.19218863547E+02  0.00000000000E+00 0.  1.
</event>
<event>
 7    1  0.2809593E-013  0.7246156E+02  0.7816164E-02  0.1226708E+00
        -11   -1    0    0    0    0  0.00000000000E+00  0.00000000000E+00  0.45593999997E+02  0.45594000000E+02  0.51100000000E-03 0.  1.
         11   -1    0    0    0    0 -0.00000000000E+00 -0.00000000000E+00 -0.45593999997E+02  0.45594000000E+02  0.51100000000E-03 0. -1.
    9900012    2    1    2    0    0  0.24860729159E+01  0.14251487827E+02 -0.11890920392E+02  0.72461562763E+02  0.69999990190E+02 0.  0.
        -12    1    1    2    0    0 -0.24860729159E+01 -0.14251487827E+02  0.11890920392E+02  0.18726437237E+02  0.00000000000E+00 0.  1.
         11    1    3    3    0    0 -0.14091125256E+02 -0.93352851838E+01 -0.16384908207E+02  0.23540870367E+02  0.51100000000E-03 0. -1.
        -11    1    3    3    0    0  0.52559584785E+01 -0.99493634937E+01 -0.49408440270E+01  0.12289299143E+02  0.51100000000E-03 0.  1.
        -12    1    3    3    0    0  0.11321239693E+02  0.33536136504E+02  0.94348318422E+01  0.36631393254E+02  0.00000000000E+00 0.  1.
</event>
<event>
 7    1  0.2809593E-013  0.7246150E+02  0.7816164E-02  0.1226708E+00
        -11   -1    0    0    0    0  0.00000000000E+00  0.00000000000E+00  0.45593999997E+02  0.45594000000E+02  0.51100000000E-03 0.  1.
         11   -1    0    0    0    0 -0.00000000000E+00 -0.00000000000E+00 -0.45593999997E+02  0.45594000000E+02  0.51100000000E-03 0. -1.
    9900012    2    1    2    0    0  0.10522746438E+02 -0.14625092932E+02 -0.51049429937E+01  0.72461495285E+02  0.69999902287E+02 0.  0.
        -12    1    1    2    0    0 -0.10522746438E+02  0.14625092932E+02  0.51049429937E+01  0.18726504715E+02  0.00000000000E+00 0.  1.
         11    1    3    3    0    0  0.25337464919E+02 -0.25448823508E+01 -0.83762785733E+01  0.26807193022E+02  0.51100000000E-03 0. -1.
        -11    1    3    3    0    0  0.12935688988E+02  0.23178299635E+01 -0.36395070369E+01  0.13636363044E+02  0.51100000000E-03 0.  1.
         12    1    3    3    0    0 -0.27750407469E+02 -0.14398040545E+02  0.69108426164E+01  0.32017939220E+02  0.00000000000E+00 0. -1.
</event>
<event>
 7    1  0.2809593E-013  0.7246156E+02  0.7816164E-02  0.1226708E+00
        -11   -1    0    0    0    0  0.00000000000E+00  0.00000000000E+00  0.45593999997E+02  0.45594000000E+02  0.51100000000E-03 0.  1.
         11   -1    0    0    0    0 -0.00000000000E+00 -0.00000000000E+00 -0.45593999997E+02  0.45594000000E+02  0.51100000000E-03 0. -1.
    9900012    2    1    2    0    0 -0.16842258021E+02 -0.33130892422E+01 -0.74860641042E+01  0.72461564905E+02  0.69999992980E+02 0.  0.
        -12    1    1    2    0    0  0.16842258021E+02  0.33130892422E+01  0.74860641042E+01  0.18726435095E+02  0.00000000000E+00 0.  1.
         11    1    3    3    0    0  0.87334579086E-01  0.93691813274E+01  0.16762577592E+01  0.95183520848E+01  0.51100000000E-03 0. -1.
        -11    1    3    3    0    0  0.10626447521E+02  0.17780506031E+02  0.59807819964E+00  0.20722583802E+02  0.51100000000E-03 0.  1.
        -12    1    3    3    0    0 -0.27556040121E+02 -0.30462776600E+02 -0.97604000630E+01  0.42220629019E+02  0.00000000000E+00 0.  1.
</event>
<event>
 7    1  0.2809593E-013  0.7246158E+02  0.7816164E-02  0.1226708E+00
        -11   -1    0    0    0    0  0.00000000000E+00  0.00000000000E+00  0.45593999997E+02  0.45594000000E+02  0.51100000000E-03 0.  1.
         11   -1    0    0    0    0 -0.00000000000E+00 -0.00000000000E+00 -0.45593999997E+02  0.45594000000E+02  0.51100000000E-03 0. -1.
    9900012    2    1    2    0    0  0.17967798346E+01 -0.12476002690E+02 -0.13849181039E+02  0.72461578122E+02  0.70000010197E+02 0.  0.
        -12    1    1    2    0    0 -0.17967798346E+01  0.12476002690E+02  0.13849181039E+02  0.18726421878E+02  0.00000000000E+00 0.  1.
         11    1    3    3    0    0  0.10561596341E+02  0.12315732730E+02  0.63035051442E+01  0.17405710768E+02  0.51100000000E-03 0.  1.
        -11    1    3    3    0    0 -0.90286470795E+01 -0.31889986013E+02  0.57130748612E+00  0.33148364492E+02  0.51100000000E-03 0. -1.
         12    1    3    3    0    0  0.26383057270E+00  0.70982505925E+01 -0.20723993670E+02  0.21907502862E+02  0.00000000000E+00 0. -1.
</event>
<event>
 7    1  0.2809593E-013  0.7246152E+02  0.7816164E-02  0.1226708E+00
        -11   -1    0    0    0    0  0.00000000000E+00  0.00000000000E+00  0.45593999997E+02  0.45594000000E+02  0.51100000000E-03 0. -1.
         11   -1    0    0    0    0 -0.00000000000E+00 -0.00000000000E+00 -0.45593999997E+02  0.45594000000E+02  0.51100000000E-03 0.  1.
    9900012    2    1    2    0    0  0.41145373257E+01  0.17423266730E+02  0.54937699266E+01  0.72461517443E+02  0.69999931152E+02 0.  0.
        -12    1    1    2    0    0 -0.41145373257E+01 -0.17423266730E+02 -0.54937699266E+01  0.18726482557E+02  0.00000000000E+00 0.  1.
         11    1    3    3    0    0 -0.42643433948E+01  0.10925560783E+02  0.69358815085E+00  0.11748768778E+02  0.51100000000E-03 0. -1.
        -11    1    3    3    0    0  0.21320464185E+02  0.27808350062E+02  0.68205604606E+01  0.35698551392E+02  0.51100000000E-03 0.  1.
         12    1    3    3    0    0 -0.12941583465E+02 -0.21310644116E+02 -0.20203786848E+01  0.25014197273E+02  0.00000000000E+00 0. -1.
</event>
<event>
 7    1  0.2809593E-013  0.7246155E+02  0.7816164E-02  0.1226708E+00
        -11   -1    0    0    0    0  0.00000000000E+00  0.00000000000E+00  0.45593999997E+02  0.45594000000E+02  0.51100000000E-03 0.  1.
         11   -1    0    0    0    0 -0.00000000000E+00 -0.00000000000E+00 -0.45593999997E+02  0.45594000000E+02  0.51100000000E-03 0. -1.
    9900012    2    1    2    0    0  0.16935748108E+01  0.10102771430E+02 -0.15676275300E+02  0.72461553634E+02  0.69999978297E+02 0.  0.
        -12    1    1    2    0    0 -0.16935748108E+01 -0.10102771430E+02  0.15676275300E+02  0.18726446366E+02  0.00000000000E+00 0.  1.
         11    1    3    3    0    0 -0.51001309653E+00 -0.17997638795E+02 -0.23914775520E+02  0.29934789193E+02  0.51100000000E-03 0. -1.
        -11    1    3    3    0    0 -0.13935656113E+02  0.93052719027E+01  0.13384744116E+01  0.16810178776E+02  0.51100000000E-03 0.  1.
        -12    1    3    3    0    0  0.16139244020E+02  0.18795138322E+02  0.69000258084E+01  0.25716585665E+02  0.00000000000E+00 0.  1.
</event>
<event>
 7    1  0.2809593E-013  0.7246160E+02  0.7816164E-02  0.1226708E+00
        -11   -1    0    0    0    0  0.00000000000E+00  0.00000000000E+00  0.45593999997E+02  0.45594000000E+02  0.51100000000E-03 0.  1.
         11   -1    0    0    0    0 -0.00000000000E+00 -0.00000000000E+00 -0.45593999997E+02  0.45594000000E+02  0.51100000000E-03 0. -1.
    9900012    2    1    2    0    0  0.37141111112E+01 -0.14430278611E+02 -0.11342425183E+02  0.72461596950E+02  0.70000034725E+02 0.  0.
        -12    1    1    2    0    0 -0.37141111112E+01  0.14430278611E+02  0.11342425183E+02  0.18726403050E+02  0.00000000000E+00 0.  1.
         11    1    3    3    0    0  0.33135299397E+00  0.22865859916E+02 -0.17006497257E+02  0.28498741968E+02  0.51100000000E-03 0. -1.
        -11    1    3    3    0    0 -0.31389806067E+01 -0.57661203992E+01 -0.67861453823E+01  0.94420926239E+01  0.51100000000E-03 0.  1.
        -12    1    3    3    0    0  0.65217387238E+01 -0.31530018128E+02  0.12450217456E+02  0.34520762359E+02  0.00000000000E+00 0.  1.
</event>
<event>
 7    1  0.2809593E-013  0.7246147E+02  0.7816164E-02  0.1226708E+00
        -11   -1    0    0    0    0  0.00000000000E+00  0.00000000000E+00  0.45593999997E+02  0.45594000000E+02  0.51100000000E-03 0.  1.
         11   -1    0    0    0    0 -0.00000000000E+00 -0.00000000000E+00 -0.45593999997E+02  0.45594000000E+02  0.51100000000E-03 0. -1.
    9900012    2    1    2    0    0 -0.29468049072E+01  0.14635936749E+02 -0.11304358600E+02  0.72461472638E+02  0.69999872785E+02 0.  0.
        -12    1    1    2    0    0  0.29468049072E+01 -0.14635936749E+02  0.11304358600E+02  0.18726527362E+02  0.00000000000E+00 0.  1.
         11    1    3    3    0    0  0.10289767622E+02 -0.27233069407E+01 -0.69219108746E+01  0.12696793644E+02  0.51100000000E-03 0. -1.
        -11    1    3    3    0    0 -0.21813866578E+02 -0.26437326703E+01  0.18103702605E+02  0.28470654116E+02  0.51100000000E-03 0.  1.
         12    1    3    3    0    0  0.85772940482E+01  0.20002976360E+02 -0.22486150330E+02  0.31294024879E+02  0.00000000000E+00 0. -1.
</event>
<event>
 7    1  0.2809593E-013  0.7246145E+02  0.7816164E-02  0.1226708E+00
        -11   -1    0    0    0    0  0.00000000000E+00  0.00000000000E+00  0.45593999997E+02  0.45594000000E+02  0.51100000000E-03 0. -1.
         11   -1    0    0    0    0 -0.00000000000E+00 -0.00000000000E+00 -0.45593999997E+02  0.45594000000E+02  0.51100000000E-03 0.  1.
    9900012    2    1    2    0    0 -0.12232395224E+02 -0.13436726090E+02  0.45284098392E+01  0.72461452090E+02  0.69999846017E+02 0.  0.
        -12    1    1    2    0    0  0.12232395224E+02  0.13436726090E+02 -0.45284098392E+01  0.18726547910E+02  0.00000000000E+00 0.  1.
         11    1    3    3    0    0  0.11940751720E+02 -0.14790078097E+01 -0.90906083627E+01  0.15080058899E+02  0.51100000000E-03 0. -1.
        -11    1    3    3    0    0 -0.25366353237E+02 -0.28298832449E+01 -0.13406960191E+02  0.28830655517E+02  0.51100000000E-03 0.  1.
         12    1    3    3    0    0  0.11932062928E+01 -0.91278350354E+01  0.27025978393E+02  0.28550737675E+02  0.00000000000E+00 0. -1.
</event>
<event>
 7    1  0.2809593E-013  0.7246166E+02  0.7816164E-02  0.1226708E+00
        -11   -1    0    0    0    0  0.00000000000E+00  0.00000000000E+00  0.45593999997E+02  0.45594000000E+02  0.51100000000E-03 0.  1.
         11   -1    0    0    0    0 -0.00000000000E+00 -0.00000000000E+00 -0.45593999997E+02  0.45594000000E+02  0.51100000000E-03 0. -1.
    9900012    2    1    2    0    0  0.21716684475E+01 -0.12737992064E+02 -0.13553720587E+02  0.72461656859E+02  0.70000112767E+02 0.  0.
        -12    1    1    2    0    0 -0.21716684475E+01  0.12737992064E+02  0.13553720587E+02  0.18726343141E+02  0.00000000000E+00 0.  1.
         11    1    3    3    0    0  0.13979130092E+02 -0.69459004491E+01  0.11071760801E+02  0.19137541605E+02  0.51100000000E-03 0. -1.
        -11    1    3    3    0    0  0.13567695743E+02  0.95823042529E+01 -0.36988888292E+01  0.17017188411E+02  0.51100000000E-03 0.  1.
         12    1    3    3    0    0 -0.25375157387E+02 -0.15374395868E+02 -0.20926592559E+02  0.36306926844E+02  0.00000000000E+00 0. -1.
</event>
<event>
 7    1  0.2809593E-013  0.7246161E+02  0.7816164E-02  0.1226708E+00
        -11   -1    0    0    0    0  0.00000000000E+00  0.00000000000E+00  0.45593999997E+02  0.45594000000E+02  0.51100000000E-03 0.  1.
         11   -1    0    0    0    0 -0.00000000000E+00 -0.00000000000E+00 -0.45593999997E+02  0.45594000000E+02  0.51100000000E-03 0. -1.
    9900012    2    1    2    0    0  0.18645098436E+02 -0.15462018942E+01 -0.80461372226E+00  0.72461605814E+02  0.70000046271E+02 0.  0.
        -12    1    1    2    0    0 -0.18645098436E+02  0.15462018942E+01  0.80461372226E+00  0.18726394186E+02  0.00000000000E+00 0.  1.
         11    1    3    3    0    0  0.14233794925E+02  0.59761581419E+01  0.14320559372E+02  0.21056918224E+02  0.51100000000E-03 0. -1.
        -11    1    3    3    0    0 -0.21362443513E+01  0.18739122936E+02 -0.15382557849E+02  0.24338063903E+02  0.51100000000E-03 0.  1.
        -12    1    3    3    0    0  0.65475478620E+01 -0.26261482972E+02  0.25738475447E+00  0.27066623687E+02  0.00000000000E+00 0.  1.
</event>
<event>
 7    1  0.2809593E-013  0.7246154E+02  0.7816164E-02  0.1226708E+00
        -11   -1    0    0    0    0  0.00000000000E+00  0.00000000000E+00  0.45593999997E+02  0.45594000000E+02  0.51100000000E-03 0.  1.
         11   -1    0    0    0    0 -0.00000000000E+00 -0.00000000000E+00 -0.45593999997E+02  0.45594000000E+02  0.51100000000E-03 0. -1.
    9900012    2    1    2    0    0  0.99066529838E+01  0.88097307907E+01 -0.13225997975E+02  0.72461544052E+02  0.69999965814E+02 0.  0.
        -12    1    1    2    0    0 -0.99066529838E+01 -0.88097307907E+01  0.13225997975E+02  0.18726455948E+02  0.00000000000E+00 0.  1.
         11    1    3    3    0    0  0.75220068824E+01  0.32361772204E+01  0.37615839880E+01  0.90112676633E+01  0.51100000000E-03 0. -1.
        -11    1    3    3    0    0 -0.11884934874E+02 -0.33642443506E+01  0.19603901135E+02  0.23170730609E+02  0.51100000000E-03 0.  1.
         12    1    3    3    0    0  0.14269580975E+02  0.89377979209E+01 -0.36591483098E+02  0.40279545779E+02  0.00000000000E+00 0. -1.
</event>
<event>
 7    1  0.2809593E-013  0.7246160E+02  0.7816164E-02  0.1226708E+00
        -11   -1    0    0    0    0  0.00000000000E+00  0.00000000000E+00  0.45593999997E+02  0.45594000000E+02  0.51100000000E-03 0.  1.
         11   -1    0    0    0    0 -0.00000000000E+00 -0.00000000000E+00 -0.45593999997E+02  0.45594000000E+02  0.51100000000E-03 0. -1.
    9900012    2    1    2    0    0 -0.16907081330E+02  0.55341730760E+01  0.58482203888E+01  0.72461597451E+02  0.70000035376E+02 0.  0.
        -12    1    1    2    0    0  0.16907081330E+02 -0.55341730760E+01 -0.58482203888E+01  0.18726402549E+02  0.00000000000E+00 0.  1.
         11    1    3    3    0    0  0.42522081359E+01 -0.67722104024E+01  0.79852153272E+00  0.80362767912E+01  0.51100000000E-03 0. -1.
        -11    1    3    3    0    0  0.52583252493E+01  0.24365732725E+02 -0.15041011678E+02  0.29113071776E+02  0.51100000000E-03 0.  1.
        -12    1    3    3    0    0 -0.26417614715E+02 -0.12059349247E+02  0.20090710534E+02  0.35312248884E+02  0.00000000000E+00 0.  1.
</event>
<event>
 7    1  0.2809593E-013  0.7246156E+02  0.7816164E-02  0.1226708E+00
        -11   -1    0    0    0    0  0.00000000000E+00  0.00000000000E+00  0.45593999997E+02  0.45594000000E+02  0.51100000000E-03 0. -1.
         11   -1    0    0    0    0 -0.00000000000E+00 -0.00000000000E+00 -0.45593999997E+02  0.45594000000E+02  0.51100000000E-03 0.  1.
    9900012    2    1    2    0    0 -0.11446472360E+02 -0.14502126809E+02  0.30571294015E+01  0.72461562761E+02  0.69999990186E+02 0.  0.
        -12    1    1    2    0    0  0.11446472360E+02  0.14502126809E+02 -0.30571294015E+01  0.18726437239E+02  0.00000000000E+00 0.  1.
         11    1    3    3    0    0 -0.22703656343E+02 -0.16813531155E+02  0.83424374663E+00  0.28263878080E+02  0.51100000000E-03 0. -1.
        -11    1    3    3    0    0 -0.37638880183E+01  0.16873828634E+02 -0.99953448325E+01  0.19969974070E+02  0.51100000000E-03 0.  1.
        -12    1    3    3    0    0  0.15021072001E+02 -0.14562424288E+02  0.12218230487E+02  0.24227710611E+02  0.00000000000E+00 0.  1.
</event>
<event>
 7    1  0.2809593E-013  0.7246158E+02  0.7816164E-02  0.1226708E+00
        -11   -1    0    0    0    0  0.00000000000E+00  0.00000000000E+00  0.45593999997E+02  0.45594000000E+02  0.51100000000E-03 0.  1.
         11   -1    0    0    0    0 -0.00000000000E+00 -0.00000000000E+00 -0.45593999997E+02  0.45594000000E+02  0.51100000000E-03 0. -1.
    9900012    2    1    2    0    0  0.13522201952E+02  0.67362914712E+01  0.11065761855E+02  0.72461584063E+02  0.70000017937E+02 0.  0.
        -12    1    1    2    0    0 -0.13522201952E+02 -0.67362914712E+01 -0.11065761855E+02  0.18726415937E+02  0.00000000000E+00 0.  1.
         11    1    3    3    0    0 -0.49023072828E+01 -0.10286670193E+02  0.80468148709E+01  0.13949889970E+02  0.51100000000E-03 0. -1.
        -11    1    3    3    0    0  0.32420983108E+02 -0.41615311599E+01 -0.15031185763E+01  0.32721519723E+02  0.51100000000E-03 0.  1.
        -12    1    3    3    0    0 -0.13996473873E+02  0.21184492824E+02  0.45220655602E+01  0.25790174370E+02  0.00000000000E+00 0.  1.
</event>
<event>
 7    1  0.2809593E-013  0.7246157E+02  0.7816164E-02  0.1226708E+00
        -11   -1    0    0    0    0  0.00000000000E+00  0.00000000000E+00  0.45593999997E+02  0.45594000000E+02  0.51100000000E-03 0.  1.
         11   -1    0    0    0    0 -0.00000000000E+00 -0.00000000000E+00 -0.45593999997E+02  0.45594000000E+02  0.51100000000E-03 0. -1.
    9900012    2    1    2    0    0  0.26354208073E+01  0.79082954790E+01 -0.16768798087E+02  0.72461570295E+02  0.70000000001E+02 0.  0.
        -12    1    1    2    0    0 -0.26354208073E+01 -0.79082954790E+01  0.16768798087E+02  0.18726429705E+02  0.00000000000E+00 0.  1.
         11    1    3    3    0    0 -0.58667078320E+01 -0.23224481230E+01  0.89005257224E+01  0.10910150524E+02  0.51100000000E-03 0. -1.
        -11    1    3    3    0    0 -0.21957213474E+02  0.10222582082E+02 -0.17899642166E+02  0.30116732855E+02  0.51100000000E-03 0.  1.
         12    1    3    3    0    0  0.30459342114E+02  0.81615204842E-02 -0.77696816439E+01  0.31434686915E+02  0.00000000000E+00 0. -1.
</event>
<event>
 7    1  0.2809593E-013  0.7246151E+02  0.7816164E-02  0.1226708E+00
        -11   -1    0    0    0    0  0.00000000000E+00  0.00000000000E+00  0.45593999997E+02  0.45594000000E+02  0.51100000000E-03 0.  1.
         11   -1    0    0    0    0 -0.00000000000E+00 -0.00000000000E+00 -0.45593999997E+02  0.45594000000E+02  0.51100000000E-03 0. -1.
    9900012    2    1    2    0    0  0.13339397282E+02 -0.40201365381E+01 -0.12513201969E+02  0.72461514981E+02  0.69999927944E+02 0.  0.
        -12    1    1    2    0    0 -0.13339397282E+02  0.40201365381E+01  0.12513201969E+02  0.18726485019E+02  0.00000000000E+00 0.  1.
         11    1    3    3    0    0  0.10124315252E+02 -0.11181208057E+02 -0.18126907561E+02  0.23581898798E+02  0.51100000000E-03 0. -1.
        -11    1    3    3    0    0  0.12691845229E+02 -0.10143828442E+02  0.19028425879E+02  0.25021214648E+02  0.51100000000E-03 0.  1.
         12    1    3    3    0    0 -0.94767631993E+01  0.17304899961E+02 -0.13414720287E+02  0.23858401535E+02  0.00000000000E+00 0. -1.
</event>
<event>
 7    1  0.2809593E-013  0.7246181E+02  0.7816164E-02  0.1226707E+00
        -11   -1    0    0    0    0  0.00000000000E+00  0.00000000000E+00  0.45593999997E+02  0.45594000000E+02  0.51100000000E-03 0. -1.
         11   -1    0    0    0    0 -0.00000000000E+00 -0.00000000000E+00 -0.45593999997E+02  0.45594000000E+02  0.51100000000E-03 0.  1.
    9900012    2    1    2    0    0  0.51306661964E+01 -0.21094387829E+01  0.17885655478E+02  0.72461811401E+02  0.70000314085E+02 0.  0.
        -12    1    1    2    0    0 -0.51306661964E+01  0.21094387829E+01 -0.17885655478E+02  0.18726188599E+02  0.00000000000E+00 0.  1.
         11    1    3    3    0    0  0.87907305008E+01  0.18537892370E+02 -0.25338971634E+01  0.20672470374E+02  0.51100000000E-03 0.  1.
        -11    1    3    3    0    0 -0.20377065646E+02 -0.22941775133E+02  0.12213700044E+02  0.33026115721E+02  0.51100000000E-03 0. -1.
         12    1    3    3    0    0  0.16717001341E+02  0.22944439801E+01  0.82058525965E+01  0.18763225305E+02  0.00000000000E+00 0. -1.
</event>
<event>
 7    1  0.2809593E-013  0.7246156E+02  0.7816164E-02  0.1226708E+00
        -11   -1    0    0    0    0  0.00000000000E+00  0.00000000000E+00  0.45593999997E+02  0.45594000000E+02  0.51100000000E-03 0. -1.
         11   -1    0    0    0    0 -0.00000000000E+00 -0.00000000000E+00 -0.45593999997E+02  0.45594000000E+02  0.51100000000E-03 0.  1.
    9900012    2    1    2    0    0 -0.11189773423E+02  0.45829333948E+01  0.14299139554E+02  0.72461556137E+02  0.69999981558E+02 0.  0.
        -12    1    1    2    0    0  0.11189773423E+02 -0.45829333948E+01 -0.14299139554E+02  0.18726443863E+02  0.00000000000E+00 0.  1.
         11    1    3    3    0    0 -0.25177079761E+01 -0.16193634643E+02  0.20798743008E+02  0.26479432913E+02  0.51100000000E-03 0. -1.
        -11    1    3    3    0    0  0.32382486942E+01 -0.68843765130E+01  0.92658183716E+01  0.11989006837E+02  0.51100000000E-03 0.  1.
        -12    1    3    3    0    0 -0.11910314141E+02  0.27660944551E+02 -0.15765421825E+02  0.33993116387E+02  0.00000000000E+00 0.  1.
</event>
<event>
 7    1  0.2809593E-013  0.7246158E+02  0.7816164E-02  0.1226708E+00
        -11   -1    0    0    0    0  0.00000000000E+00  0.00000000000E+00  0.45593999997E+02  0.45594000000E+02  0.51100000000E-03 0.  1.
         11   -1    0    0    0    0 -0.00000000000E+00 -0.00000000000E+00 -0.45593999997E+02  0.45594000000E+02  0.51100000000E-03 0. -1.
    9900012    2    1    2    0    0 -0.18003881636E+02  0.36691858953E+01  0.36161063339E+01  0.72461577381E+02  0.70000009232E+02 0.  0.
        -12    1    1    2    0    0  0.18003881636E+02 -0.36691858953E+01 -0.36161063339E+01  0.18726422619E+02  0.00000000000E+00 0.  1.
         11    1    3    3    0    0 -0.17158438783E+02  0.23500187811E+02 -0.50937471750E+01  0.29540093249E+02  0.51100000000E-03 0. -1.
        -11    1    3    3    0    0  0.12762232394E+02  0.38085691177E+01 -0.22841970530E+01  0.13512857982E+02  0.51100000000E-03 0.  1.
        -12    1    3    3    0    0 -0.13607675247E+02 -0.23639571033E+02  0.10994050562E+02  0.29408626150E+02  0.00000000000E+00 0.  1.
</event>
<event>
 7    1  0.2809593E-013  0.7246157E+02  0.7816164E-02  0.1226708E+00
        -11   -1    0    0    0    0  0.00000000000E+00  0.00000000000E+00  0.45593999997E+02  0.45594000000E+02  0.51100000000E-03 0.  1.
         11   -1    0    0    0    0 -0.00000000000E+00 -0.00000000000E+00 -0.45593999997E+02  0.45594000000E+02  0.51100000000E-03 0. -1.
    9900012    2    1    2    0    0 -0.73494303280E+01  0.31839300049E+01 -0.16927126094E+02  0.72461571237E+02  0.70000001228E+02 0.  0.
        -12    1    1    2    0    0  0.73494303280E+01 -0.31839300049E+01  0.16927126094E+02  0.18726428763E+02  0.00000000000E+00 0.  1.
         11    1    3    3    0    0  0.10421217674E+02 -0.82550837637E+01  0.42877855183E+01  0.13969011800E+02  0.51100000000E-03 0. -1.
        -11    1    3    3    0    0  0.13396144574E+02 -0.85072064478E+01 -0.60090078434E-01  0.15869242644E+02  0.51100000000E-03 0.  1.
         12    1    3    3    0    0 -0.31166792576E+02  0.19946220216E+02 -0.21154821533E+02  0.42623316794E+02  0.00000000000E+00 0. -1.
</event>
<event>
 7    1  0.2809593E-013  0.7246161E+02  0.7816164E-02  0.1226708E+00
        -11   -1    0    0    0    0  0.00000000000E+00  0.00000000000E+00  0.45593999997E+02  0.45594000000E+02  0.51100000000E-03 0.  1.
         11   -1    0    0    0    0 -0.00000000000E+00 -0.00000000000E+00 -0.45593999997E+02  0.45594000000E+02  0.51100000000E-03 0. -1.
    9900012    2    1    2    0    0  0.27910999136E+01 -0.10159603071E+02 -0.15481276533E+02  0.72461609627E+02  0.70000051239E+02 0.  0.
        -12    1    1    2    0    0 -0.27910999136E+01  0.10159603071E+02  0.15481276533E+02  0.18726390373E+02  0.00000000000E+00 0.  1.
         11    1    3    3    0    0  0.28823748195E+01 -0.18290609164E+02  0.29687123054E+01  0.18752805689E+02  0.51100000000E-03 0. -1.
        -11    1    3    3    0    0  0.79406207357E+01  0.17348158016E+02  0.10858480371E+02  0.21952645409E+02  0.51100000000E-03 0.  1.
         12    1    3    3    0    0 -0.80318956416E+01 -0.92171519231E+01 -0.29308469210E+02  0.31756158530E+02  0.00000000000E+00 0. -1.
</event>
<event>
 7    1  0.2809593E-013  0.7246159E+02  0.7816164E-02  0.1226708E+00
        -11   -1    0    0    0    0  0.00000000000E+00  0.00000000000E+00  0.45593999997E+02  0.45594000000E+02  0.51100000000E-03 0.  1.
         11   -1    0    0    0    0 -0.00000000000E+00 -0.00000000000E+00 -0.45593999997E+02  0.45594000000E+02  0.51100000000E-03 0. -1.
    9900012    2    1    2    0    0  0.16556161479E+02 -0.18862784496E+01 -0.85448177040E+01  0.72461589802E+02  0.70000025413E+02 0.  0.
        -12    1    1    2    0    0 -0.16556161479E+02  0.18862784496E+01  0.85448177040E+01  0.18726410198E+02  0.00000000000E+00 0.  1.
         11    1    3    3    0    0  0.23516518246E+02 -0.76722461794E+01 -0.16331504641E+02  0.29641323115E+02  0.51100000000E-03 0. -1.
        -11    1    3    3    0    0  0.13625382716E+02  0.95600529267E+01 -0.60733835134E+01  0.17718116539E+02  0.51100000000E-03 0.  1.
        -12    1    3    3    0    0 -0.20585739484E+02 -0.37740851968E+01  0.13860070451E+02  0.25102150149E+02  0.00000000000E+00 0.  1.
</event>
<event>
 7    1  0.2809593E-013  0.7246155E+02  0.7816164E-02  0.1226708E+00
        -11   -1    0    0    0    0  0.00000000000E+00  0.00000000000E+00  0.45593999997E+02  0.45594000000E+02  0.51100000000E-03 0.  1.
         11   -1    0    0    0    0 -0.00000000000E+00 -0.00000000000E+00 -0.45593999997E+02  0.45594000000E+02  0.51100000000E-03 0. -1.
    9900012    2    1    2    0    0  0.11014458978E+02  0.55371688683E+01 -0.14096148806E+02  0.72461549273E+02  0.69999972616E+02 0.  0.
        -12    1    1    2    0    0 -0.11014458978E+02 -0.55371688683E+01  0.14096148806E+02  0.18726450727E+02  0.00000000000E+00 0.  1.
         11    1    3    3    0    0 -0.76932517182E+01  0.23566893778E+01  0.41852115424E+01  0.90695150223E+01  0.51100000000E-03 0. -1.
        -11    1    3    3    0    0 -0.13010034963E+02 -0.18245657635E+02 -0.61140639408E+01  0.23228146943E+02  0.51100000000E-03 0.  1.
         12    1    3    3    0    0  0.31717745660E+02  0.21426137125E+02 -0.12167296408E+02  0.40163887308E+02  0.00000000000E+00 0. -1.
</event>
<event>
 7    1  0.2809593E-013  0.7246152E+02  0.7816164E-02  0.1226708E+00
        -11   -1    0    0    0    0  0.00000000000E+00  0.00000000000E+00  0.45593999997E+02  0.45594000000E+02  0.51100000000E-03 0. -1.
         11   -1    0    0    0    0 -0.00000000000E+00 -0.00000000000E+00 -0.45593999997E+02  0.45594000000E+02  0.51100000000E-03 0.  1.
    9900012    2    1    2    0    0 -0.19799983114E+01 -0.11386058929E+02  0.14734934240E+02  0.72461520931E+02  0.69999935696E+02 0.  0.
        -12    1    1    2    0    0  0.19799983114E+01  0.11386058929E+02 -0.14734934240E+02  0.18726479069E+02  0.00000000000E+00 0.  1.
         11    1    3    3    0    0 -0.82206638880E+01 -0.92910535425E+01  0.23198738582E+02  0.26307498223E+02  0.51100000000E-03 0. -1.
        -11    1    3    3    0    0 -0.89114240241E+00 -0.23085958365E+02 -0.27972492670E+01  0.23271875991E+02  0.51100000000E-03 0.  1.
        -12    1    3    3    0    0  0.71318079790E+01  0.20990952978E+02 -0.56665550751E+01  0.22882146718E+02  0.00000000000E+00 0.  1.
</event>
<event>
 7    1  0.2809593E-013  0.7246158E+02  0.7816164E-02  0.1226708E+00
        -11   -1    0    0    0    0  0.00000000000E+00  0.00000000000E+00  0.45593999997E+02  0.45594000000E+02  0.51100000000E-03 0.  1.
         11   -1    0    0    0    0 -0.00000000000E+00 -0.00000000000E+00 -0.45593999997E+02  0.45594000000E+02  0.51100000000E-03 0. -1.
    9900012    2    1    2    0    0 -0.16657066513E+02  0.71231911744E+01  0.47414313880E+01  0.72461577786E+02  0.70000009759E+02 0.  0.
        -12    1    1    2    0    0  0.16657066513E+02 -0.71231911744E+01 -0.47414313880E+01  0.18726422214E+02  0.00000000000E+00 0.  1.
         11    1    3    3    0    0  0.40860628188E+01  0.44699038607E+01 -0.27760817196E+02  0.28413710098E+02  0.51100000000E-03 0. -1.
        -11    1    3    3    0    0  0.17853742903E+01  0.12674770971E+01 -0.19021396234E+01  0.29003784160E+01  0.51100000000E-03 0.  1.
        -12    1    3    3    0    0 -0.22528503622E+02  0.13858102166E+01  0.34404388208E+02  0.41147489272E+02  0.00000000000E+00 0.  1.
</event>
<event>
 7    1  0.2809593E-013  0.7246152E+02  0.7816164E-02  0.1226708E+00
        -11   -1    0    0    0    0  0.00000000000E+00  0.00000000000E+00  0.45593999997E+02  0.45594000000E+02  0.51100000000E-03 0. -1.
         11   -1    0    0    0    0 -0.00000000000E+00 -0.00000000000E+00 -0.45593999997E+02  0.45594000000E+02  0.51100000000E-03 0.  1.
    9900012    2    1    2    0    0 -0.19294875596E+01 -0.79754741999E+01  0.16833007007E+02  0.72461515123E+02  0.69999928129E+02 0.  0.
        -12    1    1    2    0    0  0.19294875596E+01  0.79754741999E+01 -0.16833007007E+02  0.18726484877E+02  0.00000000000E+00 0.  1.
         11    1    3    3    0    0  0.12634780303E+02 -0.60863013260E+01  0.10776031703E+02  0.17686254456E+02  0.51100000000E-03 0. -1.
        -11    1    3    3    0    0 -0.79157856756E+01 -0.25951664864E+02 -0.47984360900E+01  0.27553104384E+02  0.51100000000E-03 0.  1.
         12    1    3    3    0    0 -0.66484821875E+01  0.24062491990E+02  0.10855411394E+02  0.27222156283E+02  0.00000000000E+00 0. -1.
</event>
<event>
 7    1  0.2809593E-013  0.7246160E+02  0.7816164E-02  0.1226708E+00
        -11   -1    0    0    0    0  0.00000000000E+00  0.00000000000E+00  0.45593999997E+02  0.45594000000E+02  0.51100000000E-03 0.  1.
         11   -1    0    0    0    0 -0.00000000000E+00 -0.00000000000E+00 -0.45593999997E+02  0.45594000000E+02  0.51100000000E-03 0. -1.
    9900012    2    1    2    0    0 -0.49818760612E+01  0.13576725793E+02 -0.11896700366E+02  0.72461600134E+02  0.70000038871E+02 0.  0.
        -12    1    1    2    0    0  0.49818760612E+01 -0.13576725793E+02  0.11896700366E+02  0.18726399866E+02  0.00000000000E+00 0.  1.
         11    1    3    3    0    0  0.60105824226E+01  0.31645094226E+02 -0.29878784845E+02  0.43934961861E+02  0.51100000000E-03 0. -1.
        -11    1    3    3    0    0  0.62585863024E+00 -0.28448822723E+01  0.15894707951E+01  0.33183537843E+01  0.51100000000E-03 0.  1.
        -12    1    3    3    0    0 -0.11618317114E+02 -0.15223486161E+02  0.16392613684E+02  0.25208284488E+02  0.00000000000E+00 0.  1.
</event>
<event>
 7    1  0.2809593E-013  0.7246155E+02  0.7816164E-02  0.1226708E+00
        -11   -1    0    0    0    0  0.00000000000E+00  0.00000000000E+00  0.45593999997E+02  0.45594000000E+02  0.51100000000E-03 0. -1.
         11   -1    0    0    0    0 -0.00000000000E+00 -0.00000000000E+00 -0.45593999997E+02  0.45594000000E+02  0.51100000000E-03 0.  1.
    9900012    2    1    2    0    0  0.11771719549E+02 -0.36154492408E+01  0.14107974156E+02  0.72461553751E+02  0.69999978449E+02 0.  0.
        -12    1    1    2    0    0 -0.11771719549E+02  0.36154492408E+01 -0.14107974156E+02  0.18726446249E+02  0.00000000000E+00 0.  1.
         11    1    3    3    0    0 -0.17208340851E+01  0.49642454156E+01  0.33636412544E+02  0.34044283684E+02  0.51100000000E-03 0. -1.
        -11    1    3    3    0    0  0.14127258779E+01  0.10276448820E+02 -0.37795770399E+01  0.11040217282E+02  0.51100000000E-03 0.  1.
        -12    1    3    3    0    0  0.12079827756E+02 -0.18856143477E+02 -0.15748861348E+02  0.27377052785E+02  0.00000000000E+00 0.  1.
</event>
<event>
 7    1  0.2809593E-013  0.7246157E+02  0.7816164E-02  0.1226708E+00
        -11   -1    0    0    0    0  0.00000000000E+00  0.00000000000E+00  0.45593999997E+02  0.45594000000E+02  0.51100000000E-03 0. -1.
         11   -1    0    0    0    0 -0.00000000000E+00 -0.00000000000E+00 -0.45593999997E+02  0.45594000000E+02  0.51100000000E-03 0.  1.
    9900012    2    1    2    0    0 -0.44438505841E+01 -0.33021316179E+01  0.17889310220E+02  0.72461566774E+02  0.69999995414E+02 0.  0.
        -12    1    1    2    0    0  0.44438505841E+01  0.33021316179E+01 -0.17889310220E+02  0.18726433226E+02  0.00000000000E+00 0.  1.
         11    1    3    3    0    0 -0.13222861264E+02  0.32509081609E+01 -0.15879487606E+02  0.20918188037E+02  0.51100000000E-03 0. -1.
        -11    1    3    3    0    0 -0.82161457783E+01 -0.11083277641E+02  0.37598548565E+00  0.13801647005E+02  0.51100000000E-03 0.  1.
         12    1    3    3    0    0  0.16995156458E+02  0.45302378617E+01  0.33392812340E+02  0.37741731731E+02  0.00000000000E+00 0. -1.
</event>
<event>
 7    1  0.2809593E-013  0.7246153E+02  0.7816164E-02  0.1226708E+00
        -11   -1    0    0    0    0  0.00000000000E+00  0.00000000000E+00  0.45593999997E+02  0.45594000000E+02  0.51100000000E-03 0. -1.
         11   -1    0    0    0    0 -0.00000000000E+00 -0.00000000000E+00 -0.45593999997E+02  0.45594000000E+02  0.51100000000E-03 0.  1.
    9900012    2    1    2    0    0  0.36318677818E+01  0.64544905302E+01  0.17199698742E+02  0.72461533477E+02  0.69999952039E+02 0.  0.
        -12    1    1    2    0    0 -0.36318677818E+01 -0.64544905302E+01 -0.17199698742E+02  0.18726466523E+02  0.00000000000E+00 0.  1.
         11    1    3    3    0    0 -0.72366582048E+01  0.29954419574E+02  0.24691971247E+02  0.39488351679E+02  0.51100000000E-03 0. -1.
        -11    1    3    3    0    0  0.34879165580E+01  0.22174251937E+01 -0.44046134233E+01  0.60401288128E+01  0.51100000000E-03 0.  1.
        -12    1    3    3    0    0  0.73806094286E+01 -0.25717354238E+02 -0.30876590816E+01  0.26933052986E+02  0.00000000000E+00 0.  1.
</event>
<event>
 7    1  0.2809593E-013  0.7246153E+02  0.7816164E-02  0.1226708E+00
        -11   -1    0    0    0    0  0.00000000000E+00  0.00000000000E+00  0.45593999997E+02  0.45594000000E+02  0.51100000000E-03 0.  1.
         11   -1    0    0    0    0 -0.00000000000E+00 -0.00000000000E+00 -0.45593999997E+02  0.45594000000E+02  0.51100000000E-03 0. -1.
    9900012    2    1    2    0    0  0.87965958203E+01  0.13668672938E+02 -0.92988233132E+01  0.72461525882E+02  0.69999942144E+02 0.  0.
        -12    1    1    2    0    0 -0.87965958203E+01 -0.13668672938E+02  0.92988233132E+01  0.18726474118E+02  0.00000000000E+00 0.  1.
         11    1    3    3    0    0 -0.39404709236E+01  0.25384438155E+02 -0.16516823929E+02  0.30540178200E+02  0.51100000000E-03 0. -1.
        -11    1    3    3    0    0 -0.78456610278E+01 -0.30094566171E+01  0.15869418729E+02  0.17956883837E+02  0.51100000000E-03 0.  1.
         12    1    3    3    0    0  0.20582727772E+02 -0.87063086004E+01 -0.86514181133E+01  0.23964463844E+02  0.00000000000E+00 0. -1.
</event>
<event>
 7    1  0.2809593E-013  0.7246158E+02  0.7816164E-02  0.1226708E+00
        -11   -1    0    0    0    0  0.00000000000E+00  0.00000000000E+00  0.45593999997E+02  0.45594000000E+02  0.51100000000E-03 0.  1.
         11   -1    0    0    0    0 -0.00000000000E+00 -0.00000000000E+00 -0.45593999997E+02  0.45594000000E+02  0.51100000000E-03 0. -1.
    9900012    2    1    2    0    0  0.19873253283E+01  0.14072797995E+02 -0.12193676596E+02  0.72461578711E+02  0.70000010964E+02 0.  0.
        -12    1    1    2    0    0 -0.19873253283E+01 -0.14072797995E+02  0.12193676596E+02  0.18726421289E+02  0.00000000000E+00 0.  1.
         11    1    3    3    0    0 -0.62882901526E+01  0.18988474434E+02 -0.11133374790E+02  0.22892286667E+02  0.51100000000E-03 0. -1.
        -11    1    3    3    0    0  0.24247674443E+02  0.11285452125E+02 -0.18100953349E+01  0.26806484121E+02  0.51100000000E-03 0.  1.
        -12    1    3    3    0    0 -0.15972058962E+02 -0.16201128563E+02  0.74979352905E+00  0.22762807923E+02  0.00000000000E+00 0.  1.
</event>
<event>
 7    1  0.2809593E-013  0.7246155E+02  0.7816164E-02  0.1226708E+00
        -11   -1    0    0    0    0  0.00000000000E+00  0.00000000000E+00  0.45593999997E+02  0.45594000000E+02  0.51100000000E-03 0. -1.
         11   -1    0    0    0    0 -0.00000000000E+00 -0.00000000000E+00 -0.45593999997E+02  0.45594000000E+02  0.51100000000E-03 0.  1.
    9900012    2    1    2    0    0  0.11317666732E+02 -0.60486450689E+01  0.13638338513E+02  0.72461549059E+02  0.69999972338E+02 0.  0.
        -12    1    1    2    0    0 -0.11317666732E+02  0.60486450689E+01 -0.13638338513E+02  0.18726450941E+02  0.00000000000E+00 0.  1.
         11    1    3    3    0    0 -0.84347709317E+01 -0.49738276313E+01 -0.61403025105E+01  0.11558011817E+02  0.51100000000E-03 0.  1.
        -11    1    3    3    0    0 -0.31184339131E+01 -0.24432269225E+02  0.55333226231E+01  0.25244367076E+02  0.51100000000E-03 0. -1.
        -12    1    3    3    0    0  0.22870871577E+02  0.23357451787E+02  0.14245318401E+02  0.35659170167E+02  0.00000000000E+00 0.  1.
</event>
<event>
 7    1  0.2809593E-013  0.7246161E+02  0.7816164E-02  0.1226708E+00
        -11   -1    0    0    0    0  0.00000000000E+00  0.00000000000E+00  0.45593999997E+02  0.45594000000E+02  0.51100000000E-03 0.  1.
         11   -1    0    0    0    0 -0.00000000000E+00 -0.00000000000E+00 -0.45593999997E+02  0.45594000000E+02  0.51100000000E-03 0. -1.
    9900012    2    1    2    0    0  0.18009188714E+02  0.40849112991E+01 -0.31081246071E+01  0.72461606407E+02  0.70000047043E+02 0.  0.
        -12    1    1    2    0    0 -0.18009188714E+02 -0.40849112991E+01  0.31081246071E+01  0.18726393593E+02  0.00000000000E+00 0.  1.
         11    1    3    3    0    0 -0.61447554236E-01  0.13152696217E+02  0.13966903680E+02  0.19185192005E+02  0.51100000000E-03 0. -1.
        -11    1    3    3    0    0 -0.15335213466E+02 -0.73751870378E+01 -0.56160869820E+01  0.17919335622E+02  0.51100000000E-03 0.  1.
         12    1    3    3    0    0  0.33405849734E+02 -0.16925978803E+01 -0.11458941305E+02  0.35357078780E+02  0.00000000000E+00 0. -1.
</event>
<event>
 7    1  0.2809593E-013  0.7246157E+02  0.7816164E-02  0.1226708E+00
        -11   -1    0    0    0    0  0.00000000000E+00  0.00000000000E+00  0.45593999997E+02  0.45594000000E+02  0.51100000000E-03 0.  1.
         11   -1    0    0    0    0 -0.00000000000E+00 -0.00000000000E+00 -0.45593999997E+02  0.45594000000E+02  0.51100000000E-03 0. -1.
    9900012    2    1    2    0    0  0.15107579860E+02 -0.61432679905E+01 -0.92032893263E+01  0.72461568272E+02  0.69999997366E+02 0.  0.
        -12    1    1    2    0    0 -0.15107579860E+02  0.61432679905E+01  0.92032893263E+01  0.18726431728E+02  0.00000000000E+00 0.  1.
         11    1    3    3    0    0 -0.40132417103E+01 -0.29758116375E+01  0.14709377302E+02  0.15534714185E+02  0.51100000000E-03 0. -1.
        -11    1    3    3    0    0  0.49056150819E+01 -0.28334414941E+01  0.14713600815E+02  0.15766530983E+02  0.51100000000E-03 0.  1.
         12    1    3    3    0    0  0.14215206488E+02 -0.33401485888E+00 -0.38626267444E+02  0.41160323104E+02  0.00000000000E+00 0. -1.
</event>
<event>
 7    1  0.2809593E-013  0.7246158E+02  0.7816164E-02  0.1226708E+00
        -11   -1    0    0    0    0  0.00000000000E+00  0.00000000000E+00  0.45593999997E+02  0.45594000000E+02  0.51100000000E-03 0.  1.
         11   -1    0    0    0    0 -0.00000000000E+00 -0.00000000000E+00 -0.45593999997E+02  0.45594000000E+02  0.51100000000E-03 0. -1.
    9900012    2    1    2    0    0 -0.22989178847E+01  0.18539073610E+02 -0.13025185778E+01  0.72461579402E+02  0.70000011864E+02 0.  0.
        -12    1    1    2    0    0  0.22989178847E+01 -0.18539073610E+02  0.13025185778E+01  0.18726420598E+02  0.00000000000E+00 0.  1.
         11    1    3    3    0    0 -0.92139326833E+01  0.46057630495E+01 -0.97831267616E+01  0.14206307693E+02  0.51100000000E-03 0. -1.
        -11    1    3    3    0    0 -0.18676069078E+01  0.34875304974E+02  0.52365315629E+01  0.35315663885E+02  0.51100000000E-03 0.  1.
         12    1    3    3    0    0  0.87826217064E+01 -0.20941994413E+02  0.32440766208E+01  0.22939607824E+02  0.00000000000E+00 0. -1.
</event>
<event>
 7    1  0.2809593E-013  0.7246153E+02  0.7816164E-02  0.1226708E+00
        -11   -1    0    0    0    0  0.00000000000E+00  0.00000000000E+00  0.45593999997E+02  0.45594000000E+02  0.51100000000E-03 0.  1.
         11   -1    0    0    0    0 -0.00000000000E+00 -0.00000000000E+00 -0.45593999997E+02  0.45594000000E+02  0.51100000000E-03 0. -1.
    9900012    2    1    2    0    0 -0.69177832347E+01  0.15693843989E+02 -0.75185173067E+01  0.72461532994E+02  0.69999951410E+02 0.  0.
        -12    1    1    2    0    0  0.69177832347E+01 -0.15693843989E+02  0.75185173067E+01  0.18726467006E+02  0.00000000000E+00 0.  1.
         11    1    3    3    0    0 -0.26471781119E+01  0.14408522377E+02 -0.14174265647E+02  0.20384378233E+02  0.51100000000E-03 0. -1.
        -11    1    3    3    0    0 -0.13823579583E+02  0.21317451315E+02 -0.65685420121E+01  0.26242538511E+02  0.51100000000E-03 0.  1.
        -12    1    3    3    0    0  0.95529744600E+01 -0.20032129704E+02  0.13224290352E+02  0.25834616251E+02  0.00000000000E+00 0.  1.
</event>
<event>
 7    1  0.2809593E-013  0.7246160E+02  0.7816164E-02  0.1226708E+00
        -11   -1    0    0    0    0  0.00000000000E+00  0.00000000000E+00  0.45593999997E+02  0.45594000000E+02  0.51100000000E-03 0. -1.
         11   -1    0    0    0    0 -0.00000000000E+00 -0.00000000000E+00 -0.45593999997E+02  0.45594000000E+02  0.51100000000E-03 0.  1.
    9900012    2    1    2    0    0 -0.37938123327E+01 -0.17397188602E+02 -0.57985360468E+01  0.72461596086E+02  0.70000033598E+02 0.  0.
        -12    1    1    2    0    0  0.37938123327E+01  0.17397188602E+02  0.57985360468E+01  0.18726403914E+02  0.00000000000E+00 0.  1.
         11    1    3    3    0    0 -0.30529136057E+01  0.33663475402E+01 -0.14820118246E+01  0.47800561246E+01  0.51100000000E-03 0. -1.
        -11    1    3    3    0    0  0.80061986598E+01 -0.46943326993E+01 -0.32656096579E+02  0.33949324301E+02  0.51100000000E-03 0.  1.
         12    1    3    3    0    0 -0.87470973868E+01 -0.16069203443E+02  0.28339572356E+02  0.33732215660E+02  0.00000000000E+00 0. -1.
</event>
<event>
 7    1  0.2809593E-013  0.7246158E+02  0.7816164E-02  0.1226708E+00
        -11   -1    0    0    0    0  0.00000000000E+00  0.00000000000E+00  0.45593999997E+02  0.45594000000E+02  0.51100000000E-03 0.  1.
         11   -1    0    0    0    0 -0.00000000000E+00 -0.00000000000E+00 -0.45593999997E+02  0.45594000000E+02  0.51100000000E-03 0. -1.
    9900012    2    1    2    0    0  0.11172417817E+02  0.12943497829E+02  0.76368782976E+01  0.72461575726E+02  0.70000007076E+02 0.  0.
        -12    1    1    2    0    0 -0.11172417817E+02 -0.12943497829E+02 -0.76368782976E+01  0.18726424274E+02  0.00000000000E+00 0.  1.
         11    1    3    3    0    0  0.83558990012E+01  0.35217563348E+01 -0.47157046490E+01  0.10220649999E+02  0.51100000000E-03 0. -1.
        -11    1    3    3    0    0  0.23368025026E+02 -0.30723996870E+01  0.25587751064E+02  0.34788464154E+02  0.51100000000E-03 0.  1.
        -12    1    3    3    0    0 -0.20551506210E+02  0.12494141181E+02 -0.13235168117E+02  0.27452461573E+02  0.00000000000E+00 0.  1.
</event>
<event>
 7    1  0.2809593E-013  0.7246155E+02  0.7816164E-02  0.1226708E+00
        -11   -1    0    0    0    0  0.00000000000E+00  0.00000000000E+00  0.45593999997E+02  0.45594000000E+02  0.51100000000E-03 0.  1.
         11   -1    0    0    0    0 -0.00000000000E+00 -0.00000000000E+00 -0.45593999997E+02  0.45594000000E+02  0.51100000000E-03 0. -1.
    9900012    2    1    2    0    0  0.17768874134E+02 -0.36362934099E+00  0.59003956151E+01  0.72461553922E+02  0.69999978672E+02 0.  0.
        -12    1    1    2    0    0 -0.17768874134E+02  0.36362934099E+00 -0.59003956151E+01  0.18726446078E+02  0.00000000000E+00 0.  1.
         11    1    3    3    0    0  0.69087523305E+01 -0.17593001068E+02 -0.11692200849E+01  0.18937043623E+02  0.51100000000E-03 0. -1.
        -11    1    3    3    0    0  0.16305391825E+02  0.12850702172E+02  0.26043039072E+02  0.33305348418E+02  0.51100000000E-03 0.  1.
         12    1    3    3    0    0 -0.54452700211E+01  0.43786695543E+01 -0.18973423372E+02  0.20219161880E+02  0.00000000000E+00 0. -1.
</event>
<event>
 7    1  0.2809593E-013  0.7246156E+02  0.7816164E-02  0.1226708E+00
        -11   -1    0    0    0    0  0.00000000000E+00  0.00000000000E+00  0.45593999997E+02  0.45594000000E+02  0.51100000000E-03 0.  1.
         11   -1    0    0    0    0 -0.00000000000E+00 -0.00000000000E+00 -0.45593999997E+02  0.45594000000E+02  0.51100000000E-03 0. -1.
    9900012    2    1    2    0    0 -0.16665895088E+02 -0.70402424944E+01 -0.48334766100E+01  0.72461559612E+02  0.69999986084E+02 0.  0.
        -12    1    1    2    0    0  0.16665895088E+02  0.70402424944E+01  0.48334766100E+01  0.18726440388E+02  0.00000000000E+00 0.  1.
         11    1    3    3    0    0  0.38210042323E+01 -0.97774293313E+00 -0.13790032443E+01  0.41782418307E+01  0.51100000000E-03 0. -1.
        -11    1    3    3    0    0 -0.19357349864E+02 -0.32834359856E+02 -0.12322964147E+02  0.40058178023E+02  0.51100000000E-03 0.  1.
         12    1    3    3    0    0 -0.11295494566E+01  0.26771860295E+02  0.88684907811E+01  0.28225139758E+02  0.00000000000E+00 0. -1.
</event>
<event>
 7    1  0.2809593E-013  0.7246160E+02  0.7816164E-02  0.1226708E+00
        -11   -1    0    0    0    0  0.00000000000E+00  0.00000000000E+00  0.45593999997E+02  0.45594000000E+02  0.51100000000E-03 0. -1.
         11   -1    0    0    0    0 -0.00000000000E+00 -0.00000000000E+00 -0.45593999997E+02  0.45594000000E+02  0.51100000000E-03 0.  1.
    9900012    2    1    2    0    0 -0.12338220192E+02  0.13860343842E+01  0.14018742620E+02  0.72461603832E+02  0.70000043688E+02 0.  0.
        -12    1    1    2    0    0  0.12338220192E+02 -0.13860343842E+01 -0.14018742620E+02  0.18726396168E+02  0.00000000000E+00 0.  1.
         11    1    3    3    0    0 -0.16906850313E+02  0.13513708428E+02  0.47267856755E+00  0.21649141514E+02  0.51100000000E-03 0. -1.
        -11    1    3    3    0    0  0.18145859809E+00  0.12389967197E+02 -0.10462894219E+02  0.16217779443E+02  0.51100000000E-03 0.  1.
        -12    1    3    3    0    0  0.43871715233E+01 -0.24517641240E+02  0.24008958271E+02  0.34594682875E+02  0.00000000000E+00 0.  1.
</event>
<event>
 7    1  0.2809593E-013  0.7246155E+02  0.7816164E-02  0.1226708E+00
        -11   -1    0    0    0    0  0.00000000000E+00  0.00000000000E+00  0.45593999997E+02  0.45594000000E+02  0.51100000000E-03 0. -1.
         11   -1    0    0    0    0 -0.00000000000E+00 -0.00000000000E+00 -0.45593999997E+02  0.45594000000E+02  0.51100000000E-03 0.  1.
    9900012    2    1    2    0    0  0.13010775226E+01 -0.18179468343E+02  0.43004535430E+01  0.72461554191E+02  0.69999979023E+02 0.  0.
        -12    1    1    2    0    0 -0.13010775226E+01  0.18179468343E+02 -0.43004535430E+01  0.18726445809E+02  0.00000000000E+00 0.  1.
         11    1    3    3    0    0  0.11312222793E+02 -0.57390070541E+01  0.21335759805E+02  0.24821708910E+02  0.51100000000E-03 0. -1.
        -11    1    3    3    0    0 -0.34053018535E+01  0.12862922504E+02  0.41992939155E+01  0.13952954013E+02  0.51100000000E-03 0.  1.
         12    1    3    3    0    0 -0.66058434171E+01 -0.25303383793E+02 -0.21234600178E+02  0.33686891268E+02  0.00000000000E+00 0. -1.
</event>
<event>
 7    1  0.2809593E-013  0.7246139E+02  0.7816164E-02  0.1226708E+00
        -11   -1    0    0    0    0  0.00000000000E+00  0.00000000000E+00  0.45593999997E+02  0.45594000000E+02  0.51100000000E-03 0. -1.
         11   -1    0    0    0    0 -0.00000000000E+00 -0.00000000000E+00 -0.45593999997E+02  0.45594000000E+02  0.51100000000E-03 0.  1.
    9900012    2    1    2    0    0  0.22851215364E+01 -0.10627685999E+02  0.15248490602E+02  0.72461389101E+02  0.69999763962E+02 0.  0.
        -12    1    1    2    0    0 -0.22851215364E+01  0.10627685999E+02 -0.15248490602E+02  0.18726610899E+02  0.00000000000E+00 0.  1.
         11    1    3    3    0    0 -0.14703399166E+02  0.16038882911E+02 -0.98180200590E+01  0.23871096125E+02  0.51100000000E-03 0.  1.
        -11    1    3    3    0    0 -0.40884858994E+01 -0.17791215819E+02  0.74251402029E+01  0.19707252081E+02  0.51100000000E-03 0. -1.
        -12    1    3    3    0    0  0.21077006602E+02 -0.88753530902E+01  0.17641370458E+02  0.28883040896E+02  0.00000000000E+00 0.  1.
</event>
<event>
 7    1  0.2809593E-013  0.7246157E+02  0.7816164E-02  0.1226708E+00
        -11   -1    0    0    0    0  0.00000000000E+00  0.00000000000E+00  0.45593999997E+02  0.45594000000E+02  0.51100000000E-03 0.  1.
         11   -1    0    0    0    0 -0.00000000000E+00 -0.00000000000E+00 -0.45593999997E+02  0.45594000000E+02  0.51100000000E-03 0. -1.
    9900012    2    1    2    0    0 -0.12670348232E+02 -0.93989366789E+01 -0.10089675803E+02  0.72461567002E+02  0.69999995711E+02 0.  0.
        -12    1    1    2    0    0  0.12670348232E+02  0.93989366789E+01  0.10089675803E+02  0.18726432998E+02  0.00000000000E+00 0.  1.
         11    1    3    3    0    0 -0.98250627473E+01 -0.65620996396E+01  0.16444866693E+02  0.20249114808E+02  0.51100000000E-03 0. -1.
        -11    1    3    3    0    0 -0.52810138986E+01 -0.11652310638E+02  0.89209090694E+01  0.15596412084E+02  0.51100000000E-03 0.  1.
        -12    1    3    3    0    0  0.24357284139E+01  0.88154735989E+01 -0.35455451566E+02  0.36616040111E+02  0.00000000000E+00 0.  1.
</event>
<event>
 7    1  0.2809593E-013  0.7246157E+02  0.7816164E-02  0.1226708E+00
        -11   -1    0    0    0    0  0.00000000000E+00  0.00000000000E+00  0.45593999997E+02  0.45594000000E+02  0.51100000000E-03 0.  1.
         11   -1    0    0    0    0 -0.00000000000E+00 -0.00000000000E+00 -0.45593999997E+02  0.45594000000E+02  0.51100000000E-03 0. -1.
    9900012    2    1    2    0    0  0.13961071919E+02 -0.10920539779E+02 -0.60423132242E+01  0.72461567684E+02  0.69999996599E+02 0.  0.
        -12    1    1    2    0    0 -0.13961071919E+02  0.10920539779E+02  0.60423132242E+01  0.18726432316E+02  0.00000000000E+00 0.  1.
         11    1    3    3    0    0 -0.92581980743E+01 -0.24154807715E+02 -0.13014319636E+01  0.25901017215E+02  0.51100000000E-03 0. -1.
        -11    1    3    3    0    0 -0.50829452777E+01  0.27808578370E+01  0.11072364991E+02  0.12496670347E+02  0.51100000000E-03 0.  1.
        -12    1    3    3    0    0  0.28302215271E+02  0.10453410099E+02 -0.15813246252E+02  0.34063880122E+02  0.00000000000E+00 0.  1.
</event>
<event>
 7    1  0.2809593E-013  0.7246158E+02  0.7816164E-02  0.1226708E+00
        -11   -1    0    0    0    0  0.00000000000E+00  0.00000000000E+00  0.45593999997E+02  0.45594000000E+02  0.51100000000E-03 0. -1.
         11   -1    0    0    0    0 -0.00000000000E+00 -0.00000000000E+00 -0.45593999997E+02  0.45594000000E+02  0.51100000000E-03 0.  1.
    9900012    2    1    2    0    0  0.17486000128E+02 -0.42523251898E+01 -0.51803851638E+01  0.72461578547E+02  0.70000010750E+02 0.  0.
        -12    1    1    2    0    0 -0.17486000128E+02  0.42523251898E+01  0.51803851638E+01  0.18726421453E+02  0.00000000000E+00 0.  1.
         11    1    3    3    0    0 -0.25291628966E+01 -0.88990856715E+00 -0.76251165879E+01  0.80827597673E+01  0.51100000000E-03 0. -1.
        -11    1    3    3    0    0  0.21971802781E+02 -0.21225854163E+02 -0.19325932227E+02  0.36149531935E+02  0.51100000000E-03 0.  1.
         12    1    3    3    0    0 -0.19566397564E+01  0.17863437541E+02  0.21770663651E+02  0.28229286844E+02  0.00000000000E+00 0. -1.
</event>
<event>
 7    1  0.2809593E-013  0.7246151E+02  0.7816164E-02  0.1226708E+00
        -11   -1    0    0    0    0  0.00000000000E+00  0.00000000000E+00  0.45593999997E+02  0.45594000000E+02  0.51100000000E-03 0.  1.
         11   -1    0    0    0    0 -0.00000000000E+00 -0.00000000000E+00 -0.45593999997E+02  0.45594000000E+02  0.51100000000E-03 0. -1.
    9900012    2    1    2    0    0 -0.17839393452E+02 -0.18231637635E+01 -0.53956869849E+01  0.72461512799E+02  0.69999925101E+02 0.  0.
        -12    1    1    2    0    0  0.17839393452E+02  0.18231637635E+01  0.53956869849E+01  0.18726487201E+02  0.00000000000E+00 0.  1.
         11    1    3    3    0    0 -0.12050934285E+02 -0.19756848488E+02 -0.21629512861E+02  0.31676393516E+02  0.51100000000E-03 0. -1.
        -11    1    3    3    0    0 -0.10029174176E+02 -0.59247230501E+01  0.10941999010E+02  0.15981677649E+02  0.51100000000E-03 0.  1.
        -12    1    3    3    0    0  0.42407150090E+01  0.23858407774E+02  0.52918268653E+01  0.24803441634E+02  0.00000000000E+00 0.  1.
</event>
<event>
 7    1  0.2809593E-013  0.7246141E+02  0.7816164E-02  0.1226708E+00
        -11   -1    0    0    0    0  0.00000000000E+00  0.00000000000E+00  0.45593999997E+02  0.45594000000E+02  0.51100000000E-03 0.  1.
         11   -1    0    0    0    0 -0.00000000000E+00 -0.00000000000E+00 -0.45593999997E+02  0.45594000000E+02  0.51100000000E-03 0. -1.
    9900012    2    1    2    0    0  0.12724702730E+02 -0.78708991018E+01 -0.11261261321E+02  0.72461411448E+02  0.69999793073E+02 0.  0.
        -12    1    1    2    0    0 -0.12724702730E+02  0.78708991018E+01  0.11261261321E+02  0.18726588552E+02  0.00000000000E+00 0.  1.
         11    1    3    3    0    0  0.72431589290E+00  0.26471250101E+02 -0.88659169449E+01  0.27925905518E+02  0.51100000000E-03 0. -1.
        -11    1    3    3    0    0  0.10186061659E+02 -0.62364587443E+01  0.81527527100E+01  0.14460866046E+02  0.51100000000E-03 0.  1.
         12    1    3    3    0    0  0.18143251785E+01 -0.28105690459E+02 -0.10548097086E+02  0.30074639884E+02  0.00000000000E+00 0. -1.
</event>
<event>
 7    1  0.2809593E-013  0.7246150E+02  0.7816164E-02  0.1226708E+00
        -11   -1    0    0    0    0  0.00000000000E+00  0.00000000000E+00  0.45593999997E+02  0.45594000000E+02  0.51100000000E-03 0. -1.
         11   -1    0    0    0    0 -0.00000000000E+00 -0.00000000000E+00 -0.45593999997E+02  0.45594000000E+02  0.51100000000E-03 0.  1.
    9900012    2    1    2    0    0 -0.33561287591E+01  0.18218535135E+02  0.27391929235E+01  0.72461500044E+02  0.69999908486E+02 0.  0.
        -12    1    1    2    0    0  0.33561287591E+01 -0.18218535135E+02 -0.27391929235E+01  0.18726499956E+02  0.00000000000E+00 0.  1.
         11    1    3    3    0    0 -0.90331143339E+01  0.14052774149E+02  0.24959754945E+02  0.30034429960E+02  0.51100000000E-03 0. -1.
        -11    1    3    3    0    0 -0.71969106134E+01 -0.98459787560E+01  0.11958341518E+01  0.12254339624E+02  0.51100000000E-03 0.  1.
        -12    1    3    3    0    0  0.12873896188E+02  0.14011739743E+02 -0.23416396173E+02  0.30172730460E+02  0.00000000000E+00 0.  1.
</event>
<event>
 7    1  0.2809593E-013  0.7246115E+02  0.7816164E-02  0.1226709E+00
        -11   -1    0    0    0    0  0.00000000000E+00  0.00000000000E+00  0.45593999997E+02  0.45594000000E+02  0.51100000000E-03 0.  1.
         11   -1    0    0    0    0 -0.00000000000E+00 -0.00000000000E+00 -0.45593999997E+02  0.45594000000E+02  0.51100000000E-03 0. -1.
    9900012    2    1    2    0    0 -0.90910811357E+01  0.36237148105E+01 -0.15966082075E+02  0.72461151839E+02  0.69999454881E+02 0.  0.
        -12    1    1    2    0    0  0.90910811357E+01 -0.36237148105E+01  0.15966082075E+02  0.18726848161E+02  0.00000000000E+00 0.  1.
         11    1    3    3    0    0 -0.19489369319E+02 -0.19195269107E+01  0.11213015236E+01  0.19615744120E+02  0.51100000000E-03 0. -1.
        -11    1    3    3    0    0 -0.15937302472E+02  0.30231195001E+00  0.63938551225E+01  0.17174701924E+02  0.51100000000E-03 0.  1.
        -12    1    3    3    0    0  0.26335590655E+02  0.52409297712E+01 -0.23481238721E+02  0.35670705795E+02  0.00000000000E+00 0.  1.
</event>
<event>
 7    1  0.2809593E-013  0.7246153E+02  0.7816164E-02  0.1226708E+00
        -11   -1    0    0    0    0  0.00000000000E+00  0.00000000000E+00  0.45593999997E+02  0.45594000000E+02  0.51100000000E-03 0.  1.
         11   -1    0    0    0    0 -0.00000000000E+00 -0.00000000000E+00 -0.45593999997E+02  0.45594000000E+02  0.51100000000E-03 0. -1.
    9900012    2    1    2    0    0  0.13548893685E+02  0.88110827205E+01 -0.94590251047E+01  0.72461525299E+02  0.69999941385E+02 0.  0.
        -12    1    1    2    0    0 -0.13548893685E+02 -0.88110827205E+01  0.94590251047E+01  0.18726474701E+02  0.00000000000E+00 0.  1.
         11    1    3    3    0    0 -0.57978825287E+00  0.29114242636E+01 -0.62397602076E+01  0.69099315026E+01  0.51100000000E-03 0. -1.
        -11    1    3    3    0    0 -0.81535797530E+01  0.23600116886E+02  0.17379244746E+02  0.30421777200E+02  0.51100000000E-03 0.  1.
         12    1    3    3    0    0  0.22282261691E+02 -0.17700458429E+02 -0.20598509643E+02  0.35129816597E+02  0.00000000000E+00 0. -1.
</event>
<event>
 7    1  0.2809593E-013  0.7246155E+02  0.7816164E-02  0.1226708E+00
        -11   -1    0    0    0    0  0.00000000000E+00  0.00000000000E+00  0.45593999997E+02  0.45594000000E+02  0.51100000000E-03 0.  1.
         11   -1    0    0    0    0 -0.00000000000E+00 -0.00000000000E+00 -0.45593999997E+02  0.45594000000E+02  0.51100000000E-03 0. -1.
    9900012    2    1    2    0    0  0.99800144292E+01 -0.47949583207E+01 -0.15102570332E+02  0.72461549617E+02  0.69999973064E+02 0.  0.
        -12    1    1    2    0    0 -0.99800144292E+01  0.47949583207E+01  0.15102570332E+02  0.18726450383E+02  0.00000000000E+00 0.  1.
         11    1    3    3    0    0 -0.65436722856E+00  0.19800676662E+02 -0.22776338266E+02  0.30187026647E+02  0.51100000000E-03 0. -1.
        -11    1    3    3    0    0  0.78992207679E+01 -0.55312304735E+01 -0.11561011582E+02  0.15054872579E+02  0.51100000000E-03 0.  1.
        -12    1    3    3    0    0  0.27351608899E+01 -0.19064404509E+02  0.19234779517E+02  0.27219650391E+02  0.00000000000E+00 0.  1.
</event>
<event>
 7    1  0.2809593E-013  0.7246158E+02  0.7816164E-02  0.1226708E+00
        -11   -1    0    0    0    0  0.00000000000E+00  0.00000000000E+00  0.45593999997E+02  0.45594000000E+02  0.51100000000E-03 0.  1.
         11   -1    0    0    0    0 -0.00000000000E+00 -0.00000000000E+00 -0.45593999997E+02  0.45594000000E+02  0.51100000000E-03 0. -1.
    9900012    2    1    2    0    0  0.26745144474E+01 -0.88642428942E+01 -0.16277309200E+02  0.72461584849E+02  0.70000018960E+02 0.  0.
        -12    1    1    2    0    0 -0.26745144474E+01  0.88642428942E+01  0.16277309200E+02  0.18726415151E+02  0.00000000000E+00 0.  1.
         11    1    3    3    0    0 -0.34663574086E+01  0.35991585641E+01 -0.10649369954E+02  0.11763445784E+02  0.51100000000E-03 0. -1.
        -11    1    3    3    0    0 -0.15107557328E+01 -0.43550935754E+01  0.26392676738E+02  0.26792211715E+02  0.51100000000E-03 0.  1.
         12    1    3    3    0    0  0.76516275888E+01 -0.81083078829E+01 -0.32020615984E+02  0.33905927350E+02  0.00000000000E+00 0. -1.
</event>
<event>
 7    1  0.2809593E-013  0.7246157E+02  0.7816164E-02  0.1226708E+00
        -11   -1    0    0    0    0  0.00000000000E+00  0.00000000000E+00  0.45593999997E+02  0.45594000000E+02  0.51100000000E-03 0. -1.
         11   -1    0    0    0    0 -0.00000000000E+00 -0.00000000000E+00 -0.45593999997E+02  0.45594000000E+02  0.51100000000E-03 0.  1.
    9900012    2    1    2    0    0 -0.15861099117E+02  0.51433184582E+00  0.99418490773E+01  0.72461565061E+02  0.69999993183E+02 0.  0.
        -12    1    1    2    0    0  0.15861099117E+02 -0.51433184582E+00 -0.99418490773E+01  0.18726434939E+02  0.00000000000E+00 0.  1.
         11    1    3    3    0    0 -0.10612346940E+02  0.28267102719E+00  0.73191653817E+01  0.12894649768E+02  0.51100000000E-03 0. -1.
        -11    1    3    3    0    0  0.74898241137E+01 -0.14962050394E+02  0.24737845811E+02  0.29865053706E+02  0.51100000000E-03 0.  1.
        -12    1    3    3    0    0 -0.12738576291E+02  0.15193711213E+02 -0.22115162115E+02  0.29701861587E+02  0.00000000000E+00 0.  1.
</event>
<event>
 7    1  0.2809593E-013  0.7246150E+02  0.7816164E-02  0.1226708E+00
        -11   -1    0    0    0    0  0.00000000000E+00  0.00000000000E+00  0.45593999997E+02  0.45594000000E+02  0.51100000000E-03 0.  1.
         11   -1    0    0    0    0 -0.00000000000E+00 -0.00000000000E+00 -0.45593999997E+02  0.45594000000E+02  0.51100000000E-03 0. -1.
    9900012    2    1    2    0    0  0.20464417115E+01 -0.16817452506E+02 -0.79791728452E+01  0.72461499212E+02  0.69999907402E+02 0.  0.
        -12    1    1    2    0    0 -0.20464417115E+01  0.16817452506E+02  0.79791728452E+01  0.18726500788E+02  0.00000000000E+00 0.  1.
         11    1    3    3    0    0  0.55613473048E+01  0.28779162612E+01 -0.24653538897E+02  0.25436351276E+02  0.51100000000E-03 0.  1.
        -11    1    3    3    0    0 -0.20158754519E+01  0.11927603822E+02  0.25691126741E+01  0.12366560838E+02  0.51100000000E-03 0. -1.
        -12    1    3    3    0    0 -0.14990301414E+01 -0.31622972589E+02  0.14105253378E+02  0.34658587097E+02  0.00000000000E+00 0.  1.
</event>
<event>
 7    1  0.2809593E-013  0.7246166E+02  0.7816164E-02  0.1226708E+00
        -11   -1    0    0    0    0  0.00000000000E+00  0.00000000000E+00  0.45593999997E+02  0.45594000000E+02  0.51100000000E-03 0. -1.
         11   -1    0    0    0    0 -0.00000000000E+00 -0.00000000000E+00 -0.45593999997E+02  0.45594000000E+02  0.51100000000E-03 0.  1.
    9900012    2    1    2    0    0  0.42493338908E+01 -0.17923771299E+02  0.33700784604E+01  0.72461659062E+02  0.70000115636E+02 0.  0.
        -12    1    1    2    0    0 -0.42493338908E+01  0.17923771299E+02 -0.33700784604E+01  0.18726340938E+02  0.00000000000E+00 0.  1.
         11    1    3    3    0    0 -0.18708330373E+02  0.63933943642E+01  0.33865007626E+01  0.20058551905E+02  0.51100000000E-03 0. -1.
        -11    1    3    3    0    0  0.48260312079E+00 -0.20167329664E+02 -0.14943790678E+02  0.25105198100E+02  0.51100000000E-03 0.  1.
         12    1    3    3    0    0  0.22475061143E+02 -0.41498359992E+01  0.14927368376E+02  0.27297909057E+02  0.00000000000E+00 0. -1.
</event>
<event>
 7    1  0.2809593E-013  0.7246155E+02  0.7816164E-02  0.1226708E+00
        -11   -1    0    0    0    0  0.00000000000E+00  0.00000000000E+00  0.45593999997E+02  0.45594000000E+02  0.51100000000E-03 0.  1.
         11   -1    0    0    0    0 -0.00000000000E+00 -0.00000000000E+00 -0.45593999997E+02  0.45594000000E+02  0.51100000000E-03 0. -1.
    9900012    2    1    2    0    0 -0.56957071430E+01 -0.47112643260E+01 -0.17205900578E+02  0.72461545287E+02  0.69999967423E+02 0.  0.
        -12    1    1    2    0    0  0.56957071430E+01  0.47112643260E+01  0.17205900578E+02  0.18726454713E+02  0.00000000000E+00 0.  1.
         11    1    3    3    0    0  0.31186787684E+01 -0.48376532119E+01 -0.69467409523E+01  0.90214331444E+01  0.51100000000E-03 0. -1.
        -11    1    3    3    0    0  0.16631188083E+02 -0.12976909709E+02  0.14498398696E+02  0.25596878084E+02  0.51100000000E-03 0.  1.
         12    1    3    3    0    0 -0.25445573994E+02  0.13103298595E+02 -0.24757558322E+02  0.37843234059E+02  0.00000000000E+00 0. -1.
</event>
<event>
 7    1  0.2809593E-013  0.7246159E+02  0.7816164E-02  0.1226708E+00
        -11   -1    0    0    0    0  0.00000000000E+00  0.00000000000E+00  0.45593999997E+02  0.45594000000E+02  0.51100000000E-03 0.  1.
         11   -1    0    0    0    0 -0.00000000000E+00 -0.00000000000E+00 -0.45593999997E+02  0.45594000000E+02  0.51100000000E-03 0. -1.
    9900012    2    1    2    0    0 -0.11899517515E+02 -0.99817630681E+01 -0.10461572435E+02  0.72461585264E+02  0.70000019501E+02 0.  0.
        -12    1    1    2    0    0  0.11899517515E+02  0.99817630681E+01  0.10461572435E+02  0.18726414736E+02  0.00000000000E+00 0.  1.
         11    1    3    3    0    0 -0.24963478763E+00  0.28042778865E+01  0.20608701249E+01  0.34890511497E+01  0.51100000000E-03 0.  1.
        -11    1    3    3    0    0 -0.11982628390E+02 -0.18878732027E+02  0.23499248834E+02  0.32437703404E+02  0.51100000000E-03 0. -1.
         12    1    3    3    0    0  0.33274566204E+00  0.60926910727E+01 -0.36021691394E+02  0.36534830711E+02  0.00000000000E+00 0. -1.
</event>
<event>
 7    1  0.2809593E-013  0.7246126E+02  0.7816164E-02  0.1226709E+00
        -11   -1    0    0    0    0  0.00000000000E+00  0.00000000000E+00  0.45593999997E+02  0.45594000000E+02  0.51100000000E-03 0.  1.
         11   -1    0    0    0    0 -0.00000000000E+00 -0.00000000000E+00 -0.45593999997E+02  0.45594000000E+02  0.51100000000E-03 0. -1.
    9900012    2    1    2    0    0 -0.17297521188E+02 -0.12164207549E+01  0.70715595053E+01  0.72461257824E+02  0.69999592948E+02 0.  0.
        -12    1    1    2    0    0  0.17297521188E+02  0.12164207549E+01 -0.70715595053E+01  0.18726742176E+02  0.00000000000E+00 0.  1.
         11    1    3    3    0    0  0.88533874985E+01  0.30139282432E+01 -0.63703850865E+01  0.11315831391E+02  0.51100000000E-03 0. -1.
        -11    1    3    3    0    0 -0.43859958054E+01  0.35577513116E+01  0.31380883560E+02  0.31885018533E+02  0.51100000000E-03 0.  1.
         12    1    3    3    0    0 -0.21764912881E+02 -0.77881003096E+01 -0.17938938968E+02  0.29260407900E+02  0.00000000000E+00 0. -1.
</event>
<event>
 7    1  0.2809593E-013  0.7246163E+02  0.7816164E-02  0.1226708E+00
        -11   -1    0    0    0    0  0.00000000000E+00  0.00000000000E+00  0.45593999997E+02  0.45594000000E+02  0.51100000000E-03 0.  1.
         11   -1    0    0    0    0 -0.00000000000E+00 -0.00000000000E+00 -0.45593999997E+02  0.45594000000E+02  0.51100000000E-03 0. -1.
    9900012    2    1    2    0    0 -0.82935369560E+01 -0.13990422660E+02 -0.92823547095E+01  0.72461633818E+02  0.70000082751E+02 0.  0.
        -12    1    1    2    0    0  0.82935369560E+01  0.13990422660E+02  0.92823547095E+01  0.18726366182E+02  0.00000000000E+00 0.  1.
         11    1    3    3    0    0  0.60881007763E+01 -0.15228495441E+02  0.93790944457E+00  0.16427164054E+02  0.51100000000E-03 0. -1.
        -11    1    3    3    0    0  0.10483258734E+01 -0.19403259962E+02  0.11283636091E+02  0.22470111882E+02  0.51100000000E-03 0.  1.
         12    1    3    3    0    0 -0.15429963606E+02  0.20641332743E+02 -0.21503900245E+02  0.33564357882E+02  0.00000000000E+00 0. -1.
</event>
<event>
 7    1  0.2809593E-013  0.7246157E+02  0.7816164E-02  0.1226708E+00
        -11   -1    0    0    0    0  0.00000000000E+00  0.00000000000E+00  0.45593999997E+02  0.45594000000E+02  0.51100000000E-03 0.  1.
         11   -1    0    0    0    0 -0.00000000000E+00 -0.00000000000E+00 -0.45593999997E+02  0.45594000000E+02  0.51100000000E-03 0. -1.
    9900012    2    1    2    0    0 -0.17847991876E+02  0.49939869044E+01 -0.26811301633E+01  0.72461570064E+02  0.69999999700E+02 0.  0.
        -12    1    1    2    0    0  0.17847991876E+02 -0.49939869044E+01  0.26811301633E+01  0.18726429936E+02  0.00000000000E+00 0.  1.
         11    1    3    3    0    0  0.14935155551E+02 -0.13646915020E+02 -0.15395298106E+02  0.25422674229E+02  0.51100000000E-03 0. -1.
        -11    1    3    3    0    0 -0.12572887071E+02 -0.47184849300E+01 -0.50901307343E+00  0.13438775387E+02  0.51100000000E-03 0.  1.
        -12    1    3    3    0    0 -0.20210260356E+02  0.23359386855E+02  0.13223181016E+02  0.33600120447E+02  0.00000000000E+00 0.  1.
</event>
<event>
 7    1  0.2809593E-013  0.7246158E+02  0.7816164E-02  0.1226708E+00
        -11   -1    0    0    0    0  0.00000000000E+00  0.00000000000E+00  0.45593999997E+02  0.45594000000E+02  0.51100000000E-03 0. -1.
         11   -1    0    0    0    0 -0.00000000000E+00 -0.00000000000E+00 -0.45593999997E+02  0.45594000000E+02  0.51100000000E-03 0.  1.
    9900012    2    1    2    0    0  0.11860833101E+02 -0.11135285427E+02  0.92738728974E+01  0.72461583847E+02  0.70000017655E+02 0.  0.
        -12    1    1    2    0    0 -0.11860833101E+02  0.11135285427E+02 -0.92738728974E+01  0.18726416153E+02  0.00000000000E+00 0.  1.
         11    1    3    3    0    0 -0.17252060055E+02 -0.23804676606E+02  0.37964516044E+01  0.29643030370E+02  0.51100000000E-03 0. -1.
        -11    1    3    3    0    0 -0.47899700052E+01  0.54427944479E+01  0.36212261807E+01  0.81043879082E+01  0.51100000000E-03 0.  1.
        -12    1    3    3    0    0  0.33902863162E+02  0.72265967303E+01  0.18561951124E+01  0.34714165569E+02  0.00000000000E+00 0.  1.
</event>
<event>
 7    1  0.2809593E-013  0.7246158E+02  0.7816164E-02  0.1226708E+00
        -11   -1    0    0    0    0  0.00000000000E+00  0.00000000000E+00  0.45593999997E+02  0.45594000000E+02  0.51100000000E-03 0.  1.
         11   -1    0    0    0    0 -0.00000000000E+00 -0.00000000000E+00 -0.45593999997E+02  0.45594000000E+02  0.51100000000E-03 0. -1.
    9900012    2    1    2    0    0 -0.15313708138E+02 -0.26881118265E+01  0.10437582155E+02  0.72461582207E+02  0.70000015518E+02 0.  0.
        -12    1    1    2    0    0  0.15313708138E+02  0.26881118265E+01 -0.10437582155E+02  0.18726417793E+02  0.00000000000E+00 0.  1.
         11    1    3    3    0    0 -0.26271463348E+02  0.62748621992E+01  0.10342552647E+01  0.27030230600E+02  0.51100000000E-03 0. -1.
        -11    1    3    3    0    0 -0.12848228459E+02 -0.13216722236E+02  0.10518582549E+02  0.21222612947E+02  0.51100000000E-03 0.  1.
        -12    1    3    3    0    0  0.23805983670E+02  0.42537482102E+01 -0.11152556583E+01  0.24208738660E+02  0.00000000000E+00 0.  1.
</event>
<event>
 7    1  0.2809593E-013  0.7246158E+02  0.7816164E-02  0.1226708E+00
        -11   -1    0    0    0    0  0.00000000000E+00  0.00000000000E+00  0.45593999997E+02  0.45594000000E+02  0.51100000000E-03 0.  1.
         11   -1    0    0    0    0 -0.00000000000E+00 -0.00000000000E+00 -0.45593999997E+02  0.45594000000E+02  0.51100000000E-03 0. -1.
    9900012    2    1    2    0    0 -0.15043784791E+02 -0.20282781694E+01 -0.10965825645E+02  0.72461582691E+02  0.70000016149E+02 0.  0.
        -12    1    1    2    0    0  0.15043784791E+02  0.20282781694E+01  0.10965825645E+02  0.18726417309E+02  0.00000000000E+00 0.  1.
         11    1    3    3    0    0 -0.11298148063E+02 -0.99504861724E+00  0.19389506404E+01  0.11506424347E+02  0.51100000000E-03 0. -1.
        -11    1    3    3    0    0 -0.22516897066E+02  0.11536964985E+02  0.11419476116E+02  0.27758181669E+02  0.51100000000E-03 0.  1.
         12    1    3    3    0    0  0.18771260338E+02 -0.12570194537E+02 -0.24324252402E+02  0.33196976674E+02  0.00000000000E+00 0. -1.
</event>
<event>
 7    1  0.2809593E-013  0.7246154E+02  0.7816164E-02  0.1226708E+00
        -11   -1    0    0    0    0  0.00000000000E+00  0.00000000000E+00  0.45593999997E+02  0.45594000000E+02  0.51100000000E-03 0. -1.
         11   -1    0    0    0    0 -0.00000000000E+00 -0.00000000000E+00 -0.45593999997E+02  0.45594000000E+02  0.51100000000E-03 0.  1.
    9900012    2    1    2    0    0  0.74870439229E+01  0.44426410150E+01  0.16579730002E+02  0.72461539233E+02  0.69999959537E+02 0.  0.
        -12    1    1    2    0    0 -0.74870439229E+01 -0.44426410150E+01 -0.16579730002E+02  0.18726460767E+02  0.00000000000E+00 0.  1.
         11    1    3    3    0    0 -0.16725337337E+02  0.90420569710E+01 -0.17848001473E+02  0.26077708107E+02  0.51100000000E-03 0. -1.
        -11    1    3    3    0    0  0.10144658040E+01  0.45883932093E+01  0.12347009456E+01  0.48587014517E+01  0.51100000000E-03 0.  1.
         12    1    3    3    0    0  0.23197915456E+02 -0.91878091653E+01  0.33193030529E+02  0.41525129674E+02  0.00000000000E+00 0. -1.
</event>
<event>
 7    1  0.2809593E-013  0.7246158E+02  0.7816164E-02  0.1226708E+00
        -11   -1    0    0    0    0  0.00000000000E+00  0.00000000000E+00  0.45593999997E+02  0.45594000000E+02  0.51100000000E-03 0.  1.
         11   -1    0    0    0    0 -0.00000000000E+00 -0.00000000000E+00 -0.45593999997E+02  0.45594000000E+02  0.51100000000E-03 0. -1.
    9900012    2    1    2    0    0  0.69862865786E+01 -0.14177327544E+02 -0.10043606815E+02  0.72461578710E+02  0.70000010963E+02 0.  0.
        -12    1    1    2    0    0 -0.69862865786E+01  0.14177327544E+02  0.10043606815E+02  0.18726421290E+02  0.00000000000E+00 0.  1.
         11    1    3    3    0    0 -0.13644276447E+02  0.12610916042E+02 -0.29007835763E+01  0.18804681034E+02  0.51100000000E-03 0. -1.
        -11    1    3    3    0    0 -0.94478713248E+01  0.38817854133E+01 -0.17260121251E+01  0.10359037054E+02  0.51100000000E-03 0.  1.
         12    1    3    3    0    0  0.30078434350E+02 -0.30670029000E+02 -0.54168111140E+01  0.43297860622E+02  0.00000000000E+00 0. -1.
</event>
<event>
 7    1  0.2809593E-013  0.7246149E+02  0.7816164E-02  0.1226708E+00
        -11   -1    0    0    0    0  0.00000000000E+00  0.00000000000E+00  0.45593999997E+02  0.45594000000E+02  0.51100000000E-03 0.  1.
         11   -1    0    0    0    0 -0.00000000000E+00 -0.00000000000E+00 -0.45593999997E+02  0.45594000000E+02  0.51100000000E-03 0. -1.
    9900012    2    1    2    0    0  0.78340863659E+01 -0.12326013192E+02 -0.11720860864E+02  0.72461492323E+02  0.69999898427E+02 0.  0.
        -12    1    1    2    0    0 -0.78340863659E+01  0.12326013192E+02  0.11720860864E+02  0.18726507677E+02  0.00000000000E+00 0.  1.
         11    1    3    3    0    0  0.18092301202E+02  0.48782959877E+01 -0.72898514434E+00  0.18752614594E+02  0.51100000000E-03 0. -1.
        -11    1    3    3    0    0 -0.17257697210E+02  0.12834850067E+02 -0.21035305456E+01  0.21609866503E+02  0.51100000000E-03 0.  1.
         12    1    3    3    0    0  0.69994823745E+01 -0.30039159246E+02 -0.88883451738E+01  0.32099011226E+02  0.00000000000E+00 0. -1.
</event>
<event>
 7    1  0.2809593E-013  0.7246157E+02  0.7816164E-02  0.1226708E+00
        -11   -1    0    0    0    0  0.00000000000E+00  0.00000000000E+00  0.45593999997E+02  0.45594000000E+02  0.51100000000E-03 0.  1.
         11   -1    0    0    0    0 -0.00000000000E+00 -0.00000000000E+00 -0.45593999997E+02  0.45594000000E+02  0.51100000000E-03 0. -1.
    9900012    2    1    2    0    0 -0.31991394311E+01 -0.36386224003E+00 -0.18447557725E+02  0.72461567482E+02  0.69999996336E+02 0.  0.
        -12    1    1    2    0    0  0.31991394311E+01  0.36386224003E+00  0.18447557725E+02  0.18726432518E+02  0.00000000000E+00 0.  1.
         11    1    3    3    0    0 -0.80756544144E+01  0.64539457219E+01 -0.11214847033E+02  0.15252619573E+02  0.51100000000E-03 0. -1.
        -11    1    3    3    0    0 -0.21448624904E+02 -0.42828799707E+00  0.11435069898E+02  0.24310239915E+02  0.51100000000E-03 0.  1.
         12    1    3    3    0    0  0.26325139888E+02 -0.63895199648E+01 -0.18667780590E+02  0.32898707994E+02  0.00000000000E+00 0. -1.
</event>
<event>
 7    1  0.2809593E-013  0.7246149E+02  0.7816164E-02  0.1226708E+00
        -11   -1    0    0    0    0  0.00000000000E+00  0.00000000000E+00  0.45593999997E+02  0.45594000000E+02  0.51100000000E-03 0.  1.
         11   -1    0    0    0    0 -0.00000000000E+00 -0.00000000000E+00 -0.45593999997E+02  0.45594000000E+02  0.51100000000E-03 0. -1.
    9900012    2    1    2    0    0 -0.22755423459E+01  0.79168572936E-01 -0.18587572543E+02  0.72461489015E+02  0.69999894118E+02 0.  0.
        -12    1    1    2    0    0  0.22755423459E+01 -0.79168572936E-01  0.18587572543E+02  0.18726510985E+02  0.00000000000E+00 0.  1.
         11    1    3    3    0    0 -0.46592079254E+01  0.54042912177E+01 -0.81264823482E+01  0.10814541029E+02  0.51100000000E-03 0. -1.
        -11    1    3    3    0    0 -0.18981219434E+02  0.18121314272E+02  0.44151281492E+01  0.26611314868E+02  0.51100000000E-03 0.  1.
         12    1    3    3    0    0  0.21364885013E+02 -0.23446436917E+02 -0.14876218344E+02  0.35035633118E+02  0.00000000000E+00 0. -1.
</event>
<event>
 7    1  0.2809593E-013  0.7246158E+02  0.7816164E-02  0.1226708E+00
        -11   -1    0    0    0    0  0.00000000000E+00  0.00000000000E+00  0.45593999997E+02  0.45594000000E+02  0.51100000000E-03 0.  1.
         11   -1    0    0    0    0 -0.00000000000E+00 -0.00000000000E+00 -0.45593999997E+02  0.45594000000E+02  0.51100000000E-03 0. -1.
    9900012    2    1    2    0    0  0.43256473172E+01  0.11589042152E+02 -0.14059222314E+02  0.72461578698E+02  0.70000010947E+02 0.  0.
        -12    1    1    2    0    0 -0.43256473172E+01 -0.11589042152E+02  0.14059222314E+02  0.18726421302E+02  0.00000000000E+00 0.  1.
         11    1    3    3    0    0 -0.12724333676E+02 -0.15144059489E+02 -0.14592054639E+02  0.24580058261E+02  0.51100000000E-03 0. -1.
        -11    1    3    3    0    0  0.61118761494E+01 -0.13038545530E-01 -0.14190281978E+02  0.15450543776E+02  0.51100000000E-03 0.  1.
         12    1    3    3    0    0  0.10938104844E+02  0.26746140186E+02  0.14723114303E+02  0.32430976661E+02  0.00000000000E+00 0. -1.
</event>
<event>
 7    1  0.2809593E-013  0.7246158E+02  0.7816164E-02  0.1226708E+00
        -11   -1    0    0    0    0  0.00000000000E+00  0.00000000000E+00  0.45593999997E+02  0.45594000000E+02  0.51100000000E-03 0. -1.
         11   -1    0    0    0    0 -0.00000000000E+00 -0.00000000000E+00 -0.45593999997E+02  0.45594000000E+02  0.51100000000E-03 0.  1.
    9900012    2    1    2    0    0  0.12727654539E+02  0.38304137207E+01  0.13191422444E+02  0.72461577880E+02  0.70000009882E+02 0.  0.
        -12    1    1    2    0    0 -0.12727654539E+02 -0.38304137207E+01 -0.13191422444E+02  0.18726422120E+02  0.00000000000E+00 0.  1.
         11    1    3    3    0    0  0.64843203587E+01  0.20909902107E+02  0.16773839051E+02  0.27579559340E+02  0.51100000000E-03 0. -1.
        -11    1    3    3    0    0 -0.49902344228E+01 -0.14120228630E+02  0.16124224118E+02  0.22006224116E+02  0.51100000000E-03 0.  1.
        -12    1    3    3    0    0  0.11233568603E+02 -0.29592597564E+01 -0.19706640725E+02  0.22875794424E+02  0.00000000000E+00 0.  1.
</event>
<event>
 7    1  0.2809593E-013  0.7246141E+02  0.7816164E-02  0.1226708E+00
        -11   -1    0    0    0    0  0.00000000000E+00  0.00000000000E+00  0.45593999997E+02  0.45594000000E+02  0.51100000000E-03 0.  1.
         11   -1    0    0    0    0 -0.00000000000E+00 -0.00000000000E+00 -0.45593999997E+02  0.45594000000E+02  0.51100000000E-03 0. -1.
    9900012    2    1    2    0    0  0.11927596628E+02 -0.52259798956E+01 -0.13457587430E+02  0.72461412308E+02  0.69999794193E+02 0.  0.
        -12    1    1    2    0    0 -0.11927596628E+02  0.52259798956E+01  0.13457587430E+02  0.18726587692E+02  0.00000000000E+00 0.  1.
         11    1    3    3    0    0  0.36614000974E+01  0.15016395290E+02 -0.71252840854E+01  0.17019625488E+02  0.51100000000E-03 0. -1.
        -11    1    3    3    0    0  0.95421525388E+00 -0.20625314010E+02 -0.26726480603E+02  0.33773049469E+02  0.51100000000E-03 0.  1.
        -12    1    3    3    0    0  0.73119812763E+01  0.38293882376E+00  0.20394177259E+02  0.21668737351E+02  0.00000000000E+00 0.  1.
</event>
<event>
 7    1  0.2809593E-013  0.7246144E+02  0.7816164E-02  0.1226708E+00
        -11   -1    0    0    0    0  0.00000000000E+00  0.00000000000E+00  0.45593999997E+02  0.45594000000E+02  0.51100000000E-03 0.  1.
         11   -1    0    0    0    0 -0.00000000000E+00 -0.00000000000E+00 -0.45593999997E+02  0.45594000000E+02  0.51100000000E-03 0. -1.
    9900012    2    1    2    0    0  0.15152360390E+02 -0.10927674334E+02 -0.12945172645E+01  0.72461444880E+02  0.69999836624E+02 0.  0.
        -12    1    1    2    0    0 -0.15152360390E+02  0.10927674334E+02  0.12945172645E+01  0.18726555120E+02  0.00000000000E+00 0.  1.
         11    1    3    3    0    0  0.17740804455E+02 -0.20352243726E+02 -0.54856760969E+01  0.27550727937E+02  0.51100000000E-03 0. -1.
        -11    1    3    3    0    0 -0.71162640797E+01  0.61031883300E+01 -0.18926332666E+02  0.21120989340E+02  0.51100000000E-03 0.  1.
         12    1    3    3    0    0  0.45278200147E+01  0.33213810620E+01  0.23117491499E+02  0.23789727603E+02  0.00000000000E+00 0. -1.
</event>
<event>
 7    1  0.2809593E-013  0.7246154E+02  0.7816164E-02  0.1226708E+00
        -11   -1    0    0    0    0  0.00000000000E+00  0.00000000000E+00  0.45593999997E+02  0.45594000000E+02  0.51100000000E-03 0. -1.
         11   -1    0    0    0    0 -0.00000000000E+00 -0.00000000000E+00 -0.45593999997E+02  0.45594000000E+02  0.51100000000E-03 0.  1.
    9900012    2    1    2    0    0  0.14832563381E+02 -0.65365382435E+01  0.93781106520E+01  0.72461542031E+02  0.69999963182E+02 0.  0.
        -12    1    1    2    0    0 -0.14832563381E+02  0.65365382435E+01 -0.93781106520E+01  0.18726457969E+02  0.00000000000E+00 0.  1.
         11    1    3    3    0    0  0.16111906716E+01  0.18341537513E+02  0.86892139081E+00  0.18432660100E+02  0.51100000000E-03 0. -1.
        -11    1    3    3    0    0  0.22076465082E+02 -0.26680697403E+02 -0.76956369274E+01  0.35474677622E+02  0.51100000000E-03 0.  1.
         12    1    3    3    0    0 -0.88550923732E+01  0.18026216465E+01  0.16204826189E+02  0.18554204309E+02  0.00000000000E+00 0. -1.
</event>
<event>
 7    1  0.2809593E-013  0.7246161E+02  0.7816164E-02  0.1226708E+00
        -11   -1    0    0    0    0  0.00000000000E+00  0.00000000000E+00  0.45593999997E+02  0.45594000000E+02  0.51100000000E-03 0.  1.
         11   -1    0    0    0    0 -0.00000000000E+00 -0.00000000000E+00 -0.45593999997E+02  0.45594000000E+02  0.51100000000E-03 0. -1.
    9900012    2    1    2    0    0  0.58708986616E+01 -0.17628447012E+02 -0.23341101820E+01  0.72461610452E+02  0.70000052313E+02 0.  0.
        -12    1    1    2    0    0 -0.58708986616E+01  0.17628447012E+02  0.23341101820E+01  0.18726389548E+02  0.00000000000E+00 0.  1.
         11    1    3    3    0    0  0.21808552850E+02 -0.16182130451E+02  0.71369718301E+01  0.28078651864E+02  0.51100000000E-03 0. -1.
        -11    1    3    3    0    0 -0.15796280064E+02 -0.55211510293E+01  0.13221894638E+02  0.21326604760E+02  0.51100000000E-03 0.  1.
         12    1    3    3    0    0 -0.14137412455E+00  0.40748344684E+01 -0.22692976650E+02  0.23056353827E+02  0.00000000000E+00 0. -1.
</event>
<event>
 7    1  0.2809593E-013  0.7246157E+02  0.7816164E-02  0.1226708E+00
        -11   -1    0    0    0    0  0.00000000000E+00  0.00000000000E+00  0.45593999997E+02  0.45594000000E+02  0.51100000000E-03 0.  1.
         11   -1    0    0    0    0 -0.00000000000E+00 -0.00000000000E+00 -0.45593999997E+02  0.45594000000E+02  0.51100000000E-03 0. -1.
    9900012    2    1    2    0    0 -0.17617304832E+02 -0.57583438755E+01  0.26741809635E+01  0.72461569546E+02  0.69999999025E+02 0.  0.
        -12    1    1    2    0    0  0.17617304832E+02  0.57583438755E+01 -0.26741809635E+01  0.18726430454E+02  0.00000000000E+00 0.  1.
         11    1    3    3    0    0 -0.78436750853E+01 -0.54024181000E+01 -0.11825745277E+02  0.15184123675E+02  0.51100000000E-03 0. -1.
        -11    1    3    3    0    0 -0.86813396932E+01 -0.11950695693E+02 -0.17689697537E+02  0.23045827944E+02  0.51100000000E-03 0.  1.
        -12    1    3    3    0    0 -0.10922900534E+01  0.11594769917E+02  0.32189623777E+02  0.34231617927E+02  0.00000000000E+00 0.  1.
</event>
<event>
 7    1  0.2809593E-013  0.7246179E+02  0.7816164E-02  0.1226707E+00
        -11   -1    0    0    0    0  0.00000000000E+00  0.00000000000E+00  0.45593999997E+02  0.45594000000E+02  0.51100000000E-03 0. -1.
         11   -1    0    0    0    0 -0.00000000000E+00 -0.00000000000E+00 -0.45593999997E+02  0.45594000000E+02  0.51100000000E-03 0.  1.
    9900012    2    1    2    0    0 -0.53986404059E+01 -0.12249571169E+02  0.13094787213E+02  0.72461794720E+02  0.70000292355E+02 0.  0.
        -12    1    1    2    0    0  0.53986404059E+01  0.12249571169E+02 -0.13094787213E+02  0.18726205280E+02  0.00000000000E+00 0.  1.
         11    1    3    3    0    0 -0.15511963861E+02 -0.51536717725E+01  0.47414157484E+01  0.17019470589E+02  0.51100000000E-03 0. -1.
        -11    1    3    3    0    0 -0.77528450676E+01  0.20322626487E+02  0.35865753883E+00  0.21754180965E+02  0.51100000000E-03 0.  1.
         12    1    3    3    0    0  0.17866168523E+02 -0.27418525883E+02  0.79947139253E+01  0.33688143167E+02  0.00000000000E+00 0. -1.
</event>
<event>
 7    1  0.2809593E-013  0.7246201E+02  0.7816164E-02  0.1226707E+00
        -11   -1    0    0    0    0  0.00000000000E+00  0.00000000000E+00  0.45593999997E+02  0.45594000000E+02  0.51100000000E-03 0. -1.
         11   -1    0    0    0    0 -0.00000000000E+00 -0.00000000000E+00 -0.45593999997E+02  0.45594000000E+02  0.51100000000E-03 0.  1.
    9900012    2    1    2    0    0 -0.20824083154E+01  0.15990216901E+02  0.95204622023E+01  0.72462011068E+02  0.70000574187E+02 0.  0.
        -12    1    1    2    0    0  0.20824083154E+01 -0.15990216901E+02 -0.95204622023E+01  0.18725988932E+02  0.00000000000E+00 0.  1.
         11    1    3    3    0    0 -0.98112976896E+00 -0.47168121561E+01  0.26936028950E+02  0.27363490062E+02  0.51100000000E-03 0. -1.
        -11    1    3    3    0    0 -0.10805513970E+02  0.15814863295E+02  0.53372328783E+01  0.19883538122E+02  0.51100000000E-03 0.  1.
         12    1    3    3    0    0  0.97042354234E+01  0.48921657622E+01 -0.22752799626E+02  0.25214982883E+02  0.00000000000E+00 0. -1.
</event>
<event>
 7    1  0.2809593E-013  0.7246155E+02  0.7816164E-02  0.1226708E+00
        -11   -1    0    0    0    0  0.00000000000E+00  0.00000000000E+00  0.45593999997E+02  0.45594000000E+02  0.51100000000E-03 0. -1.
         11   -1    0    0    0    0 -0.00000000000E+00 -0.00000000000E+00 -0.45593999997E+02  0.45594000000E+02  0.51100000000E-03 0.  1.
    9900012    2    1    2    0    0 -0.13977100615E+02  0.29709951811E+01  0.12103465370E+02  0.72461547375E+02  0.69999970143E+02 0.  0.
        -12    1    1    2    0    0  0.13977100615E+02 -0.29709951811E+01 -0.12103465370E+02  0.18726452625E+02  0.00000000000E+00 0.  1.
         11    1    3    3    0    0  0.11494860473E+02  0.61837880079E+01  0.72057196249E+01  0.14909508610E+02  0.51100000000E-03 0. -1.
        -11    1    3    3    0    0  0.38310708974E+01 -0.59414018664E+01 -0.18596221314E+02  0.19894642691E+02  0.51100000000E-03 0.  1.
         12    1    3    3    0    0 -0.29303031985E+02  0.27286090396E+01  0.23493967060E+02  0.37657396074E+02  0.00000000000E+00 0. -1.
</event>
<event>
 7    1  0.2809593E-013  0.7246153E+02  0.7816164E-02  0.1226708E+00
        -11   -1    0    0    0    0  0.00000000000E+00  0.00000000000E+00  0.45593999997E+02  0.45594000000E+02  0.51100000000E-03 0.  1.
         11   -1    0    0    0    0 -0.00000000000E+00 -0.00000000000E+00 -0.45593999997E+02  0.45594000000E+02  0.51100000000E-03 0. -1.
    9900012    2    1    2    0    0 -0.71249056474E+01 -0.12384278885E+02 -0.12105625641E+02  0.72461526329E+02  0.69999942727E+02 0.  0.
        -12    1    1    2    0    0  0.71249056474E+01  0.12384278885E+02  0.12105625641E+02  0.18726473671E+02  0.00000000000E+00 0.  1.
         11    1    3    3    0    0 -0.11713754121E+02  0.35300291661E+00 -0.26053122049E+02  0.28567495785E+02  0.51100000000E-03 0. -1.
        -11    1    3    3    0    0  0.58336020394E+00 -0.13456567219E+02 -0.11751357983E+02  0.17874952452E+02  0.51100000000E-03 0.  1.
        -12    1    3    3    0    0  0.40054882698E+01  0.71928541741E+00  0.25698854390E+02  0.26019078092E+02  0.00000000000E+00 0.  1.
</event>
<event>
 7    1  0.2809593E-013  0.7246157E+02  0.7816164E-02  0.1226708E+00
        -11   -1    0    0    0    0  0.00000000000E+00  0.00000000000E+00  0.45593999997E+02  0.45594000000E+02  0.51100000000E-03 0.  1.
         11   -1    0    0    0    0 -0.00000000000E+00 -0.00000000000E+00 -0.45593999997E+02  0.45594000000E+02  0.51100000000E-03 0. -1.
    9900012    2    1    2    0    0 -0.63001079630E+01 -0.98715750792E+01 -0.14612997881E+02  0.72461573166E+02  0.70000003741E+02 0.  0.
        -12    1    1    2    0    0  0.63001079630E+01  0.98715750792E+01  0.14612997881E+02  0.18726426834E+02  0.00000000000E+00 0.  1.
         11    1    3    3    0    0  0.32227043177E+01 -0.16527479371E+02 -0.81623570174E+01  0.18712762218E+02  0.51100000000E-03 0. -1.
        -11    1    3    3    0    0  0.35180530703E+01 -0.10675240909E+02  0.17901758511E+02  0.21137890716E+02  0.51100000000E-03 0.  1.
        -12    1    3    3    0    0 -0.13040865351E+02  0.17331145201E+02 -0.24352399375E+02  0.32610920232E+02  0.00000000000E+00 0.  1.
</event>
<event>
 7    1  0.2809593E-013  0.7246160E+02  0.7816164E-02  0.1226708E+00
        -11   -1    0    0    0    0  0.00000000000E+00  0.00000000000E+00  0.45593999997E+02  0.45594000000E+02  0.51100000000E-03 0.  1.
         11   -1    0    0    0    0 -0.00000000000E+00 -0.00000000000E+00 -0.45593999997E+02  0.45594000000E+02  0.51100000000E-03 0. -1.
    9900012    2    1    2    0    0  0.16003299368E+02 -0.36263806588E+00 -0.97180793218E+01  0.72461597176E+02  0.70000035018E+02 0.  0.
        -12    1    1    2    0    0 -0.16003299368E+02  0.36263806588E+00  0.97180793218E+01  0.18726402824E+02  0.00000000000E+00 0.  1.
         11    1    3    3    0    0  0.48877171939E+01 -0.62827734263E+01 -0.21190261478E+02  0.22636037706E+02  0.51100000000E-03 0. -1.
        -11    1    3    3    0    0  0.71598936211E+01  0.23267313964E+02 -0.58031758943E+01  0.25026162840E+02  0.51100000000E-03 0.  1.
        -12    1    3    3    0    0  0.39556885528E+01 -0.17347178604E+02  0.17275358050E+02  0.24799396630E+02  0.00000000000E+00 0.  1.
</event>
<event>
 7    1  0.2809593E-013  0.7246159E+02  0.7816164E-02  0.1226708E+00
        -11   -1    0    0    0    0  0.00000000000E+00  0.00000000000E+00  0.45593999997E+02  0.45594000000E+02  0.51100000000E-03 0. -1.
         11   -1    0    0    0    0 -0.00000000000E+00 -0.00000000000E+00 -0.45593999997E+02  0.45594000000E+02  0.51100000000E-03 0.  1.
    9900012    2    1    2    0    0  0.10915981297E+02 -0.15120185042E+02  0.17028755831E+01  0.72461590076E+02  0.70000025769E+02 0.  0.
        -12    1    1    2    0    0 -0.10915981297E+02  0.15120185042E+02 -0.17028755831E+01  0.18726409924E+02  0.00000000000E+00 0.  1.
         11    1    3    3    0    0  0.20648890133E+02 -0.43688976260E+01 -0.13988693120E+02  0.25320889906E+02  0.51100000000E-03 0. -1.
        -11    1    3    3    0    0  0.13549584444E+02 -0.59535409638E+01  0.17947052394E+02  0.23262256522E+02  0.51100000000E-03 0.  1.
        -12    1    3    3    0    0 -0.23282493280E+02 -0.47977464523E+01 -0.22554836903E+01  0.23878443648E+02  0.00000000000E+00 0.  1.
</event>
<event>
 7    1  0.2809593E-013  0.7246162E+02  0.7816164E-02  0.1226708E+00
        -11   -1    0    0    0    0  0.00000000000E+00  0.00000000000E+00  0.45593999997E+02  0.45594000000E+02  0.51100000000E-03 0.  1.
         11   -1    0    0    0    0 -0.00000000000E+00 -0.00000000000E+00 -0.45593999997E+02  0.45594000000E+02  0.51100000000E-03 0. -1.
    9900012    2    1    2    0    0  0.75220739573E+01 -0.40169708749E+01 -0.16672127349E+02  0.72461615352E+02  0.70000058696E+02 0.  0.
        -12    1    1    2    0    0 -0.75220739573E+01  0.40169708749E+01  0.16672127349E+02  0.18726384648E+02  0.00000000000E+00 0.  1.
         11    1    3    3    0    0 -0.50344661836E+01 -0.11971866623E+02 -0.23970280974E+02  0.27262534923E+02  0.51100000000E-03 0. -1.
        -11    1    3    3    0    0  0.47525636258E+01 -0.93713376749E+01 -0.13447438166E+02  0.17065826213E+02  0.51100000000E-03 0.  1.
        -12    1    3    3    0    0  0.78039765151E+01  0.17326233423E+02  0.20745591790E+02  0.28133254216E+02  0.00000000000E+00 0.  1.
</event>
<event>
 7    1  0.2809593E-013  0.7246154E+02  0.7816164E-02  0.1226708E+00
        -11   -1    0    0    0    0  0.00000000000E+00  0.00000000000E+00  0.45593999997E+02  0.45594000000E+02  0.51100000000E-03 0.  1.
         11   -1    0    0    0    0 -0.00000000000E+00 -0.00000000000E+00 -0.45593999997E+02  0.45594000000E+02  0.51100000000E-03 0. -1.
    9900012    2    1    2    0    0  0.14837393980E+02 -0.61751796552E+01 -0.96124530409E+01  0.72461538579E+02  0.69999958685E+02 0.  0.
        -12    1    1    2    0    0 -0.14837393980E+02  0.61751796552E+01  0.96124530409E+01  0.18726461421E+02  0.00000000000E+00 0.  1.
         11    1    3    3    0    0  0.27535804885E+01 -0.11307100253E+02  0.14689283479E+02  0.18740538173E+02  0.51100000000E-03 0. -1.
        -11    1    3    3    0    0 -0.13566379394E+01  0.19058744404E+02  0.39153032259E+01  0.19503994575E+02  0.51100000000E-03 0.  1.
         12    1    3    3    0    0  0.13440451431E+02 -0.13926823806E+02 -0.28217039746E+02  0.34217005831E+02  0.00000000000E+00 0. -1.
</event>
<event>
 7    1  0.2809593E-013  0.7246163E+02  0.7816164E-02  0.1226708E+00
        -11   -1    0    0    0    0  0.00000000000E+00  0.00000000000E+00  0.45593999997E+02  0.45594000000E+02  0.51100000000E-03 0. -1.
         11   -1    0    0    0    0 -0.00000000000E+00 -0.00000000000E+00 -0.45593999997E+02  0.45594000000E+02  0.51100000000E-03 0.  1.
    9900012    2    1    2    0    0  0.71832720380E+01 -0.15272826187E+02  0.81128373988E+01  0.72461634961E+02  0.70000084241E+02 0.  0.
        -12    1    1    2    0    0 -0.71832720380E+01  0.15272826187E+02 -0.81128373988E+01  0.18726365039E+02  0.00000000000E+00 0.  1.
         11    1    3    3    0    0  0.98828363759E+01 -0.18674430921E+02 -0.68310308058E+01  0.22205130199E+02  0.51100000000E-03 0. -1.
        -11    1    3    3    0    0 -0.10917994126E+02  0.15820536841E+02 -0.96475782553E+01  0.21507388222E+02  0.51100000000E-03 0.  1.
         12    1    3    3    0    0  0.82184297881E+01 -0.12418932107E+02  0.24591446460E+02  0.28749116540E+02  0.00000000000E+00 0. -1.
</event>
<event>
 7    1  0.2809593E-013  0.7246139E+02  0.7816164E-02  0.1226709E+00
        -11   -1    0    0    0    0  0.00000000000E+00  0.00000000000E+00  0.45593999997E+02  0.45594000000E+02  0.51100000000E-03 0. -1.
         11   -1    0    0    0    0 -0.00000000000E+00 -0.00000000000E+00 -0.45593999997E+02  0.45594000000E+02  0.51100000000E-03 0.  1.
    9900012    2    1    2    0    0 -0.30980280209E+01  0.69685097263E+00  0.18455424166E+02  0.72461386316E+02  0.69999760334E+02 0.  0.
        -12    1    1    2    0    0  0.30980280209E+01 -0.69685097263E+00 -0.18455424166E+02  0.18726613684E+02  0.00000000000E+00 0.  1.
         11    1    3    3    0    0 -0.14079954645E+02  0.88147725619E+01 -0.12812380709E+02  0.20978618587E+02  0.51100000000E-03 0. -1.
        -11    1    3    3    0    0 -0.23541192869E+01  0.51006115965E+01 -0.69290027799E+01  0.89201567285E+01  0.51100000000E-03 0.  1.
         12    1    3    3    0    0  0.13336045911E+02 -0.13218533186E+02  0.38196807656E+02  0.42562611001E+02  0.00000000000E+00 0. -1.
</event>
<event>
 7    1  0.2809593E-013  0.7246160E+02  0.7816164E-02  0.1226708E+00
        -11   -1    0    0    0    0  0.00000000000E+00  0.00000000000E+00  0.45593999997E+02  0.45594000000E+02  0.51100000000E-03 0.  1.
         11   -1    0    0    0    0 -0.00000000000E+00 -0.00000000000E+00 -0.45593999997E+02  0.45594000000E+02  0.51100000000E-03 0. -1.
    9900012    2    1    2    0    0 -0.94057030474E+01 -0.15010406643E+02 -0.60744151089E+01  0.72461599483E+02  0.70000038023E+02 0.  0.
        -12    1    1    2    0    0  0.94057030474E+01  0.15010406643E+02  0.60744151089E+01  0.18726400517E+02  0.00000000000E+00 0.  1.
         11    1    3    3    0    0 -0.14181785684E+02 -0.12401008858E+02 -0.13651398815E+02  0.23265183338E+02  0.51100000000E-03 0.  1.
        -11    1    3    3    0    0 -0.21247090383E+02 -0.39561307557E+01  0.82404984727E+01  0.23129972668E+02  0.51100000000E-03 0. -1.
         12    1    3    3    0    0  0.26023173019E+02  0.13467329700E+01 -0.66351476707E+00  0.26066443477E+02  0.00000000000E+00 0. -1.
</event>
<event>
 7    1  0.2809593E-013  0.7246158E+02  0.7816164E-02  0.1226708E+00
        -11   -1    0    0    0    0  0.00000000000E+00  0.00000000000E+00  0.45593999997E+02  0.45594000000E+02  0.51100000000E-03 0. -1.
         11   -1    0    0    0    0 -0.00000000000E+00 -0.00000000000E+00 -0.45593999997E+02  0.45594000000E+02  0.51100000000E-03 0.  1.
    9900012    2    1    2    0    0 -0.15231031723E+02 -0.49793155331E+01  0.96902486721E+01  0.72461579364E+02  0.70000011814E+02 0.  0.
        -12    1    1    2    0    0  0.15231031723E+02  0.49793155331E+01 -0.96902486721E+01  0.18726420636E+02  0.00000000000E+00 0.  1.
         11    1    3    3    0    0 -0.44502190632E+01  0.23929268379E+02  0.14217693158E+01  0.24381053363E+02  0.51100000000E-03 0. -1.
        -11    1    3    3    0    0 -0.13859989535E+01 -0.44311956218E+01 -0.13327469091E+02  0.14113040792E+02  0.51100000000E-03 0.  1.
        -12    1    3    3    0    0 -0.93948137064E+01 -0.24477388290E+02  0.21595948448E+02  0.33967485209E+02  0.00000000000E+00 0.  1.
</event>
<event>
 7    1  0.2809593E-013  0.7246167E+02  0.7816164E-02  0.1226708E+00
        -11   -1    0    0    0    0  0.00000000000E+00  0.00000000000E+00  0.45593999997E+02  0.45594000000E+02  0.51100000000E-03 0.  1.
         11   -1    0    0    0    0 -0.00000000000E+00 -0.00000000000E+00 -0.45593999997E+02  0.45594000000E+02  0.51100000000E-03 0. -1.
    9900012    2    1    2    0    0 -0.18647483033E+02  0.11482910058E+01 -0.12760693251E+01  0.72461666973E+02  0.70000125942E+02 0.  0.
        -12    1    1    2    0    0  0.18647483033E+02 -0.11482910058E+01  0.12760693251E+01  0.18726333027E+02  0.00000000000E+00 0.  1.
         11    1    3    3    0    0 -0.30480836234E+01 -0.55292470589E+01 -0.25697758144E+02  0.26462013542E+02  0.51100000000E-03 0. -1.
        -11    1    3    3    0    0  0.73273057865E+01 -0.83134996745E+01  0.38099551839E+01  0.11718338009E+02  0.51100000000E-03 0.  1.
        -12    1    3    3    0    0 -0.22926705196E+02  0.14991037739E+02  0.20611733635E+02  0.34281315422E+02  0.00000000000E+00 0.  1.
</event>
<event>
 7    1  0.2809593E-013  0.7246161E+02  0.7816164E-02  0.1226708E+00
        -11   -1    0    0    0    0  0.00000000000E+00  0.00000000000E+00  0.45593999997E+02  0.45594000000E+02  0.51100000000E-03 0.  1.
         11   -1    0    0    0    0 -0.00000000000E+00 -0.00000000000E+00 -0.45593999997E+02  0.45594000000E+02  0.51100000000E-03 0. -1.
    9900012    2    1    2    0    0 -0.12172758154E+02 -0.11738020397E+02 -0.80449000282E+01  0.72461612725E+02  0.70000055273E+02 0.  0.
        -12    1    1    2    0    0  0.12172758154E+02  0.11738020397E+02  0.80449000282E+01  0.18726387275E+02  0.00000000000E+00 0.  1.
         11    1    3    3    0    0  0.11743394011E+02  0.23516822951E+01  0.34762982353E+01  0.12470860524E+02  0.51100000000E-03 0. -1.
        -11    1    3    3    0    0  0.13169316570E+02 -0.36812021628E+01  0.89771503767E+01  0.16357609160E+02  0.51100000000E-03 0.  1.
         12    1    3    3    0    0 -0.37085468736E+02 -0.10408500529E+02 -0.20498348640E+02  0.43633143041E+02  0.00000000000E+00 0. -1.
</event>
<event>
 7    1  0.2809593E-013  0.7246160E+02  0.7816164E-02  0.1226708E+00
        -11   -1    0    0    0    0  0.00000000000E+00  0.00000000000E+00  0.45593999997E+02  0.45594000000E+02  0.51100000000E-03 0.  1.
         11   -1    0    0    0    0 -0.00000000000E+00 -0.00000000000E+00 -0.45593999997E+02  0.45594000000E+02  0.51100000000E-03 0. -1.
    9900012    2    1    2    0    0  0.10241986085E+02 -0.60706553360E+01 -0.14454301714E+02  0.72461602236E+02  0.70000041610E+02 0.  0.
        -12    1    1    2    0    0 -0.10241986085E+02  0.60706553360E+01  0.14454301714E+02  0.18726397764E+02  0.00000000000E+00 0.  1.
         11    1    3    3    0    0  0.11460691240E+02 -0.69846718256E+01  0.40874207002E+01  0.14029971220E+02  0.51100000000E-03 0. -1.
        -11    1    3    3    0    0  0.16234556852E+01 -0.94624129336E+01  0.17966722588E+02  0.20370959420E+02  0.51100000000E-03 0.  1.
         12    1    3    3    0    0 -0.28421608400E+01  0.10376429423E+02 -0.36508445002E+02  0.38060671595E+02  0.00000000000E+00 0. -1.
</event>
<event>
 7    1  0.2809593E-013  0.7246157E+02  0.7816164E-02  0.1226708E+00
        -11   -1    0    0    0    0  0.00000000000E+00  0.00000000000E+00  0.45593999997E+02  0.45594000000E+02  0.51100000000E-03 0. -1.
         11   -1    0    0    0    0 -0.00000000000E+00 -0.00000000000E+00 -0.45593999997E+02  0.45594000000E+02  0.51100000000E-03 0.  1.
    9900012    2    1    2    0    0 -0.11785133578E+01 -0.16877280947E+02  0.80279238339E+01  0.72461573032E+02  0.70000003567E+02 0.  0.
        -12    1    1    2    0    0  0.11785133578E+01  0.16877280947E+02 -0.80279238339E+01  0.18726426968E+02  0.00000000000E+00 0.  1.
         11    1    3    3    0    0 -0.17780258120E+02  0.12755638524E+02  0.13844420172E+02  0.25894243822E+02  0.51100000000E-03 0. -1.
        -11    1    3    3    0    0 -0.73646712423E+01  0.45993618227E+00 -0.30918713912E+01  0.80005995250E+01  0.51100000000E-03 0.  1.
        -12    1    3    3    0    0  0.23966416005E+02 -0.30092855653E+02 -0.27246249468E+01  0.38566729685E+02  0.00000000000E+00 0.  1.
</event>
<event>
 7    1  0.2809593E-013  0.7246157E+02  0.7816164E-02  0.1226708E+00
        -11   -1    0    0    0    0  0.00000000000E+00  0.00000000000E+00  0.45593999997E+02  0.45594000000E+02  0.51100000000E-03 0.  1.
         11   -1    0    0    0    0 -0.00000000000E+00 -0.00000000000E+00 -0.45593999997E+02  0.45594000000E+02  0.51100000000E-03 0. -1.
    9900012    2    1    2    0    0 -0.13399718408E+02  0.24263755992E+01 -0.12854542545E+02  0.72461574393E+02  0.70000005340E+02 0.  0.
        -12    1    1    2    0    0  0.13399718408E+02 -0.24263755992E+01  0.12854542545E+02  0.18726425607E+02  0.00000000000E+00 0.  1.
         11    1    3    3    0    0 -0.12896517368E+02  0.76426155477E+00 -0.12325130845E+02  0.17855338321E+02  0.51100000000E-03 0. -1.
        -11    1    3    3    0    0 -0.16460257117E+02 -0.20129977765E+02  0.62817080093E+01  0.26750998579E+02  0.51100000000E-03 0.  1.
         12    1    3    3    0    0  0.15957056077E+02  0.21792091810E+02 -0.68111197094E+01  0.27855237493E+02  0.00000000000E+00 0. -1.
</event>
<event>
 7    1  0.2809593E-013  0.7246157E+02  0.7816164E-02  0.1226708E+00
        -11   -1    0    0    0    0  0.00000000000E+00  0.00000000000E+00  0.45593999997E+02  0.45594000000E+02  0.51100000000E-03 0. -1.
         11   -1    0    0    0    0 -0.00000000000E+00 -0.00000000000E+00 -0.45593999997E+02  0.45594000000E+02  0.51100000000E-03 0.  1.
    9900012    2    1    2    0    0 -0.96242458211E+01  0.15966285430E+02 -0.17693846264E+01  0.72461572150E+02  0.70000002418E+02 0.  0.
        -12    1    1    2    0    0  0.96242458211E+01 -0.15966285430E+02  0.17693846264E+01  0.18726427850E+02  0.00000000000E+00 0.  1.
         11    1    3    3    0    0 -0.12065236528E+02 -0.31326914667E+01 -0.73866761298E+01  0.14489536666E+02  0.51100000000E-03 0. -1.
        -11    1    3    3    0    0 -0.15719293070E+02 -0.68346611981E+01  0.17178321468E+02  0.24267333950E+02  0.51100000000E-03 0.  1.
         12    1    3    3    0    0  0.18160283776E+02  0.25933638095E+02 -0.11561029965E+02  0.33704701534E+02  0.00000000000E+00 0. -1.
</event>
<event>
 7    1  0.2809593E-013  0.7246165E+02  0.7816164E-02  0.1226708E+00
        -11   -1    0    0    0    0  0.00000000000E+00  0.00000000000E+00  0.45593999997E+02  0.45594000000E+02  0.51100000000E-03 0.  1.
         11   -1    0    0    0    0 -0.00000000000E+00 -0.00000000000E+00 -0.45593999997E+02  0.45594000000E+02  0.51100000000E-03 0. -1.
    9900012    2    1    2    0    0 -0.18396815721E+02  0.34168588432E+01  0.74724643384E+00  0.72461651443E+02  0.70000105712E+02 0.  0.
        -12    1    1    2    0    0  0.18396815721E+02 -0.34168588432E+01 -0.74724643384E+00  0.18726348557E+02  0.00000000000E+00 0.  1.
         11    1    3    3    0    0 -0.94518403679E+01  0.14148830863E+02  0.13084675392E+02  0.21464748578E+02  0.51100000000E-03 0. -1.
        -11    1    3    3    0    0  0.18066969489E+02  0.40081714309E+01 -0.68854909349E+01  0.19745652950E+02  0.51100000000E-03 0.  1.
         12    1    3    3    0    0 -0.27011944842E+02 -0.14740143450E+02 -0.54519380232E+01  0.31251249916E+02  0.00000000000E+00 0. -1.
</event>
<event>
 7    1  0.2809593E-013  0.7246162E+02  0.7816164E-02  0.1226708E+00
        -11   -1    0    0    0    0  0.00000000000E+00  0.00000000000E+00  0.45593999997E+02  0.45594000000E+02  0.51100000000E-03 0.  1.
         11   -1    0    0    0    0 -0.00000000000E+00 -0.00000000000E+00 -0.45593999997E+02  0.45594000000E+02  0.51100000000E-03 0. -1.
    9900012    2    1    2    0    0  0.48122732595E+01  0.12939216210E+02 -0.12652904572E+02  0.72461620634E+02  0.70000065577E+02 0.  0.
        -12    1    1    2    0    0 -0.48122732595E+01 -0.12939216210E+02  0.12652904572E+02  0.18726379366E+02  0.00000000000E+00 0.  1.
         11    1    3    3    0    0  0.27617127997E+02  0.18671281746E+02 -0.61132575860E+01  0.33892395008E+02  0.51100000000E-03 0. -1.
        -11    1    3    3    0    0  0.24572620465E+01 -0.10509962633E+02 -0.69831581728E+01  0.12855424911E+02  0.51100000000E-03 0.  1.
        -12    1    3    3    0    0 -0.25262116783E+02  0.47778970966E+01  0.44351118676E+00  0.25713800715E+02  0.00000000000E+00 0.  1.
</event>
<event>
 7    1  0.2809593E-013  0.7246164E+02  0.7816164E-02  0.1226708E+00
        -11   -1    0    0    0    0  0.00000000000E+00  0.00000000000E+00  0.45593999997E+02  0.45594000000E+02  0.51100000000E-03 0.  1.
         11   -1    0    0    0    0 -0.00000000000E+00 -0.00000000000E+00 -0.45593999997E+02  0.45594000000E+02  0.51100000000E-03 0. -1.
    9900012    2    1    2    0    0 -0.11696776567E+02  0.14523470816E+02  0.17119047595E+01  0.72461644121E+02  0.70000096172E+02 0.  0.
        -12    1    1    2    0    0  0.11696776567E+02 -0.14523470816E+02 -0.17119047595E+01  0.18726355879E+02  0.00000000000E+00 0.  1.
         11    1    3    3    0    0  0.65620406040E+01  0.12365116241E+02  0.19629177087E+02  0.24109356481E+02  0.51100000000E-03 0. -1.
        -11    1    3    3    0    0 -0.27370626067E+02  0.99197313155E+01 -0.30595382253E+01  0.29273076625E+02  0.51100000000E-03 0.  1.
         12    1    3    3    0    0  0.91118088962E+01 -0.77613767402E+01 -0.14857734102E+02  0.19079211014E+02  0.00000000000E+00 0. -1.
</event>
<event>
 7    1  0.2809593E-013  0.7246157E+02  0.7816164E-02  0.1226708E+00
        -11   -1    0    0    0    0  0.00000000000E+00  0.00000000000E+00  0.45593999997E+02  0.45594000000E+02  0.51100000000E-03 0. -1.
         11   -1    0    0    0    0 -0.00000000000E+00 -0.00000000000E+00 -0.45593999997E+02  0.45594000000E+02  0.51100000000E-03 0.  1.
    9900012    2    1    2    0    0  0.10750597403E+02 -0.14920502480E+02  0.35330451002E+01  0.72461570910E+02  0.70000000802E+02 0.  0.
        -12    1    1    2    0    0 -0.10750597403E+02  0.14920502480E+02 -0.35330451002E+01  0.18726429090E+02  0.00000000000E+00 0.  1.
         11    1    3    3    0    0 -0.19506991271E+02  0.11176072087E+02 -0.12520016742E+02  0.25732821750E+02  0.51100000000E-03 0. -1.
        -11    1    3    3    0    0  0.23059357382E+00 -0.93532414814E+01  0.50459588205E+01  0.10630051754E+02  0.51100000000E-03 0.  1.
        -12    1    3    3    0    0  0.30026995100E+02 -0.16743333086E+02  0.11007103022E+02  0.36098697407E+02  0.00000000000E+00 0.  1.
</event>
<event>
 7    1  0.2809593E-013  0.7246160E+02  0.7816164E-02  0.1226708E+00
        -11   -1    0    0    0    0  0.00000000000E+00  0.00000000000E+00  0.45593999997E+02  0.45594000000E+02  0.51100000000E-03 0. -1.
         11   -1    0    0    0    0 -0.00000000000E+00 -0.00000000000E+00 -0.45593999997E+02  0.45594000000E+02  0.51100000000E-03 0.  1.
    9900012    2    1    2    0    0 -0.14131729270E+02  0.27601138321E+01  0.11973059300E+02  0.72461597529E+02  0.70000035478E+02 0.  0.
        -12    1    1    2    0    0  0.14131729270E+02 -0.27601138321E+01 -0.11973059300E+02  0.18726402471E+02  0.00000000000E+00 0.  1.
         11    1    3    3    0    0  0.21296936293E+02  0.10984746146E+02  0.12140428758E+02  0.26862876876E+02  0.51100000000E-03 0. -1.
        -11    1    3    3    0    0 -0.22504065023E+02 -0.44440318602E+01  0.13331669561E+02  0.26531411106E+02  0.51100000000E-03 0.  1.
        -12    1    3    3    0    0 -0.12924600540E+02 -0.37806004534E+01 -0.13499039020E+02  0.19067309547E+02  0.00000000000E+00 0.  1.
</event>
<event>
 7    1  0.2809593E-013  0.7246160E+02  0.7816164E-02  0.1226708E+00
        -11   -1    0    0    0    0  0.00000000000E+00  0.00000000000E+00  0.45593999997E+02  0.45594000000E+02  0.51100000000E-03 0.  1.
         11   -1    0    0    0    0 -0.00000000000E+00 -0.00000000000E+00 -0.45593999997E+02  0.45594000000E+02  0.51100000000E-03 0. -1.
    9900012    2    1    2    0    0  0.21868443269E+01 -0.83614384079E+01 -0.16612711628E+02  0.72461598103E+02  0.70000036226E+02 0.  0.
        -12    1    1    2    0    0 -0.21868443269E+01  0.83614384079E+01  0.16612711628E+02  0.18726401897E+02  0.00000000000E+00 0.  1.
         11    1    3    3    0    0  0.14611850468E+02  0.19794700680E+02 -0.20648860970E+02  0.32120270994E+02  0.51100000000E-03 0.  1.
        -11    1    3    3    0    0 -0.57328196433E+01 -0.19901152372E+02 -0.97861667768E+01  0.22906115935E+02  0.51100000000E-03 0. -1.
        -12    1    3    3    0    0 -0.66921864983E+01 -0.82549867162E+01  0.13822316118E+02  0.17435211174E+02  0.00000000000E+00 0.  1.
</event>
<event>
 7    1  0.2809593E-013  0.7246167E+02  0.7816164E-02  0.1226708E+00
        -11   -1    0    0    0    0  0.00000000000E+00  0.00000000000E+00  0.45593999997E+02  0.45594000000E+02  0.51100000000E-03 0.  1.
         11   -1    0    0    0    0 -0.00000000000E+00 -0.00000000000E+00 -0.45593999997E+02  0.45594000000E+02  0.51100000000E-03 0. -1.
    9900012    2    1    2    0    0 -0.14078520765E+02  0.10003107522E+01 -0.12307324068E+02  0.72461665755E+02  0.70000124355E+02 0.  0.
        -12    1    1    2    0    0  0.14078520765E+02 -0.10003107522E+01  0.12307324068E+02  0.18726334245E+02  0.00000000000E+00 0.  1.
         11    1    3    3    0    0  0.73168387402E+01  0.16329313070E+02 -0.10978977060E+02  0.20993344946E+02  0.51100000000E-03 0. -1.
        -11    1    3    3    0    0  0.11008044560E+02 -0.34037804537E+01 -0.10664613754E+02  0.15700215069E+02  0.51100000000E-03 0.  1.
        -12    1    3    3    0    0 -0.32403404065E+02 -0.11925221864E+02  0.93362667458E+01  0.35768105740E+02  0.00000000000E+00 0.  1.
</event>
<event>
 7    1  0.2809593E-013  0.7246158E+02  0.7816164E-02  0.1226708E+00
        -11   -1    0    0    0    0  0.00000000000E+00  0.00000000000E+00  0.45593999997E+02  0.45594000000E+02  0.51100000000E-03 0. -1.
         11   -1    0    0    0    0 -0.00000000000E+00 -0.00000000000E+00 -0.45593999997E+02  0.45594000000E+02  0.51100000000E-03 0.  1.
    9900012    2    1    2    0    0 -0.70159229038E+01  0.15269308304E+01  0.17295201304E+02  0.72461583362E+02  0.70000017023E+02 0.  0.
        -12    1    1    2    0    0  0.70159229038E+01 -0.15269308304E+01 -0.17295201304E+02  0.18726416638E+02  0.00000000000E+00 0.  1.
         11    1    3    3    0    0  0.21096646690E+01  0.45954034305E+00 -0.17751705138E+01  0.27951910412E+01  0.51100000000E-03 0. -1.
        -11    1    3    3    0    0  0.21281959601E+02 -0.17755912107E+02 -0.26209697809E+01  0.27839965914E+02  0.51100000000E-03 0.  1.
         12    1    3    3    0    0 -0.30407547174E+02  0.18823302594E+02  0.21691341598E+02  0.41826426408E+02  0.00000000000E+00 0. -1.
</event>
<event>
 7    1  0.2809593E-013  0.7246151E+02  0.7816164E-02  0.1226708E+00
        -11   -1    0    0    0    0  0.00000000000E+00  0.00000000000E+00  0.45593999997E+02  0.45594000000E+02  0.51100000000E-03 0.  1.
         11   -1    0    0    0    0 -0.00000000000E+00 -0.00000000000E+00 -0.45593999997E+02  0.45594000000E+02  0.51100000000E-03 0. -1.
    9900012    2    1    2    0    0 -0.69366780379E+01 -0.40497306666E+01 -0.16916365653E+02  0.72461514810E+02  0.69999927721E+02 0.  0.
        -12    1    1    2    0    0  0.69366780379E+01  0.40497306666E+01  0.16916365653E+02  0.18726485190E+02  0.00000000000E+00 0.  1.
         11    1    3    3    0    0 -0.21915037910E+01 -0.48474669656E+01  0.43708887324E+01  0.68851502104E+01  0.51100000000E-03 0. -1.
        -11    1    3    3    0    0 -0.11225119915E+00 -0.23339754078E+02  0.10334941917E+02  0.25525825069E+02  0.51100000000E-03 0.  1.
         12    1    3    3    0    0 -0.46329230477E+01  0.24137490377E+02 -0.31622196303E+02  0.40050539530E+02  0.00000000000E+00 0. -1.
</event>
<event>
 7    1  0.2809593E-013  0.7246164E+02  0.7816164E-02  0.1226708E+00
        -11   -1    0    0    0    0  0.00000000000E+00  0.00000000000E+00  0.45593999997E+02  0.45594000000E+02  0.51100000000E-03 0. -1.
         11   -1    0    0    0    0 -0.00000000000E+00 -0.00000000000E+00 -0.45593999997E+02  0.45594000000E+02  0.51100000000E-03 0.  1.
    9900012    2    1    2    0    0 -0.57943050796E+01 -0.15171379585E+02  0.93237297383E+01  0.72461637137E+02  0.70000087074E+02 0.  0.
        -12    1    1    2    0    0  0.57943050796E+01  0.15171379585E+02 -0.93237297383E+01  0.18726362863E+02  0.00000000000E+00 0.  1.
         11    1    3    3    0    0 -0.83184573131E+01 -0.36059981875E+00  0.14445326391E+02  0.16673158642E+02  0.51100000000E-03 0. -1.
        -11    1    3    3    0    0  0.12688499989E+01  0.19994641681E+02  0.23370926183E+01  0.20170713385E+02  0.51100000000E-03 0.  1.
        -12    1    3    3    0    0  0.12553022345E+01 -0.34805421447E+02 -0.74586892708E+01  0.35617765110E+02  0.00000000000E+00 0.  1.
</event>
<event>
 7    1  0.2809593E-013  0.7246163E+02  0.7816164E-02  0.1226708E+00
        -11   -1    0    0    0    0  0.00000000000E+00  0.00000000000E+00  0.45593999997E+02  0.45594000000E+02  0.51100000000E-03 0. -1.
         11   -1    0    0    0    0 -0.00000000000E+00 -0.00000000000E+00 -0.45593999997E+02  0.45594000000E+02  0.51100000000E-03 0.  1.
    9900012    2    1    2    0    0  0.92205006799E+01  0.14541619624E+02  0.73621042345E+01  0.72461630548E+02  0.70000078492E+02 0.  0.
        -12    1    1    2    0    0 -0.92205006799E+01 -0.14541619624E+02 -0.73621042345E+01  0.18726369452E+02  0.00000000000E+00 0.  1.
         11    1    3    3    0    0 -0.12840397879E+02 -0.23365434734E+02  0.64124322393E+01  0.27421499694E+02  0.51100000000E-03 0. -1.
        -11    1    3    3    0    0  0.28135354800E+01  0.97033501557E+01 -0.33068154230E+01  0.10630428714E+02  0.51100000000E-03 0.  1.
        -12    1    3    3    0    0  0.19247363079E+02  0.28203704202E+02  0.42564874183E+01  0.34409702140E+02  0.00000000000E+00 0.  1.
</event>
<event>
 7    1  0.2809593E-013  0.7246161E+02  0.7816164E-02  0.1226708E+00
        -11   -1    0    0    0    0  0.00000000000E+00  0.00000000000E+00  0.45593999997E+02  0.45594000000E+02  0.51100000000E-03 0. -1.
         11   -1    0    0    0    0 -0.00000000000E+00 -0.00000000000E+00 -0.45593999997E+02  0.45594000000E+02  0.51100000000E-03 0.  1.
    9900012    2    1    2    0    0  0.69213872103E+00  0.92601091079E+01  0.16261883915E+02  0.72461613665E+02  0.70000056498E+02 0.  0.
        -12    1    1    2    0    0 -0.69213872103E+00 -0.92601091079E+01 -0.16261883915E+02  0.18726386335E+02  0.00000000000E+00 0.  1.
         11    1    3    3    0    0  0.11668316667E+02  0.25586266333E+02  0.30474895448E+01  0.28285929921E+02  0.51100000000E-03 0. -1.
        -11    1    3    3    0    0 -0.82887755626E+01  0.11467335718E+02  0.57418706869E+01  0.15269992405E+02  0.51100000000E-03 0.  1.
         12    1    3    3    0    0 -0.26874023836E+01 -0.27793492943E+02  0.74725236836E+01  0.28905691339E+02  0.00000000000E+00 0. -1.
</event>
<event>
 7    1  0.2809593E-013  0.7246156E+02  0.7816164E-02  0.1226708E+00
        -11   -1    0    0    0    0  0.00000000000E+00  0.00000000000E+00  0.45593999997E+02  0.45594000000E+02  0.51100000000E-03 0.  1.
         11   -1    0    0    0    0 -0.00000000000E+00 -0.00000000000E+00 -0.45593999997E+02  0.45594000000E+02  0.51100000000E-03 0. -1.
    9900012    2    1    2    0    0 -0.42803581927E+00  0.46311462644E+01 -0.18139698474E+02  0.72461564378E+02  0.69999992292E+02 0.  0.
        -12    1    1    2    0    0  0.42803581927E+00 -0.46311462644E+01  0.18139698474E+02  0.18726435622E+02  0.00000000000E+00 0.  1.
         11    1    3    3    0    0 -0.18740138869E+02 -0.16857586859E+01 -0.20004003590E+02  0.27462606341E+02  0.51100000000E-03 0.  1.
        -11    1    3    3    0    0  0.75907410896E+01  0.20533178805E+02 -0.95125727199E+01  0.23868804372E+02  0.51100000000E-03 0. -1.
        -12    1    3    3    0    0  0.10721361960E+02 -0.14216273855E+02  0.11376877836E+02  0.21130153664E+02  0.00000000000E+00 0.  1.
</event>
<event>
 7    1  0.2809593E-013  0.7246155E+02  0.7816164E-02  0.1226708E+00
        -11   -1    0    0    0    0  0.00000000000E+00  0.00000000000E+00  0.45593999997E+02  0.45594000000E+02  0.51100000000E-03 0. -1.
         11   -1    0    0    0    0 -0.00000000000E+00 -0.00000000000E+00 -0.45593999997E+02  0.45594000000E+02  0.51100000000E-03 0.  1.
    9900012    2    1    2    0    0  0.73701750565E-01 -0.12060030311E+02  0.14325859602E+02  0.72461547683E+02  0.69999970545E+02 0.  0.
        -12    1    1    2    0    0 -0.73701750565E-01  0.12060030311E+02 -0.14325859602E+02  0.18726452317E+02  0.00000000000E+00 0.  1.
         11    1    3    3    0    0  0.18228726768E+01 -0.16783636428E+01 -0.36520822171E+01  0.44133291396E+01  0.51100000000E-03 0. -1.
        -11    1    3    3    0    0  0.26734901224E+01 -0.50376107482E+01 -0.24424818125E+02  0.25081802411E+02  0.51100000000E-03 0.  1.
         12    1    3    3    0    0 -0.44226610487E+01 -0.53440559196E+01  0.42402759944E+02  0.42966416133E+02  0.00000000000E+00 0. -1.
</event>
<event>
 7    1  0.2809593E-013  0.7246154E+02  0.7816164E-02  0.1226708E+00
        -11   -1    0    0    0    0  0.00000000000E+00  0.00000000000E+00  0.45593999997E+02  0.45594000000E+02  0.51100000000E-03 0. -1.
         11   -1    0    0    0    0 -0.00000000000E+00 -0.00000000000E+00 -0.45593999997E+02  0.45594000000E+02  0.51100000000E-03 0.  1.
    9900012    2    1    2    0    0 -0.17657396660E+02  0.62024615148E+01 -0.65288985896E+00  0.72461536083E+02  0.69999955433E+02 0.  0.
        -12    1    1    2    0    0  0.17657396660E+02 -0.62024615148E+01  0.65288985896E+00  0.18726463917E+02  0.00000000000E+00 0.  1.
         11    1    3    3    0    0  0.62593180926E-01 -0.34279292944E+01 -0.47571512433E+01  0.58638814250E+01  0.51100000000E-03 0. -1.
        -11    1    3    3    0    0  0.15851799467E+02  0.13239902799E+02 -0.17025127256E+02  0.26766201277E+02  0.51100000000E-03 0.  1.
         12    1    3    3    0    0 -0.33571789308E+02 -0.36095119895E+01  0.21129388640E+02  0.39831453381E+02  0.00000000000E+00 0. -1.
</event>
<event>
 7    1  0.2809593E-013  0.7246156E+02  0.7816164E-02  0.1226708E+00
        -11   -1    0    0    0    0  0.00000000000E+00  0.00000000000E+00  0.45593999997E+02  0.45594000000E+02  0.51100000000E-03 0. -1.
         11   -1    0    0    0    0 -0.00000000000E+00 -0.00000000000E+00 -0.45593999997E+02  0.45594000000E+02  0.51100000000E-03 0.  1.
    9900012    2    1    2    0    0  0.13693982015E+02 -0.88649677396E+01  0.91960190864E+01  0.72461559775E+02  0.69999986297E+02 0.  0.
        -12    1    1    2    0    0 -0.13693982015E+02  0.88649677396E+01 -0.91960190864E+01  0.18726440225E+02  0.00000000000E+00 0.  1.
         11    1    3    3    0    0  0.83925188334E+01 -0.24614987618E+01  0.31407081497E+02  0.32602118290E+02  0.51100000000E-03 0. -1.
        -11    1    3    3    0    0 -0.48741835604E+01 -0.32451462490E+00  0.68848322300E+01  0.84417942535E+01  0.51100000000E-03 0.  1.
        -12    1    3    3    0    0  0.10175646742E+02 -0.60789543529E+01 -0.29095894641E+02  0.31417647232E+02  0.00000000000E+00 0.  1.
</event>
<event>
 7    1  0.2809593E-013  0.7246152E+02  0.7816164E-02  0.1226708E+00
        -11   -1    0    0    0    0  0.00000000000E+00  0.00000000000E+00  0.45593999997E+02  0.45594000000E+02  0.51100000000E-03 0. -1.
         11   -1    0    0    0    0 -0.00000000000E+00 -0.00000000000E+00 -0.45593999997E+02  0.45594000000E+02  0.51100000000E-03 0.  1.
    9900012    2    1    2    0    0 -0.15573851258E+01 -0.15940034206E+02  0.97041750421E+01  0.72461517358E+02  0.69999931040E+02 0.  0.
        -12    1    1    2    0    0  0.15573851258E+01  0.15940034206E+02 -0.97041750421E+01  0.18726482642E+02  0.00000000000E+00 0.  1.
         11    1    3    3    0    0 -0.35045465597E+01 -0.39905102599E+01  0.10950265170E+01  0.54226471449E+01  0.51100000000E-03 0. -1.
        -11    1    3    3    0    0  0.17770200999E+02  0.14435929677E+02 -0.15756535107E+02  0.27792885924E+02  0.51100000000E-03 0.  1.
         12    1    3    3    0    0 -0.15823039565E+02 -0.26385453623E+02  0.24365683632E+02  0.39245984289E+02  0.00000000000E+00 0. -1.
</event>
<event>
 7    1  0.2809593E-013  0.7246157E+02  0.7816164E-02  0.1226708E+00
        -11   -1    0    0    0    0  0.00000000000E+00  0.00000000000E+00  0.45593999997E+02  0.45594000000E+02  0.51100000000E-03 0. -1.
         11   -1    0    0    0    0 -0.00000000000E+00 -0.00000000000E+00 -0.45593999997E+02  0.45594000000E+02  0.51100000000E-03 0.  1.
    9900012    2    1    2    0    0  0.13262814998E+01 -0.90419792937E+01  0.16345109897E+02  0.72461574027E+02  0.70000004863E+02 0.  0.
        -12    1    1    2    0    0 -0.13262814998E+01  0.90419792937E+01 -0.16345109897E+02  0.18726425973E+02  0.00000000000E+00 0.  1.
         11    1    3    3    0    0 -0.19407766648E+01  0.90292818391E+00  0.13264924292E+02  0.13436521503E+02  0.51100000000E-03 0. -1.
        -11    1    3    3    0    0  0.55054224948E+01  0.97426943831E+01  0.26251384916E+02  0.28537080807E+02  0.51100000000E-03 0.  1.
        -12    1    3    3    0    0 -0.22383643302E+01 -0.19687601861E+02 -0.23171199311E+02  0.30487971717E+02  0.00000000000E+00 0.  1.
</event>
<event>
 7    1  0.2809593E-013  0.7246158E+02  0.7816164E-02  0.1226708E+00
        -11   -1    0    0    0    0  0.00000000000E+00  0.00000000000E+00  0.45593999997E+02  0.45594000000E+02  0.51100000000E-03 0. -1.
         11   -1    0    0    0    0 -0.00000000000E+00 -0.00000000000E+00 -0.45593999997E+02  0.45594000000E+02  0.51100000000E-03 0.  1.
    9900012    2    1    2    0    0  0.44629432813E+01 -0.31932988173E+01  0.17904295590E+02  0.72461579610E+02  0.70000012135E+02 0.  0.
        -12    1    1    2    0    0 -0.44629432813E+01  0.31932988173E+01 -0.17904295590E+02  0.18726420390E+02  0.00000000000E+00 0.  1.
         11    1    3    3    0    0 -0.11953091497E+02  0.18603726038E+01  0.29055881941E+02  0.31473507243E+02  0.51100000000E-03 0. -1.
        -11    1    3    3    0    0 -0.92945870164E+01  0.55164970894E+01  0.56049576316E+00  0.10822903663E+02  0.51100000000E-03 0.  1.
         12    1    3    3    0    0  0.25710621795E+02 -0.10570168510E+02 -0.11712082114E+02  0.30165168703E+02  0.00000000000E+00 0. -1.
</event>
<event>
 7    1  0.2809593E-013  0.7246159E+02  0.7816164E-02  0.1226708E+00
        -11   -1    0    0    0    0  0.00000000000E+00  0.00000000000E+00  0.45593999997E+02  0.45594000000E+02  0.51100000000E-03 0.  1.
         11   -1    0    0    0    0 -0.00000000000E+00 -0.00000000000E+00 -0.45593999997E+02  0.45594000000E+02  0.51100000000E-03 0. -1.
    9900012    2    1    2    0    0 -0.14183395348E+02  0.10707679045E+02 -0.59038315737E+01  0.72461592940E+02  0.70000029500E+02 0.  0.
        -12    1    1    2    0    0  0.14183395348E+02 -0.10707679045E+02  0.59038315737E+01  0.18726407060E+02  0.00000000000E+00 0.  1.
         11    1    3    3    0    0 -0.25997410843E+02 -0.10290254299E+02  0.80717119496E+01  0.29101670710E+02  0.51100000000E-03 0. -1.
        -11    1    3    3    0    0 -0.57335385945E+00 -0.71971206849E+01  0.34214007353E+01  0.79895722071E+01  0.51100000000E-03 0.  1.
        -12    1    3    3    0    0  0.12387369355E+02  0.28195054029E+02 -0.17396944259E+02  0.35370350023E+02  0.00000000000E+00 0.  1.
</event>
<event>
 7    1  0.2809593E-013  0.7246155E+02  0.7816164E-02  0.1226708E+00
        -11   -1    0    0    0    0  0.00000000000E+00  0.00000000000E+00  0.45593999997E+02  0.45594000000E+02  0.51100000000E-03 0.  1.
         11   -1    0    0    0    0 -0.00000000000E+00 -0.00000000000E+00 -0.45593999997E+02  0.45594000000E+02  0.51100000000E-03 0. -1.
    9900012    2    1    2    0    0 -0.79879322904E+01 -0.13239013398E+02 -0.10564158031E+02  0.72461548843E+02  0.69999972056E+02 0.  0.
        -12    1    1    2    0    0  0.79879322904E+01  0.13239013398E+02  0.10564158031E+02  0.18726451157E+02  0.00000000000E+00 0.  1.
         11    1    3    3    0    0 -0.17676779854E+02  0.10586637531E+02 -0.24874673335E+02  0.32300074520E+02  0.51100000000E-03 0. -1.
        -11    1    3    3    0    0  0.62295183878E+01 -0.32130714488E+00 -0.61854487951E+01  0.87846408397E+01  0.51100000000E-03 0.  1.
        -12    1    3    3    0    0  0.34593291756E+01 -0.23504343784E+02  0.20495964100E+02  0.31376833483E+02  0.00000000000E+00 0.  1.
</event>
<event>
 7    1  0.2809593E-013  0.7246162E+02  0.7816164E-02  0.1226708E+00
        -11   -1    0    0    0    0  0.00000000000E+00  0.00000000000E+00  0.45593999997E+02  0.45594000000E+02  0.51100000000E-03 0. -1.
         11   -1    0    0    0    0 -0.00000000000E+00 -0.00000000000E+00 -0.45593999997E+02  0.45594000000E+02  0.51100000000E-03 0.  1.
    9900012    2    1    2    0    0 -0.16964003077E+01 -0.18327491527E+02  0.34499928216E+01  0.72461623678E+02  0.70000069542E+02 0.  0.
        -12    1    1    2    0    0  0.16964003077E+01  0.18327491527E+02 -0.34499928216E+01  0.18726376322E+02  0.00000000000E+00 0.  1.
         11    1    3    3    0    0 -0.84819658537E+01 -0.32076543152E+02  0.10181659057E+02  0.34706116849E+02  0.51100000000E-03 0. -1.
        -11    1    3    3    0    0 -0.10764538200E+02  0.10801901132E+01 -0.11288959681E+02  0.15635942705E+02  0.51100000000E-03 0.  1.
         12    1    3    3    0    0  0.17550103746E+02  0.12668861511E+02  0.45572934453E+01  0.22119564124E+02  0.00000000000E+00 0. -1.
</event>
<event>
 7    1  0.2809593E-013  0.7246161E+02  0.7816164E-02  0.1226708E+00
        -11   -1    0    0    0    0  0.00000000000E+00  0.00000000000E+00  0.45593999997E+02  0.45594000000E+02  0.51100000000E-03 0. -1.
         11   -1    0    0    0    0 -0.00000000000E+00 -0.00000000000E+00 -0.45593999997E+02  0.45594000000E+02  0.51100000000E-03 0.  1.
    9900012    2    1    2    0    0  0.12653654567E+02 -0.13047252913E+02 -0.45090939090E+01  0.72461609255E+02  0.70000050753E+02 0.  0.
        -12    1    1    2    0    0 -0.12653654567E+02  0.13047252913E+02  0.45090939090E+01  0.18726390745E+02  0.00000000000E+00 0.  1.
         11    1    3    3    0    0 -0.80695682966E+01 -0.58012537759E+01  0.16501665601E+02  0.19263370570E+02  0.51100000000E-03 0. -1.
        -11    1    3    3    0    0 -0.27283135307E+01  0.14136164072E+02 -0.15197660767E+02  0.20934271481E+02  0.51100000000E-03 0.  1.
         12    1    3    3    0    0  0.23451536394E+02 -0.21382163209E+02 -0.58130987427E+01  0.32263967204E+02  0.00000000000E+00 0. -1.
</event>
<event>
 7    1  0.2809593E-013  0.7246168E+02  0.7816164E-02  0.1226708E+00
        -11   -1    0    0    0    0  0.00000000000E+00  0.00000000000E+00  0.45593999997E+02  0.45594000000E+02  0.51100000000E-03 0. -1.
         11   -1    0    0    0    0 -0.00000000000E+00 -0.00000000000E+00 -0.45593999997E+02  0.45594000000E+02  0.51100000000E-03 0.  1.
    9900012    2    1    2    0    0 -0.18636559948E+02 -0.18308770191E+01  0.39712245650E-01  0.72461680168E+02  0.70000143131E+02 0.  0.
        -12    1    1    2    0    0  0.18636559948E+02  0.18308770191E+01 -0.39712245650E-01  0.18726319832E+02  0.00000000000E+00 0.  1.
         11    1    3    3    0    0 -0.50845817400E+01  0.66688323163E+00 -0.72301947742E+00  0.51788475688E+01  0.51100000000E-03 0. -1.
        -11    1    3    3    0    0  0.11732662556E+02 -0.20716919138E+02  0.19625039318E+02  0.30854307280E+02  0.51100000000E-03 0.  1.
         12    1    3    3    0    0 -0.25284640765E+02  0.18219158887E+02 -0.18862307595E+02  0.36428525320E+02  0.00000000000E+00 0. -1.
</event>
<event>
 7    1  0.2809593E-013  0.7246153E+02  0.7816164E-02  0.1226708E+00
        -11   -1    0    0    0    0  0.00000000000E+00  0.00000000000E+00  0.45593999997E+02  0.45594000000E+02  0.51100000000E-03 0.  1.
         11   -1    0    0    0    0 -0.00000000000E+00 -0.00000000000E+00 -0.45593999997E+02  0.45594000000E+02  0.51100000000E-03 0. -1.
    9900012    2    1    2    0    0 -0.53291396460E+01  0.39712582587E+01 -0.17507423672E+02  0.72461534633E+02  0.69999953545E+02 0.  0.
        -12    1    1    2    0    0  0.53291396460E+01 -0.39712582587E+01  0.17507423672E+02  0.18726465367E+02  0.00000000000E+00 0.  1.
         11    1    3    3    0    0  0.72573882976E+01  0.15583792012E+02 -0.17268638233E+02  0.24366578034E+02  0.51100000000E-03 0. -1.
        -11    1    3    3    0    0 -0.15826827820E+02  0.14682270043E+02 -0.64812474463E+00  0.21598092471E+02  0.51100000000E-03 0.  1.
        -12    1    3    3    0    0  0.32402998764E+01 -0.26294803796E+02  0.40933930615E+00  0.26496864128E+02  0.00000000000E+00 0.  1.
</event>
<event>
 7    1  0.2809593E-013  0.7246154E+02  0.7816164E-02  0.1226708E+00
        -11   -1    0    0    0    0  0.00000000000E+00  0.00000000000E+00  0.45593999997E+02  0.45594000000E+02  0.51100000000E-03 0. -1.
         11   -1    0    0    0    0 -0.00000000000E+00 -0.00000000000E+00 -0.45593999997E+02  0.45594000000E+02  0.51100000000E-03 0.  1.
    9900012    2    1    2    0    0  0.17464066366E+02 -0.65799492735E+01  0.15462132341E+01  0.72461544867E+02  0.69999966877E+02 0.  0.
        -12    1    1    2    0    0 -0.17464066366E+02  0.65799492735E+01 -0.15462132341E+01  0.18726455133E+02  0.00000000000E+00 0.  1.
         11    1    3    3    0    0  0.15312041152E+02  0.20069860823E+02 -0.28595428872E+01  0.25405410910E+02  0.51100000000E-03 0. -1.
        -11    1    3    3    0    0 -0.13823821108E+01  0.56610439380E+01 -0.99441511845E+01  0.11525820657E+02  0.51100000000E-03 0.  1.
         12    1    3    3    0    0  0.35344073244E+01 -0.32310854035E+02  0.14349907306E+02  0.35530313301E+02  0.00000000000E+00 0. -1.
</event>
<event>
 7    1  0.2809593E-013  0.7246155E+02  0.7816164E-02  0.1226708E+00
        -11   -1    0    0    0    0  0.00000000000E+00  0.00000000000E+00  0.45593999997E+02  0.45594000000E+02  0.51100000000E-03 0. -1.
         11   -1    0    0    0    0 -0.00000000000E+00 -0.00000000000E+00 -0.45593999997E+02  0.45594000000E+02  0.51100000000E-03 0.  1.
    9900012    2    1    2    0    0 -0.12461329638E+01  0.16140080256E+02  0.94140731493E+01  0.72461553159E+02  0.69999977678E+02 0.  0.
        -12    1    1    2    0    0  0.12461329638E+01 -0.16140080256E+02 -0.94140731493E+01  0.18726446841E+02  0.00000000000E+00 0.  1.
         11    1    3    3    0    0 -0.10358618232E+02  0.97236800495E+01 -0.45789168604E+01  0.14927069547E+02  0.51100000000E-03 0. -1.
        -11    1    3    3    0    0  0.16316612637E+02  0.57703852787E+01 -0.17860446354E+02  0.24870157588E+02  0.51100000000E-03 0.  1.
         12    1    3    3    0    0 -0.72041273689E+01  0.64601492789E+00  0.31853436364E+02  0.32664326024E+02  0.00000000000E+00 0. -1.
</event>
<event>
 7    1  0.2809593E-013  0.7246155E+02  0.7816164E-02  0.1226708E+00
        -11   -1    0    0    0    0  0.00000000000E+00  0.00000000000E+00  0.45593999997E+02  0.45594000000E+02  0.51100000000E-03 0.  1.
         11   -1    0    0    0    0 -0.00000000000E+00 -0.00000000000E+00 -0.45593999997E+02  0.45594000000E+02  0.51100000000E-03 0. -1.
    9900012    2    1    2    0    0 -0.90028504468E+00  0.82309701199E+01 -0.16796444159E+02  0.72461550292E+02  0.69999973943E+02 0.  0.
        -12    1    1    2    0    0  0.90028504468E+00 -0.82309701199E+01  0.16796444159E+02  0.18726449708E+02  0.00000000000E+00 0.  1.
         11    1    3    3    0    0  0.20528585995E+02  0.20650862254E+02  0.61544825876E+01  0.29761697045E+02  0.51100000000E-03 0. -1.
        -11    1    3    3    0    0 -0.12184187980E+02  0.72693518045E+01 -0.77883907073E+01  0.16185083950E+02  0.51100000000E-03 0.  1.
        -12    1    3    3    0    0 -0.92446830600E+01 -0.19689243938E+02 -0.15162536040E+02  0.26514769298E+02  0.00000000000E+00 0.  1.
</event>
<event>
 7    1  0.2809593E-013  0.7246159E+02  0.7816164E-02  0.1226708E+00
        -11   -1    0    0    0    0  0.00000000000E+00  0.00000000000E+00  0.45593999997E+02  0.45594000000E+02  0.51100000000E-03 0. -1.
         11   -1    0    0    0    0 -0.00000000000E+00 -0.00000000000E+00 -0.45593999997E+02  0.45594000000E+02  0.51100000000E-03 0.  1.
    9900012    2    1    2    0    0  0.13498436486E+02 -0.56772042881E+01  0.11672184320E+02  0.72461592899E+02  0.70000029447E+02 0.  0.
        -12    1    1    2    0    0 -0.13498436486E+02  0.56772042881E+01 -0.11672184320E+02  0.18726407101E+02  0.00000000000E+00 0.  1.
         11    1    3    3    0    0  0.83510106830E+00  0.59550817974E+01 -0.20759730105E+02  0.21613116095E+02  0.51100000000E-03 0.  1.
        -11    1    3    3    0    0 -0.42360803285E+01 -0.66686722201E+01  0.32281885213E+02  0.33234555494E+02  0.51100000000E-03 0. -1.
         12    1    3    3    0    0  0.16899415747E+02 -0.49636138654E+01  0.15002921228E+00  0.17613921311E+02  0.00000000000E+00 0. -1.
</event>
<event>
 7    1  0.2809593E-013  0.7246156E+02  0.7816164E-02  0.1226708E+00
        -11   -1    0    0    0    0  0.00000000000E+00  0.00000000000E+00  0.45593999997E+02  0.45594000000E+02  0.51100000000E-03 0. -1.
         11   -1    0    0    0    0 -0.00000000000E+00 -0.00000000000E+00 -0.45593999997E+02  0.45594000000E+02  0.51100000000E-03 0.  1.
    9900012    2    1    2    0    0  0.13002490213E+02 -0.42775981219E-01  0.13476389346E+02  0.72461557430E+02  0.69999983241E+02 0.  0.
        -12    1    1    2    0    0 -0.13002490213E+02  0.42775981219E-01 -0.13476389346E+02  0.18726442570E+02  0.00000000000E+00 0.  1.
         11    1    3    3    0    0  0.21191050993E+01  0.70494933944E+01  0.22858367321E+01  0.77078540053E+01  0.51100000000E-03 0. -1.
        -11    1    3    3    0    0  0.35510675618E+00  0.27495616756E+02  0.68585983069E+01  0.28340349550E+02  0.51100000000E-03 0.  1.
         12    1    3    3    0    0  0.10528278358E+02 -0.34587886132E+02  0.43319543072E+01  0.36413353874E+02  0.00000000000E+00 0. -1.
</event>
<event>
 7    1  0.2809593E-013  0.7246156E+02  0.7816164E-02  0.1226708E+00
        -11   -1    0    0    0    0  0.00000000000E+00  0.00000000000E+00  0.45593999997E+02  0.45594000000E+02  0.51100000000E-03 0. -1.
         11   -1    0    0    0    0 -0.00000000000E+00 -0.00000000000E+00 -0.45593999997E+02  0.45594000000E+02  0.51100000000E-03 0.  1.
    9900012    2    1    2    0    0  0.96618189659E+01  0.11754753565E+02  0.10915794014E+02  0.72461560507E+02  0.69999987251E+02 0.  0.
        -12    1    1    2    0    0 -0.96618189659E+01 -0.11754753565E+02 -0.10915794014E+02  0.18726439493E+02  0.00000000000E+00 0.  1.
         11    1    3    3    0    0  0.10243255954E+02  0.13487344177E+02  0.15188115513E+02  0.22748881260E+02  0.51100000000E-03 0. -1.
        -11    1    3    3    0    0  0.23262506656E+02 -0.43178202349E+01 -0.89151493496E+01  0.25283743308E+02  0.51100000000E-03 0.  1.
         12    1    3    3    0    0 -0.23843943643E+02  0.25852296230E+01  0.46428278513E+01  0.24428935939E+02  0.00000000000E+00 0. -1.
</event>
<event>
 7    1  0.2809593E-013  0.7246156E+02  0.7816164E-02  0.1226708E+00
        -11   -1    0    0    0    0  0.00000000000E+00  0.00000000000E+00  0.45593999997E+02  0.45594000000E+02  0.51100000000E-03 0.  1.
         11   -1    0    0    0    0 -0.00000000000E+00 -0.00000000000E+00 -0.45593999997E+02  0.45594000000E+02  0.51100000000E-03 0. -1.
    9900012    2    1    2    0    0  0.79965259429E+01  0.14057976457E+02  0.94397319848E+01  0.72461556953E+02  0.69999982621E+02 0.  0.
        -12    1    1    2    0    0 -0.79965259429E+01 -0.14057976457E+02 -0.94397319848E+01  0.18726443047E+02  0.00000000000E+00 0.  1.
         11    1    3    3    0    0 -0.54091596412E+01 -0.44663025980E+01  0.87805353634E+00  0.70695010570E+01  0.51100000000E-03 0. -1.
        -11    1    3    3    0    0 -0.42955479345E+01 -0.20835773287E+02 -0.56020427159E+00  0.21281330071E+02  0.51100000000E-03 0.  1.
         12    1    3    3    0    0  0.17701233519E+02  0.39360052342E+02  0.91218827200E+01  0.44110725825E+02  0.00000000000E+00 0. -1.
</event>
<event>
 7    1  0.2809593E-013  0.7246154E+02  0.7816164E-02  0.1226708E+00
        -11   -1    0    0    0    0  0.00000000000E+00  0.00000000000E+00  0.45593999997E+02  0.45594000000E+02  0.51100000000E-03 0. -1.
         11   -1    0    0    0    0 -0.00000000000E+00 -0.00000000000E+00 -0.45593999997E+02  0.45594000000E+02  0.51100000000E-03 0.  1.
    9900012    2    1    2    0    0  0.98398544936E+01 -0.35392244717E+01  0.15534844156E+02  0.72461541999E+02  0.69999963140E+02 0.  0.
        -12    1    1    2    0    0 -0.98398544936E+01  0.35392244717E+01 -0.15534844156E+02  0.18726458001E+02  0.00000000000E+00 0.  1.
         11    1    3    3    0    0  0.53657266567E+01 -0.25734549331E+01 -0.42682484404E+01  0.73233624693E+01  0.51100000000E-03 0. -1.
        -11    1    3    3    0    0  0.96664809936E+01 -0.42195644188E+01 -0.21200504461E+02  0.23679251854E+02  0.51100000000E-03 0.  1.
         12    1    3    3    0    0 -0.51923531567E+01  0.32537948802E+01  0.41003597057E+02  0.41458927676E+02  0.00000000000E+00 0. -1.
</event>
<event>
 7    1  0.2809593E-013  0.7246152E+02  0.7816164E-02  0.1226708E+00
        -11   -1    0    0    0    0  0.00000000000E+00  0.00000000000E+00  0.45593999997E+02  0.45594000000E+02  0.51100000000E-03 0.  1.
         11   -1    0    0    0    0 -0.00000000000E+00 -0.00000000000E+00 -0.45593999997E+02  0.45594000000E+02  0.51100000000E-03 0. -1.
    9900012    2    1    2    0    0 -0.44851593448E+01 -0.18131091409E+02 -0.13519452422E+01  0.72461524465E+02  0.69999940298E+02 0.  0.
        -12    1    1    2    0    0  0.44851593448E+01  0.18131091409E+02  0.13519452422E+01  0.18726475535E+02  0.00000000000E+00 0.  1.
         11    1    3    3    0    0  0.98008808070E+01 -0.15701856583E+02 -0.22130054019E+02  0.28850387448E+02  0.51100000000E-03 0. -1.
        -11    1    3    3    0    0 -0.99088066732E+00  0.15388891869E+02  0.45219772670E+01  0.16070100066E+02  0.51100000000E-03 0.  1.
        -12    1    3    3    0    0 -0.13295159485E+02 -0.17818126696E+02  0.16256131510E+02  0.27541036951E+02  0.00000000000E+00 0.  1.
</event>
<event>
 7    1  0.2809593E-013  0.7246158E+02  0.7816164E-02  0.1226708E+00
        -11   -1    0    0    0    0  0.00000000000E+00  0.00000000000E+00  0.45593999997E+02  0.45594000000E+02  0.51100000000E-03 0.  1.
         11   -1    0    0    0    0 -0.00000000000E+00 -0.00000000000E+00 -0.45593999997E+02  0.45594000000E+02  0.51100000000E-03 0. -1.
    9900012    2    1    2    0    0 -0.81354942032E+01  0.16822359331E+02  0.12250873866E+01  0.72461578065E+02  0.70000010123E+02 0.  0.
        -12    1    1    2    0    0  0.81354942032E+01 -0.16822359331E+02 -0.12250873866E+01  0.18726421935E+02  0.00000000000E+00 0.  1.
         11    1    3    3    0    0 -0.11614985624E+01 -0.53110719646E+01 -0.79993813683E+01  0.96719525878E+01  0.51100000000E-03 0. -1.
        -11    1    3    3    0    0  0.14449010784E+01 -0.89614776645E+01  0.25233546025E+02  0.26816555825E+02  0.51100000000E-03 0.  1.
         12    1    3    3    0    0 -0.84188967192E+01  0.31094908960E+02 -0.16009077270E+02  0.35973069652E+02  0.00000000000E+00 0. -1.
</event>
<event>
 7    1  0.2809593E-013  0.7246163E+02  0.7816164E-02  0.1226708E+00
        -11   -1    0    0    0    0  0.00000000000E+00  0.00000000000E+00  0.45593999997E+02  0.45594000000E+02  0.51100000000E-03 0.  1.
         11   -1    0    0    0    0 -0.00000000000E+00 -0.00000000000E+00 -0.45593999997E+02  0.45594000000E+02  0.51100000000E-03 0. -1.
    9900012    2    1    2    0    0  0.14034550072E+02 -0.30133804816E+01 -0.12026126289E+02  0.72461634331E+02  0.70000083420E+02 0.  0.
        -12    1    1    2    0    0 -0.14034550072E+02  0.30133804816E+01  0.12026126289E+02  0.18726365669E+02  0.00000000000E+00 0.  1.
         11    1    3    3    0    0  0.44514177377E+01  0.16310375058E+02  0.44095459079E+01  0.17472479783E+02  0.51100000000E-03 0. -1.
        -11    1    3    3    0    0  0.25640704991E+01  0.53361529158E+01  0.13995862059E+02  0.15196484479E+02  0.51100000000E-03 0.  1.
         12    1    3    3    0    0  0.70190618350E+01 -0.24659908455E+02 -0.30431534256E+02  0.39792670069E+02  0.00000000000E+00 0. -1.
</event>
<event>
 7    1  0.2809593E-013  0.7246156E+02  0.7816164E-02  0.1226708E+00
        -11   -1    0    0    0    0  0.00000000000E+00  0.00000000000E+00  0.45593999997E+02  0.45594000000E+02  0.51100000000E-03 0. -1.
         11   -1    0    0    0    0 -0.00000000000E+00 -0.00000000000E+00 -0.45593999997E+02  0.45594000000E+02  0.51100000000E-03 0.  1.
    9900012    2    1    2    0    0 -0.14243218306E+02 -0.69899161283E+01 -0.99474316642E+01  0.72461559017E+02  0.69999985309E+02 0.  0.
        -12    1    1    2    0    0  0.14243218306E+02  0.69899161283E+01  0.99474316642E+01  0.18726440983E+02  0.00000000000E+00 0.  1.
         11    1    3    3    0    0 -0.28424721690E+02 -0.10865828277E+02  0.58478115722E+01  0.30987544720E+02  0.51100000000E-03 0. -1.
        -11    1    3    3    0    0 -0.38038244747E+01 -0.26491355419E+01  0.90189559345E+01  0.10140442109E+02  0.51100000000E-03 0.  1.
        -12    1    3    3    0    0  0.17985327859E+02  0.65250476906E+01 -0.24814199171E+02  0.31333572188E+02  0.00000000000E+00 0.  1.
</event>
<event>
 7    1  0.2809593E-013  0.7246155E+02  0.7816164E-02  0.1226708E+00
        -11   -1    0    0    0    0  0.00000000000E+00  0.00000000000E+00  0.45593999997E+02  0.45594000000E+02  0.51100000000E-03 0.  1.
         11   -1    0    0    0    0 -0.00000000000E+00 -0.00000000000E+00 -0.45593999997E+02  0.45594000000E+02  0.51100000000E-03 0. -1.
    9900012    2    1    2    0    0  0.50776266694E+01 -0.15851541963E+02 -0.85805707870E+01  0.72461551586E+02  0.69999975628E+02 0.  0.
        -12    1    1    2    0    0 -0.50776266694E+01  0.15851541963E+02  0.85805707870E+01  0.18726448414E+02  0.00000000000E+00 0.  1.
         11    1    3    3    0    0 -0.28180009560E+01 -0.35318362042E+02 -0.68509468100E+01  0.36086885418E+02  0.51100000000E-03 0. -1.
        -11    1    3    3    0    0  0.93423748517E+00  0.11526555773E+01  0.12228706052E+02  0.12318387335E+02  0.51100000000E-03 0.  1.
        -12    1    3    3    0    0  0.69613901403E+01  0.18314164502E+02 -0.13958330029E+02  0.24056278833E+02  0.00000000000E+00 0.  1.
</event>
<event>
 7    1  0.2809593E-013  0.7246163E+02  0.7816164E-02  0.1226708E+00
        -11   -1    0    0    0    0  0.00000000000E+00  0.00000000000E+00  0.45593999997E+02  0.45594000000E+02  0.51100000000E-03 0.  1.
         11   -1    0    0    0    0 -0.00000000000E+00 -0.00000000000E+00 -0.45593999997E+02  0.45594000000E+02  0.51100000000E-03 0. -1.
    9900012    2    1    2    0    0  0.17424740585E+02  0.41861897495E+01 -0.54342706980E+01  0.72461626429E+02  0.70000073126E+02 0.  0.
        -12    1    1    2    0    0 -0.17424740585E+02 -0.41861897495E+01  0.54342706980E+01  0.18726373571E+02  0.00000000000E+00 0.  1.
         11    1    3    3    0    0  0.70407902981E+01 -0.21760004762E+00  0.64289863345E+01  0.95368728289E+01  0.51100000000E-03 0. -1.
        -11    1    3    3    0    0 -0.17352356798E+02  0.23399170895E+01  0.15881849920E+02  0.23639218590E+02  0.51100000000E-03 0.  1.
         12    1    3    3    0    0  0.27736307085E+02  0.20638727075E+01 -0.27745106952E+02  0.39285535010E+02  0.00000000000E+00 0. -1.
</event>
<event>
 7    1  0.2809593E-013  0.7246158E+02  0.7816164E-02  0.1226708E+00
        -11   -1    0    0    0    0  0.00000000000E+00  0.00000000000E+00  0.45593999997E+02  0.45594000000E+02  0.51100000000E-03 0.  1.
         11   -1    0    0    0    0 -0.00000000000E+00 -0.00000000000E+00 -0.45593999997E+02  0.45594000000E+02  0.51100000000E-03 0. -1.
    9900012    2    1    2    0    0  0.11227928704E+02  0.14717243693E+02 -0.28311008250E+01  0.72461580781E+02  0.70000013661E+02 0.  0.
        -12    1    1    2    0    0 -0.11227928704E+02 -0.14717243693E+02  0.28311008250E+01  0.18726419219E+02  0.00000000000E+00 0.  1.
         11    1    3    3    0    0  0.13954853826E+02  0.31211636614E+02  0.40171074439E+01  0.34424429667E+02  0.51100000000E-03 0. -1.
        -11    1    3    3    0    0  0.51603860726E+01  0.53222663796E+01  0.76724883269E+01  0.10668794741E+02  0.51100000000E-03 0.  1.
        -12    1    3    3    0    0 -0.78873111943E+01 -0.21816659301E+02 -0.14520696596E+02  0.27368356373E+02  0.00000000000E+00 0.  1.
</event>
<event>
 7    1  0.2809593E-013  0.7246227E+02  0.7816164E-02  0.1226706E+00
        -11   -1    0    0    0    0  0.00000000000E+00  0.00000000000E+00  0.45593999997E+02  0.45594000000E+02  0.51100000000E-03 0. -1.
         11   -1    0    0    0    0 -0.00000000000E+00 -0.00000000000E+00 -0.45593999997E+02  0.45594000000E+02  0.51100000000E-03 0.  1.
    9900012    2    1    2    0    0  0.12511571484E+02  0.12918004103E+02 -0.52190793673E+01  0.72462267960E+02  0.70000908833E+02 0.  0.
        -12    1    1    2    0    0 -0.12511571484E+02 -0.12918004103E+02  0.52190793673E+01  0.18725732040E+02  0.00000000000E+00 0.  1.
         11    1    3    3    0    0  0.15065089305E+02 -0.15015479362E+01  0.20556910623E+02  0.25530337573E+02  0.51100000000E-03 0. -1.
        -11    1    3    3    0    0  0.27403359322E+01  0.19234156534E+02  0.76477427969E+00  0.19443433301E+02  0.51100000000E-03 0.  1.
        -12    1    3    3    0    0 -0.52938537531E+01 -0.48146044946E+01 -0.26540764270E+02  0.27488497086E+02  0.00000000000E+00 0.  1.
</event>
<event>
 7    1  0.2809593E-013  0.7246154E+02  0.7816164E-02  0.1226708E+00
        -11   -1    0    0    0    0  0.00000000000E+00  0.00000000000E+00  0.45593999997E+02  0.45594000000E+02  0.51100000000E-03 0.  1.
         11   -1    0    0    0    0 -0.00000000000E+00 -0.00000000000E+00 -0.45593999997E+02  0.45594000000E+02  0.51100000000E-03 0. -1.
    9900012    2    1    2    0    0  0.10488383551E+02  0.13745586801E+02  0.71925545571E+01  0.72461543126E+02  0.69999964608E+02 0.  0.
        -12    1    1    2    0    0 -0.10488383551E+02 -0.13745586801E+02 -0.71925545571E+01  0.18726456874E+02  0.00000000000E+00 0.  1.
         11    1    3    3    0    0  0.84969369530E+01  0.14967176045E+02  0.15317785812E+02  0.23040157525E+02  0.51100000000E-03 0. -1.
        -11    1    3    3    0    0  0.25326677565E+02  0.53693635414E+00 -0.36085565837E+01  0.25588094459E+02  0.51100000000E-03 0.  1.
        -12    1    3    3    0    0 -0.23335230968E+02 -0.17585255983E+01 -0.45166746708E+01  0.23833291142E+02  0.00000000000E+00 0.  1.
</event>
<event>
 7    1  0.2809593E-013  0.7246163E+02  0.7816164E-02  0.1226708E+00
        -11   -1    0    0    0    0  0.00000000000E+00  0.00000000000E+00  0.45593999997E+02  0.45594000000E+02  0.51100000000E-03 0.  1.
         11   -1    0    0    0    0 -0.00000000000E+00 -0.00000000000E+00 -0.45593999997E+02  0.45594000000E+02  0.51100000000E-03 0. -1.
    9900012    2    1    2    0    0  0.16806638621E+02 -0.40366636470E+01  0.72055085795E+01  0.72461625310E+02  0.70000071669E+02 0.  0.
        -12    1    1    2    0    0 -0.16806638621E+02  0.40366636470E+01 -0.72055085795E+01  0.18726374690E+02  0.00000000000E+00 0.  1.
         11    1    3    3    0    0  0.19614862592E+02  0.10312178253E+02 -0.78274389754E+01  0.23502184069E+02  0.51100000000E-03 0.  1.
        -11    1    3    3    0    0  0.99976778660E+01  0.10079524161E+02 -0.48014592519E+01  0.14986806906E+02  0.51100000000E-03 0. -1.
        -12    1    3    3    0    0 -0.12805901837E+02 -0.24428366062E+02  0.19834406807E+02  0.33972634335E+02  0.00000000000E+00 0.  1.
</event>
<event>
 7    1  0.2809593E-013  0.7246164E+02  0.7816164E-02  0.1226708E+00
        -11   -1    0    0    0    0  0.00000000000E+00  0.00000000000E+00  0.45593999997E+02  0.45594000000E+02  0.51100000000E-03 0. -1.
         11   -1    0    0    0    0 -0.00000000000E+00 -0.00000000000E+00 -0.45593999997E+02  0.45594000000E+02  0.51100000000E-03 0.  1.
    9900012    2    1    2    0    0  0.49336870320E-01 -0.22902350941E+01  0.18585722739E+02  0.72461636214E+02  0.70000085873E+02 0.  0.
        -12    1    1    2    0    0 -0.49336870320E-01  0.22902350941E+01 -0.18585722739E+02  0.18726363786E+02  0.00000000000E+00 0.  1.
         11    1    3    3    0    0 -0.23765408932E+01 -0.49334309251E+00  0.20665507556E+01  0.31877839185E+01  0.51100000000E-03 0. -1.
        -11    1    3    3    0    0 -0.25478992831E+02 -0.11545412629E+02  0.26042472216E+02  0.38218921856E+02  0.51100000000E-03 0.  1.
        -12    1    3    3    0    0  0.27904870594E+02  0.97485206271E+01 -0.95233002325E+01  0.31054930440E+02  0.00000000000E+00 0.  1.
</event>
<event>
 7    1  0.2809593E-013  0.7246159E+02  0.7816164E-02  0.1226708E+00
        -11   -1    0    0    0    0  0.00000000000E+00  0.00000000000E+00  0.45593999997E+02  0.45594000000E+02  0.51100000000E-03 0. -1.
         11   -1    0    0    0    0 -0.00000000000E+00 -0.00000000000E+00 -0.45593999997E+02  0.45594000000E+02  0.51100000000E-03 0.  1.
    9900012    2    1    2    0    0  0.44090637800E+01  0.17808806946E+02 -0.37529955031E+01  0.72461590213E+02  0.70000025948E+02 0.  0.
        -12    1    1    2    0    0 -0.44090637800E+01 -0.17808806946E+02  0.37529955031E+01  0.18726409787E+02  0.00000000000E+00 0.  1.
         11    1    3    3    0    0  0.21960127253E+02  0.45153802000E+01  0.78712683332E+01  0.23761159752E+02  0.51100000000E-03 0. -1.
        -11    1    3    3    0    0  0.51004290784E+01 -0.11739029106E+02 -0.71068146658E+01  0.14639876916E+02  0.51100000000E-03 0.  1.
        -12    1    3    3    0    0 -0.22651492551E+02  0.25032455853E+02 -0.45174491704E+01  0.34060553546E+02  0.00000000000E+00 0.  1.
</event>
<event>
 7    1  0.2809593E-013  0.7246161E+02  0.7816164E-02  0.1226708E+00
        -11   -1    0    0    0    0  0.00000000000E+00  0.00000000000E+00  0.45593999997E+02  0.45594000000E+02  0.51100000000E-03 0.  1.
         11   -1    0    0    0    0 -0.00000000000E+00 -0.00000000000E+00 -0.45593999997E+02  0.45594000000E+02  0.51100000000E-03 0. -1.
    9900012    2    1    2    0    0  0.82216175843E+01 -0.16821852789E+02 -0.32844794889E+00  0.72461612067E+02  0.70000054416E+02 0.  0.
        -12    1    1    2    0    0 -0.82216175843E+01  0.16821852789E+02  0.32844794889E+00  0.18726387933E+02  0.00000000000E+00 0.  1.
         11    1    3    3    0    0  0.17264716376E+02 -0.61021648040E+01  0.47631862366E+01  0.18920750256E+02  0.51100000000E-03 0. -1.
        -11    1    3    3    0    0  0.13061471510E+02  0.14460987501E+02  0.88073517650E+00  0.19506355175E+02  0.51100000000E-03 0.  1.
         12    1    3    3    0    0 -0.22104570302E+02 -0.25180675486E+02 -0.59723693620E+01  0.34034506636E+02  0.00000000000E+00 0. -1.
</event>
<event>
 7    1  0.2809593E-013  0.7246154E+02  0.7816164E-02  0.1226708E+00
        -11   -1    0    0    0    0  0.00000000000E+00  0.00000000000E+00  0.45593999997E+02  0.45594000000E+02  0.51100000000E-03 0. -1.
         11   -1    0    0    0    0 -0.00000000000E+00 -0.00000000000E+00 -0.45593999997E+02  0.45594000000E+02  0.51100000000E-03 0.  1.
    9900012    2    1    2    0    0  0.15760564854E+02 -0.54746313691E+01  0.85037253126E+01  0.72461539113E+02  0.69999959381E+02 0.  0.
        -12    1    1    2    0    0 -0.15760564854E+02  0.54746313691E+01 -0.85037253126E+01  0.18726460887E+02  0.00000000000E+00 0.  1.
         11    1    3    3    0    0 -0.94356337458E+01 -0.22890411408E+02  0.79277209317E+01  0.25997132112E+02  0.51100000000E-03 0. -1.
        -11    1    3    3    0    0  0.94926245352E+01 -0.79537324384E+01 -0.87965232609E+01  0.15190477346E+02  0.51100000000E-03 0.  1.
        -12    1    3    3    0    0  0.15703574065E+02  0.25369512477E+02  0.93725276419E+01  0.31273929656E+02  0.00000000000E+00 0.  1.
</event>
<event>
 7    1  0.2809593E-013  0.7246153E+02  0.7816164E-02  0.1226708E+00
        -11   -1    0    0    0    0  0.00000000000E+00  0.00000000000E+00  0.45593999997E+02  0.45594000000E+02  0.51100000000E-03 0.  1.
         11   -1    0    0    0    0 -0.00000000000E+00 -0.00000000000E+00 -0.45593999997E+02  0.45594000000E+02  0.51100000000E-03 0. -1.
    9900012    2    1    2    0    0 -0.61255883497E+01 -0.17209959089E+02 -0.41200985699E+01  0.72461528450E+02  0.69999945490E+02 0.  0.
        -12    1    1    2    0    0  0.61255883497E+01  0.17209959089E+02  0.41200985699E+01  0.18726471550E+02  0.00000000000E+00 0.  1.
         11    1    3    3    0    0  0.47116660569E+00 -0.85843451772E+00 -0.14672989217E+02  0.14705628876E+02  0.51100000000E-03 0. -1.
        -11    1    3    3    0    0  0.57247450846E+01  0.15471469675E+02  0.16252865433E+02  0.23158037811E+02  0.51100000000E-03 0.  1.
         12    1    3    3    0    0 -0.12321500040E+02 -0.31822994247E+02 -0.56999747855E+01  0.34597861764E+02  0.00000000000E+00 0. -1.
</event>
<event>
 7    1  0.2809593E-013  0.7246160E+02  0.7816164E-02  0.1226708E+00
        -11   -1    0    0    0    0  0.00000000000E+00  0.00000000000E+00  0.45593999997E+02  0.45594000000E+02  0.51100000000E-03 0.  1.
         11   -1    0    0    0    0 -0.00000000000E+00 -0.00000000000E+00 -0.45593999997E+02  0.45594000000E+02  0.51100000000E-03 0. -1.
    9900012    2    1    2    0    0 -0.18177648353E+02 -0.30165312360E+01 -0.33394414583E+01  0.72461595391E+02  0.70000032693E+02 0.  0.
        -12    1    1    2    0    0  0.18177648353E+02  0.30165312360E+01  0.33394414583E+01  0.18726404609E+02  0.00000000000E+00 0.  1.
         11    1    3    3    0    0 -0.21039033892E+02  0.48897262418E+01 -0.27202668074E+02  0.34735220173E+02  0.51100000000E-03 0. -1.
        -11    1    3    3    0    0 -0.12128591929E+02 -0.33350252758E+01  0.59177105278E+01  0.13901238576E+02  0.51100000000E-03 0.  1.
        -12    1    3    3    0    0  0.14989977469E+02 -0.45712322020E+01  0.17945516088E+02  0.23825136643E+02  0.00000000000E+00 0.  1.
</event>
<event>
 7    1  0.2809593E-013  0.7246137E+02  0.7816164E-02  0.1226709E+00
        -11   -1    0    0    0    0  0.00000000000E+00  0.00000000000E+00  0.45593999997E+02  0.45594000000E+02  0.51100000000E-03 0. -1.
         11   -1    0    0    0    0 -0.00000000000E+00 -0.00000000000E+00 -0.45593999997E+02  0.45594000000E+02  0.51100000000E-03 0.  1.
    9900012    2    1    2    0    0  0.59965160673E+01  0.16272927319E+02  0.70654259285E+01  0.72461371579E+02  0.69999741136E+02 0.  0.
        -12    1    1    2    0    0 -0.59965160673E+01 -0.16272927319E+02 -0.70654259285E+01  0.18726628421E+02  0.00000000000E+00 0.  1.
         11    1    3    3    0    0 -0.56318277705E+01  0.30777387301E+02  0.24437397885E+02  0.39700774158E+02  0.51100000000E-03 0. -1.
        -11    1    3    3    0    0  0.49860040083E+00 -0.33004693530E+01  0.46114275210E+01  0.56927115115E+01  0.51100000000E-03 0.  1.
        -12    1    3    3    0    0  0.11129743437E+02 -0.11203990629E+02 -0.21983399478E+02  0.27067885909E+02  0.00000000000E+00 0.  1.
</event>
<event>
 7    1  0.2809593E-013  0.7246149E+02  0.7816164E-02  0.1226708E+00
        -11   -1    0    0    0    0  0.00000000000E+00  0.00000000000E+00  0.45593999997E+02  0.45594000000E+02  0.51100000000E-03 0. -1.
         11   -1    0    0    0    0 -0.00000000000E+00 -0.00000000000E+00 -0.45593999997E+02  0.45594000000E+02  0.51100000000E-03 0.  1.
    9900012    2    1    2    0    0  0.11848061033E+02  0.21381596967E+01  0.14343422260E+02  0.72461493672E+02  0.69999900185E+02 0.  0.
        -12    1    1    2    0    0 -0.11848061033E+02 -0.21381596967E+01 -0.14343422260E+02  0.18726506328E+02  0.00000000000E+00 0.  1.
         11    1    3    3    0    0 -0.48229867921E+01 -0.21162606184E+02 -0.62129006049E+01  0.22576918220E+02  0.51100000000E-03 0. -1.
        -11    1    3    3    0    0  0.35026422428E+01 -0.92147658760E+01  0.77487622536E+01  0.12538888689E+02  0.51100000000E-03 0.  1.
        -12    1    3    3    0    0  0.13168405583E+02  0.32515531757E+02  0.12807560611E+02  0.37345686763E+02  0.00000000000E+00 0.  1.
</event>
<event>
 7    1  0.2809593E-013  0.7246158E+02  0.7816164E-02  0.1226708E+00
        -11   -1    0    0    0    0  0.00000000000E+00  0.00000000000E+00  0.45593999997E+02  0.45594000000E+02  0.51100000000E-03 0. -1.
         11   -1    0    0    0    0 -0.00000000000E+00 -0.00000000000E+00 -0.45593999997E+02  0.45594000000E+02  0.51100000000E-03 0.  1.
    9900012    2    1    2    0    0 -0.16420929912E+02 -0.84485047870E+01  0.31072183322E+01  0.72461575406E+02  0.70000006658E+02 0.  0.
        -12    1    1    2    0    0  0.16420929912E+02  0.84485047870E+01 -0.31072183322E+01  0.18726424594E+02  0.00000000000E+00 0.  1.
         11    1    3    3    0    0 -0.53626781505E+01  0.41034859764E+01  0.98421627690E+01  0.11935873757E+02  0.51100000000E-03 0. -1.
        -11    1    3    3    0    0  0.23829959037E+02 -0.68122457588E+01 -0.22875624477E+01  0.24889889156E+02  0.51100000000E-03 0.  1.
        -12    1    3    3    0    0 -0.34888210799E+02 -0.57397450046E+01 -0.44473819891E+01  0.35635812493E+02  0.00000000000E+00 0.  1.
</event>
<event>
 7    1  0.2809593E-013  0.7246165E+02  0.7816164E-02  0.1226708E+00
        -11   -1    0    0    0    0  0.00000000000E+00  0.00000000000E+00  0.45593999997E+02  0.45594000000E+02  0.51100000000E-03 0.  1.
         11   -1    0    0    0    0 -0.00000000000E+00 -0.00000000000E+00 -0.45593999997E+02  0.45594000000E+02  0.51100000000E-03 0. -1.
    9900012    2    1    2    0    0 -0.13786850595E+02  0.28193575308E+01  0.12355166704E+02  0.72461650369E+02  0.70000104313E+02 0.  0.
        -12    1    1    2    0    0  0.13786850595E+02 -0.28193575308E+01 -0.12355166704E+02  0.18726349631E+02  0.00000000000E+00 0.  1.
         11    1    3    3    0    0 -0.28695883027E+01 -0.17040301948E+00 -0.53538798859E+01  0.60768087274E+01  0.51100000000E-03 0. -1.
        -11    1    3    3    0    0 -0.23133014075E+02  0.33803626858E+01 -0.17442886456E+02  0.29168775776E+02  0.51100000000E-03 0.  1.
        -12    1    3    3    0    0  0.12215751783E+02 -0.39060213552E+00  0.35151933046E+02  0.37216065866E+02  0.00000000000E+00 0.  1.
</event>
<event>
 7    1  0.2809593E-013  0.7246171E+02  0.7816164E-02  0.1226708E+00
        -11   -1    0    0    0    0  0.00000000000E+00  0.00000000000E+00  0.45593999997E+02  0.45594000000E+02  0.51100000000E-03 0. -1.
         11   -1    0    0    0    0 -0.00000000000E+00 -0.00000000000E+00 -0.45593999997E+02  0.45594000000E+02  0.51100000000E-03 0.  1.
    9900012    2    1    2    0    0 -0.32763454648E+01 -0.18409536415E+02  0.10141916425E+01  0.72461706846E+02  0.70000177884E+02 0.  0.
        -12    1    1    2    0    0  0.32763454648E+01  0.18409536415E+02 -0.10141916425E+01  0.18726293154E+02  0.00000000000E+00 0.  1.
         11    1    3    3    0    0 -0.14944126054E+01  0.69176017961E+01  0.83289026389E+01  0.10929643319E+02  0.51100000000E-03 0. -1.
        -11    1    3    3    0    0 -0.40954811777E+01  0.12616286105E+02  0.12878354248E+02  0.18487716180E+02  0.51100000000E-03 0.  1.
        -12    1    3    3    0    0  0.23135483182E+01 -0.37943424315E+02 -0.20193065244E+02  0.43044347347E+02  0.00000000000E+00 0.  1.
</event>
<event>
 7    1  0.2809593E-013  0.7246110E+02  0.7816164E-02  0.1226709E+00
        -11   -1    0    0    0    0  0.00000000000E+00  0.00000000000E+00  0.45593999997E+02  0.45594000000E+02  0.51100000000E-03 0.  1.
         11   -1    0    0    0    0 -0.00000000000E+00 -0.00000000000E+00 -0.45593999997E+02  0.45594000000E+02  0.51100000000E-03 0. -1.
    9900012    2    1    2    0    0 -0.15191028900E+02  0.10412258802E+02  0.33932871850E+01  0.72461097151E+02  0.69999383641E+02 0.  0.
        -12    1    1    2    0    0  0.15191028900E+02 -0.10412258802E+02 -0.33932871850E+01  0.18726902849E+02  0.00000000000E+00 0.  1.
         11    1    3    3    0    0 -0.31582057500E+01  0.98861138587E+00  0.70504483259E+01  0.77884811028E+01  0.51100000000E-03 0. -1.
        -11    1    3    3    0    0 -0.30366294227E+02  0.20182366663E+01  0.17991255596E+02  0.35353505944E+02  0.51100000000E-03 0.  1.
         12    1    3    3    0    0  0.18333471077E+02  0.74054107497E+01 -0.21648416737E+02  0.29319110105E+02  0.00000000000E+00 0. -1.
</event>
<event>
 7    1  0.2809593E-013  0.7246162E+02  0.7816164E-02  0.1226708E+00
        -11   -1    0    0    0    0  0.00000000000E+00  0.00000000000E+00  0.45593999997E+02  0.45594000000E+02  0.51100000000E-03 0. -1.
         11   -1    0    0    0    0 -0.00000000000E+00 -0.00000000000E+00 -0.45593999997E+02  0.45594000000E+02  0.51100000000E-03 0.  1.
    9900012    2    1    2    0    0  0.10818487326E+02  0.15244061374E+02  0.11208823155E+01  0.72461616143E+02  0.70000059726E+02 0.  0.
        -12    1    1    2    0    0 -0.10818487326E+02 -0.15244061374E+02 -0.11208823155E+01  0.18726383857E+02  0.00000000000E+00 0.  1.
         11    1    3    3    0    0  0.28514924300E+01  0.56339607935E+00 -0.11819302908E+02  0.12171456187E+02  0.51100000000E-03 0. -1.
        -11    1    3    3    0    0 -0.19401743291E+02  0.44910107403E+01  0.22036822221E+02  0.29702160764E+02  0.51100000000E-03 0.  1.
         12    1    3    3    0    0  0.27368738187E+02  0.10189654554E+02 -0.90966369975E+01  0.30587999192E+02  0.00000000000E+00 0. -1.
</event>
<event>
 7    1  0.2809593E-013  0.7246158E+02  0.7816164E-02  0.1226708E+00
        -11   -1    0    0    0    0  0.00000000000E+00  0.00000000000E+00  0.45593999997E+02  0.45594000000E+02  0.51100000000E-03 0.  1.
         11   -1    0    0    0    0 -0.00000000000E+00 -0.00000000000E+00 -0.45593999997E+02  0.45594000000E+02  0.51100000000E-03 0. -1.
    9900012    2    1    2    0    0 -0.72295459413E+01 -0.33967613729E+01 -0.16937365197E+02  0.72461583841E+02  0.70000017647E+02 0.  0.
        -12    1    1    2    0    0  0.72295459413E+01  0.33967613729E+01  0.16937365197E+02  0.18726416159E+02  0.00000000000E+00 0.  1.
         11    1    3    3    0    0  0.35587865808E+01  0.50838950073E+01  0.11176651970E+02  0.12783915672E+02  0.51100000000E-03 0. -1.
        -11    1    3    3    0    0  0.14934686598E+02  0.12402890623E+02 -0.86770782953E+01  0.21264248108E+02  0.51100000000E-03 0.  1.
         12    1    3    3    0    0 -0.25723019120E+02 -0.20883547003E+02 -0.19436938872E+02  0.38413420061E+02  0.00000000000E+00 0. -1.
</event>
<event>
 7    1  0.2809593E-013  0.7246112E+02  0.7816164E-02  0.1226709E+00
        -11   -1    0    0    0    0  0.00000000000E+00  0.00000000000E+00  0.45593999997E+02  0.45594000000E+02  0.51100000000E-03 0.  1.
         11   -1    0    0    0    0 -0.00000000000E+00 -0.00000000000E+00 -0.45593999997E+02  0.45594000000E+02  0.51100000000E-03 0. -1.
    9900012    2    1    2    0    0 -0.77876530672E+01  0.94645427994E+01 -0.14158773023E+02  0.72461121878E+02  0.69999415852E+02 0.  0.
        -12    1    1    2    0    0  0.77876530672E+01 -0.94645427994E+01  0.14158773023E+02  0.18726878122E+02  0.00000000000E+00 0.  1.
         11    1    3    3    0    0 -0.13027748122E+02  0.20392622382E+01  0.76583847963E+01  0.15248989132E+02  0.51100000000E-03 0. -1.
        -11    1    3    3    0    0 -0.66811343400E+01 -0.12424633164E+02  0.10407979302E+02  0.17530975408E+02  0.51100000000E-03 0.  1.
        -12    1    3    3    0    0  0.11921229395E+02  0.19849913725E+02 -0.32225137121E+02  0.39681157338E+02  0.00000000000E+00 0.  1.
</event>
<event>
 7    1  0.2809593E-013  0.7246146E+02  0.7816164E-02  0.1226708E+00
        -11   -1    0    0    0    0  0.00000000000E+00  0.00000000000E+00  0.45593999997E+02  0.45594000000E+02  0.51100000000E-03 0.  1.
         11   -1    0    0    0    0 -0.00000000000E+00 -0.00000000000E+00 -0.45593999997E+02  0.45594000000E+02  0.51100000000E-03 0. -1.
    9900012    2    1    2    0    0 -0.15871921609E+02  0.14462716471E+01 -0.98322824678E+01  0.72461457987E+02  0.69999853699E+02 0.  0.
        -12    1    1    2    0    0  0.15871921609E+02 -0.14462716471E+01  0.98322824678E+01  0.18726542013E+02  0.00000000000E+00 0.  1.
         11    1    3    3    0    0  0.18114334812E+02  0.40645572244E+01  0.73566544987E+00  0.18579315247E+02  0.51100000000E-03 0. -1.
        -11    1    3    3    0    0 -0.13502072500E+02 -0.59390438249E+01  0.14942989031E+02  0.20996931319E+02  0.51100000000E-03 0.  1.
         12    1    3    3    0    0 -0.20484183921E+02  0.33207582477E+01 -0.25510936949E+02  0.32885211422E+02  0.00000000000E+00 0. -1.
</event>
<event>
 7    1  0.2809593E-013  0.7246139E+02  0.7816164E-02  0.1226708E+00
        -11   -1    0    0    0    0  0.00000000000E+00  0.00000000000E+00  0.45593999997E+02  0.45594000000E+02  0.51100000000E-03 0. -1.
         11   -1    0    0    0    0 -0.00000000000E+00 -0.00000000000E+00 -0.45593999997E+02  0.45594000000E+02  0.51100000000E-03 0.  1.
    9900012    2    1    2    0    0  0.12860790320E+02  0.10790881966E+02  0.82971601489E+01  0.72461389847E+02  0.69999764934E+02 0.  0.
        -12    1    1    2    0    0 -0.12860790320E+02 -0.10790881966E+02 -0.82971601489E+01  0.18726610153E+02  0.00000000000E+00 0.  1.
         11    1    3    3    0    0 -0.19797739462E+02 -0.90599612082E+01  0.85657799305E+01  0.23396708550E+02  0.51100000000E-03 0. -1.
        -11    1    3    3    0    0  0.14673023773E+02 -0.47384855404E+01  0.81736395382E+01  0.17451626154E+02  0.51100000000E-03 0.  1.
        -12    1    3    3    0    0  0.17985506009E+02  0.24589328715E+02 -0.84422593198E+01  0.31613055143E+02  0.00000000000E+00 0.  1.
</event>
<event>
 7    1  0.2809593E-013  0.7246158E+02  0.7816164E-02  0.1226708E+00
        -11   -1    0    0    0    0  0.00000000000E+00  0.00000000000E+00  0.45593999997E+02  0.45594000000E+02  0.51100000000E-03 0. -1.
         11   -1    0    0    0    0 -0.00000000000E+00 -0.00000000000E+00 -0.45593999997E+02  0.45594000000E+02  0.51100000000E-03 0.  1.
    9900012    2    1    2    0    0  0.95381914077E+01  0.14754684042E+01  0.16047572663E+02  0.72461583079E+02  0.70000016654E+02 0.  0.
        -12    1    1    2    0    0 -0.95381914077E+01 -0.14754684042E+01 -0.16047572663E+02  0.18726416921E+02  0.00000000000E+00 0.  1.
         11    1    3    3    0    0  0.12096658805E+01  0.13470667342E+02 -0.13594136298E+02  0.19176097417E+02  0.51100000000E-03 0. -1.
        -11    1    3    3    0    0  0.86619109633E+01 -0.20138216675E+02 -0.63482597228E+00  0.21931244303E+02  0.51100000000E-03 0.  1.
        -12    1    3    3    0    0 -0.33338543614E+00  0.81430177367E+01  0.30276534933E+02  0.31354241360E+02  0.00000000000E+00 0.  1.
</event>
<event>
 7    1  0.2809593E-013  0.7246157E+02  0.7816164E-02  0.1226708E+00
        -11   -1    0    0    0    0  0.00000000000E+00  0.00000000000E+00  0.45593999997E+02  0.45594000000E+02  0.51100000000E-03 0. -1.
         11   -1    0    0    0    0 -0.00000000000E+00 -0.00000000000E+00 -0.45593999997E+02  0.45594000000E+02  0.51100000000E-03 0.  1.
    9900012    2    1    2    0    0 -0.43791755621E+01  0.16308457230E+02  0.80954380898E+01  0.72461572853E+02  0.70000003334E+02 0.  0.
        -12    1    1    2    0    0  0.43791755621E+01 -0.16308457230E+02 -0.80954380898E+01  0.18726427147E+02  0.00000000000E+00 0.  1.
         11    1    3    3    0    0 -0.27291152214E+02  0.21707160509E+02  0.13879571537E+02  0.37531990526E+02  0.51100000000E-03 0. -1.
        -11    1    3    3    0    0  0.22080075552E+01  0.23892492368E+01 -0.11608185250E+02  0.12055445837E+02  0.51100000000E-03 0.  1.
        -12    1    3    3    0    0  0.20703969097E+02 -0.77879525164E+01  0.58240518024E+01  0.22874136490E+02  0.00000000000E+00 0.  1.
</event>
<event>
 7    1  0.2809593E-013  0.7246152E+02  0.7816164E-02  0.1226708E+00
        -11   -1    0    0    0    0  0.00000000000E+00  0.00000000000E+00  0.45593999997E+02  0.45594000000E+02  0.51100000000E-03 0. -1.
         11   -1    0    0    0    0 -0.00000000000E+00 -0.00000000000E+00 -0.45593999997E+02  0.45594000000E+02  0.51100000000E-03 0.  1.
    9900012    2    1    2    0    0 -0.12269318039E+02  0.64027735368E+01  0.12615441564E+02  0.72461520353E+02  0.69999934942E+02 0.  0.
        -12    1    1    2    0    0  0.12269318039E+02 -0.64027735368E+01 -0.12615441564E+02  0.18726479647E+02  0.00000000000E+00 0.  1.
         11    1    3    3    0    0 -0.11215573858E+02 -0.57195330232E+01 -0.58834845001E+01  0.13896673886E+02  0.51100000000E-03 0. -1.
        -11    1    3    3    0    0 -0.20770372755E+02 -0.11362189887E+02  0.20392165750E+01  0.23762704979E+02  0.51100000000E-03 0.  1.
         12    1    3    3    0    0  0.19716628574E+02  0.23484496447E+02  0.16459709489E+02  0.34802141488E+02  0.00000000000E+00 0. -1.
</event>
<event>
 7    1  0.2809593E-013  0.7246156E+02  0.7816164E-02  0.1226708E+00
        -11   -1    0    0    0    0  0.00000000000E+00  0.00000000000E+00  0.45593999997E+02  0.45594000000E+02  0.51100000000E-03 0.  1.
         11   -1    0    0    0    0 -0.00000000000E+00 -0.00000000000E+00 -0.45593999997E+02  0.45594000000E+02  0.51100000000E-03 0. -1.
    9900012    2    1    2    0    0 -0.18338374267E+01  0.10309132323E+02 -0.15525408823E+02  0.72461561789E+02  0.69999988920E+02 0.  0.
        -12    1    1    2    0    0  0.18338374267E+01 -0.10309132323E+02  0.15525408823E+02  0.18726438211E+02  0.00000000000E+00 0.  1.
         11    1    3    3    0    0 -0.20711175295E+00 -0.11864513375E+02 -0.19987801713E+02  0.23244822875E+02  0.51100000000E-03 0. -1.
        -11    1    3    3    0    0 -0.79209538014E+01 -0.67598114599E+01 -0.11552574252E+02  0.15553087546E+02  0.51100000000E-03 0.  1.
        -12    1    3    3    0    0  0.62942281276E+01  0.28933457158E+02  0.16014967143E+02  0.33663651368E+02  0.00000000000E+00 0.  1.
</event>
<event>
 7    1  0.2809593E-013  0.7246158E+02  0.7816164E-02  0.1226708E+00
        -11   -1    0    0    0    0  0.00000000000E+00  0.00000000000E+00  0.45593999997E+02  0.45594000000E+02  0.51100000000E-03 0.  1.
         11   -1    0    0    0    0 -0.00000000000E+00 -0.00000000000E+00 -0.45593999997E+02  0.45594000000E+02  0.51100000000E-03 0. -1.
    9900012    2    1    2    0    0  0.13541276708E+01 -0.17131433067E+02 -0.74403766896E+01  0.72461578399E+02  0.70000010558E+02 0.  0.
        -12    1    1    2    0    0 -0.13541276708E+01  0.17131433067E+02  0.74403766896E+01  0.18726421601E+02  0.00000000000E+00 0.  1.
         11    1    3    3    0    0 -0.14475232970E+02 -0.43697124148E+01 -0.13428190078E+02  0.20222340250E+02  0.51100000000E-03 0. -1.
        -11    1    3    3    0    0  0.24716596531E+02 -0.24633928551E+02 -0.27875710108E+01  0.35007301128E+02  0.51100000000E-03 0.  1.
         12    1    3    3    0    0 -0.88872358893E+01  0.11872207898E+02  0.87753843997E+01  0.17231937021E+02  0.00000000000E+00 0. -1.
</event>
<event>
 7    1  0.2809593E-013  0.7246161E+02  0.7816164E-02  0.1226708E+00
        -11   -1    0    0    0    0  0.00000000000E+00  0.00000000000E+00  0.45593999997E+02  0.45594000000E+02  0.51100000000E-03 0. -1.
         11   -1    0    0    0    0 -0.00000000000E+00 -0.00000000000E+00 -0.45593999997E+02  0.45594000000E+02  0.51100000000E-03 0.  1.
    9900012    2    1    2    0    0  0.14808414331E+02 -0.42088732526E+01  0.10661793354E+02  0.72461612560E+02  0.70000055058E+02 0.  0.
        -12    1    1    2    0    0 -0.14808414331E+02  0.42088732526E+01 -0.10661793354E+02  0.18726387440E+02  0.00000000000E+00 0.  1.
         11    1    3    3    0    0  0.24394497766E+01 -0.41259470408E+01  0.28800683399E+02  0.29196810077E+02  0.51100000000E-03 0. -1.
        -11    1    3    3    0    0 -0.12125316020E+02 -0.24495997596E+01  0.52179153176E+00  0.12381279992E+02  0.51100000000E-03 0.  1.
        -12    1    3    3    0    0  0.24494280574E+02  0.23666735478E+01 -0.18660681577E+02  0.30883522491E+02  0.00000000000E+00 0.  1.
</event>
<event>
 7    1  0.2809593E-013  0.7246158E+02  0.7816164E-02  0.1226708E+00
        -11   -1    0    0    0    0  0.00000000000E+00  0.00000000000E+00  0.45593999997E+02  0.45594000000E+02  0.51100000000E-03 0.  1.
         11   -1    0    0    0    0 -0.00000000000E+00 -0.00000000000E+00 -0.45593999997E+02  0.45594000000E+02  0.51100000000E-03 0. -1.
    9900012    2    1    2    0    0 -0.12108458707E+02  0.52376574597E+00 -0.14275499557E+02  0.72461575076E+02  0.70000006229E+02 0.  0.
        -12    1    1    2    0    0  0.12108458707E+02 -0.52376574597E+00  0.14275499557E+02  0.18726424924E+02  0.00000000000E+00 0.  1.
         11    1    3    3    0    0  0.87350403869E+01 -0.25586350835E+02 -0.14704165175E+02  0.30776204336E+02  0.51100000000E-03 0. -1.
        -11    1    3    3    0    0 -0.96979358556E+01  0.48142743337E+01 -0.10678336866E+02  0.15207040334E+02  0.51100000000E-03 0.  1.
        -12    1    3    3    0    0 -0.11145563239E+02  0.21295842247E+02  0.11107002484E+02  0.26478330406E+02  0.00000000000E+00 0.  1.
</event>
<event>
 7    1  0.3181089E-013  0.7246186E+02  0.7816164E-02  0.1226707E+00
        -11   -1    0    0    0    0  0.00000000000E+00  0.00000000000E+00  0.45593999997E+02  0.45594000000E+02  0.51100000000E-03 0. -1.
         11   -1    0    0    0    0 -0.00000000000E+00 -0.00000000000E+00 -0.45593999997E+02  0.45594000000E+02  0.51100000000E-03 0.  1.
    9900012    2    1    2    0    0  0.12282457136E+02 -0.67676656961E-01  0.14135237135E+02  0.72461861522E+02  0.70000379377E+02 0.  0.
        -12    1    1    2    0    0 -0.12282457136E+02  0.67676656961E-01 -0.14135237135E+02  0.18726138478E+02  0.00000000000E+00 0.  1.
         11    1    3    3    0    0  0.36389656393E+01 -0.22402135886E+02  0.30039724805E+02  0.37649473167E+02  0.51100000000E-03 0. -1.
        -11    1    3    3    0    0  0.54090216076E+01 -0.24006427720E+01 -0.42035795030E+01  0.72588347115E+01  0.51100000000E-03 0.  1.
        -12    1    3    3    0    0  0.32344698892E+01  0.24735102001E+02 -0.11700908167E+02  0.27553553643E+02  0.00000000000E+00 0.  1.
</event>
<event>
 7    1  0.2809593E-013  0.7246162E+02  0.7816164E-02  0.1226708E+00
        -11   -1    0    0    0    0  0.00000000000E+00  0.00000000000E+00  0.45593999997E+02  0.45594000000E+02  0.51100000000E-03 0. -1.
         11   -1    0    0    0    0 -0.00000000000E+00 -0.00000000000E+00 -0.45593999997E+02  0.45594000000E+02  0.51100000000E-03 0.  1.
    9900012    2    1    2    0    0 -0.14849030988E+02 -0.51758448553E+01 -0.10168285783E+02  0.72461624830E+02  0.70000071043E+02 0.  0.
        -12    1    1    2    0    0  0.14849030988E+02  0.51758448553E+01  0.10168285783E+02  0.18726375170E+02  0.00000000000E+00 0.  1.
         11    1    3    3    0    0  0.17171710585E+02  0.14002265095E+02 -0.12311439273E+01  0.22191142103E+02  0.51100000000E-03 0. -1.
        -11    1    3    3    0    0  0.53748574007E+01  0.24188743788E+01  0.94717664197E+00  0.59696892039E+01  0.51100000000E-03 0.  1.
         12    1    3    3    0    0 -0.37395598973E+02 -0.21596984329E+02 -0.98843184972E+01  0.44300793524E+02  0.00000000000E+00 0. -1.
</event>
<event>
 7    1  0.2809593E-013  0.7246162E+02  0.7816164E-02  0.1226708E+00
        -11   -1    0    0    0    0  0.00000000000E+00  0.00000000000E+00  0.45593999997E+02  0.45594000000E+02  0.51100000000E-03 0. -1.
         11   -1    0    0    0    0 -0.00000000000E+00 -0.00000000000E+00 -0.45593999997E+02  0.45594000000E+02  0.51100000000E-03 0.  1.
    9900012    2    1    2    0    0  0.34145140459E+01  0.11864755098E+02  0.14079980751E+02  0.72461623478E+02  0.70000069281E+02 0.  0.
        -12    1    1    2    0    0 -0.34145140459E+01 -0.11864755098E+02 -0.14079980751E+02  0.18726376522E+02  0.00000000000E+00 0.  1.
         11    1    3    3    0    0 -0.61620039999E+00 -0.45821556784E+01 -0.98830707478E-01  0.46244590348E+01  0.51100000000E-03 0. -1.
        -11    1    3    3    0    0 -0.55457892742E+01  0.32197878827E+02 -0.12860633862E+02  0.35112036159E+02  0.51100000000E-03 0.  1.
         12    1    3    3    0    0  0.95765037201E+01 -0.15750968050E+02  0.27039445320E+02  0.32725128285E+02  0.00000000000E+00 0. -1.
</event>
<event>
 7    1  0.2809593E-013  0.7246181E+02  0.7816164E-02  0.1226707E+00
        -11   -1    0    0    0    0  0.00000000000E+00  0.00000000000E+00  0.45593999997E+02  0.45594000000E+02  0.51100000000E-03 0. -1.
         11   -1    0    0    0    0 -0.00000000000E+00 -0.00000000000E+00 -0.45593999997E+02  0.45594000000E+02  0.51100000000E-03 0.  1.
    9900012    2    1    2    0    0  0.15056353665E+02 -0.10229178622E+02 -0.43977523795E+01  0.72461812268E+02  0.70000315216E+02 0.  0.
        -12    1    1    2    0    0 -0.15056353665E+02  0.10229178622E+02  0.43977523795E+01  0.18726187732E+02  0.00000000000E+00 0.  1.
         11    1    3    3    0    0  0.12623014808E+01  0.14888476338E+02  0.16582158623E+02  0.22321024115E+02  0.51100000000E-03 0. -1.
        -11    1    3    3    0    0  0.10458170745E+02 -0.65074418901E+01  0.86084927707E+01  0.15027517537E+02  0.51100000000E-03 0.  1.
        -12    1    3    3    0    0  0.33358814388E+01 -0.18610213070E+02 -0.29588403773E+02  0.35113270616E+02  0.00000000000E+00 0.  1.
</event>
<event>
 7    1  0.2809593E-013  0.7246154E+02  0.7816164E-02  0.1226708E+00
        -11   -1    0    0    0    0  0.00000000000E+00  0.00000000000E+00  0.45593999997E+02  0.45594000000E+02  0.51100000000E-03 0. -1.
         11   -1    0    0    0    0 -0.00000000000E+00 -0.00000000000E+00 -0.45593999997E+02  0.45594000000E+02  0.51100000000E-03 0.  1.
    9900012    2    1    2    0    0 -0.78410142025E+01 -0.11710197896E+02  0.12331665512E+02  0.72461542439E+02  0.69999963713E+02 0.  0.
        -12    1    1    2    0    0  0.78410142025E+01  0.11710197896E+02 -0.12331665512E+02  0.18726457561E+02  0.00000000000E+00 0.  1.
         11    1    3    3    0    0 -0.15710910814E+02  0.32427487561E+01  0.26133557338E+02  0.30664490172E+02  0.51100000000E-03 0. -1.
        -11    1    3    3    0    0  0.15666102525E+01  0.42262414929E+01  0.97711469536E+01  0.10760608621E+02  0.51100000000E-03 0.  1.
        -12    1    3    3    0    0  0.63032863594E+01 -0.19179188145E+02 -0.23573038780E+02  0.31036443646E+02  0.00000000000E+00 0.  1.
</event>
<event>
 7    1  0.2809593E-013  0.7246159E+02  0.7816164E-02  0.1226708E+00
        -11   -1    0    0    0    0  0.00000000000E+00  0.00000000000E+00  0.45593999997E+02  0.45594000000E+02  0.51100000000E-03 0.  1.
         11   -1    0    0    0    0 -0.00000000000E+00 -0.00000000000E+00 -0.45593999997E+02  0.45594000000E+02  0.51100000000E-03 0. -1.
    9900012    2    1    2    0    0 -0.16321664270E+02  0.66507083460E+01  0.63285026222E+01  0.72461585728E+02  0.70000020105E+02 0.  0.
        -12    1    1    2    0    0  0.16321664270E+02 -0.66507083460E+01 -0.63285026222E+01  0.18726414272E+02  0.00000000000E+00 0.  1.
         11    1    3    3    0    0 -0.30138917092E+02  0.72580042727E+01  0.28297044438E+02  0.41973273326E+02  0.51100000000E-03 0. -1.
        -11    1    3    3    0    0 -0.31534970890E+01 -0.16483614544E+01 -0.69259593685E+01  0.77865623230E+01  0.51100000000E-03 0.  1.
        -12    1    3    3    0    0  0.16970749911E+02  0.10410655276E+01 -0.15042582447E+02  0.22701750079E+02  0.00000000000E+00 0.  1.
</event>
<event>
 7    1  0.2809593E-013  0.7246160E+02  0.7816164E-02  0.1226708E+00
        -11   -1    0    0    0    0  0.00000000000E+00  0.00000000000E+00  0.45593999997E+02  0.45594000000E+02  0.51100000000E-03 0. -1.
         11   -1    0    0    0    0 -0.00000000000E+00 -0.00000000000E+00 -0.45593999997E+02  0.45594000000E+02  0.51100000000E-03 0.  1.
    9900012    2    1    2    0    0  0.16311208920E+02  0.91987567526E+01  0.73207427608E-01  0.72461600945E+02  0.70000039928E+02 0.  0.
        -12    1    1    2    0    0 -0.16311208920E+02 -0.91987567526E+01 -0.73207427608E-01  0.18726399055E+02  0.00000000000E+00 0.  1.
         11    1    3    3    0    0 -0.60993756609E+01  0.39710964239E+01 -0.28854191973E+01  0.78292805842E+01  0.51100000000E-03 0. -1.
        -11    1    3    3    0    0 -0.68230397277E+01  0.84761796905E+01  0.25401841014E+02  0.27634272569E+02  0.51100000000E-03 0.  1.
         12    1    3    3    0    0  0.29233624309E+02 -0.32485193618E+01 -0.22443214389E+02  0.36998047792E+02  0.00000000000E+00 0. -1.
</event>
<event>
 7    1  0.2809593E-013  0.7246159E+02  0.7816164E-02  0.1226708E+00
        -11   -1    0    0    0    0  0.00000000000E+00  0.00000000000E+00  0.45593999997E+02  0.45594000000E+02  0.51100000000E-03 0.  1.
         11   -1    0    0    0    0 -0.00000000000E+00 -0.00000000000E+00 -0.45593999997E+02  0.45594000000E+02  0.51100000000E-03 0. -1.
    9900012    2    1    2    0    0  0.17763951755E+02 -0.36506267626E+01 -0.46683297068E+01  0.72461591909E+02  0.70000028157E+02 0.  0.
        -12    1    1    2    0    0 -0.17763951755E+02  0.36506267626E+01  0.46683297068E+01  0.18726408091E+02  0.00000000000E+00 0.  1.
         11    1    3    3    0    0 -0.89376050307E+01 -0.25730587455E+01 -0.20174082310E+02  0.22214747631E+02  0.51100000000E-03 0. -1.
        -11    1    3    3    0    0 -0.61123348319E+01 -0.10000853213E+02  0.10761664315E+02  0.15911980429E+02  0.51100000000E-03 0.  1.
        -12    1    3    3    0    0  0.32813891618E+02  0.89232851962E+01  0.47440882882E+01  0.34334863849E+02  0.00000000000E+00 0.  1.
</event>
<event>
 7    1  0.2809593E-013  0.7246159E+02  0.7816164E-02  0.1226708E+00
        -11   -1    0    0    0    0  0.00000000000E+00  0.00000000000E+00  0.45593999997E+02  0.45594000000E+02  0.51100000000E-03 0. -1.
         11   -1    0    0    0    0 -0.00000000000E+00 -0.00000000000E+00 -0.45593999997E+02  0.45594000000E+02  0.51100000000E-03 0.  1.
    9900012    2    1    2    0    0  0.73536277867E+01 -0.18728155518E+01  0.17120025471E+02  0.72461586787E+02  0.70000021485E+02 0.  0.
        -12    1    1    2    0    0 -0.73536277867E+01  0.18728155518E+01 -0.17120025471E+02  0.18726413213E+02  0.00000000000E+00 0.  1.
         11    1    3    3    0    0 -0.20331253262E+01  0.19757162894E+02  0.10314646541E+02  0.22380147849E+02  0.51100000000E-03 0.  1.
        -11    1    3    3    0    0  0.28635490857E+01 -0.12230585760E+02  0.25349962950E+02  0.28291478632E+02  0.51100000000E-03 0. -1.
        -12    1    3    3    0    0  0.65232040272E+01 -0.93993926861E+01 -0.18544584020E+02  0.21789960306E+02  0.00000000000E+00 0.  1.
</event>
<event>
 7    1  0.2809593E-013  0.7246148E+02  0.7816164E-02  0.1226708E+00
        -11   -1    0    0    0    0  0.00000000000E+00  0.00000000000E+00  0.45593999997E+02  0.45594000000E+02  0.51100000000E-03 0. -1.
         11   -1    0    0    0    0 -0.00000000000E+00 -0.00000000000E+00 -0.45593999997E+02  0.45594000000E+02  0.51100000000E-03 0.  1.
    9900012    2    1    2    0    0 -0.12170914612E+01  0.77468016446E+01  0.17005541180E+02  0.72461476612E+02  0.69999877962E+02 0.  0.
        -12    1    1    2    0    0  0.12170914612E+01 -0.77468016446E+01 -0.17005541180E+02  0.18726523388E+02  0.00000000000E+00 0.  1.
         11    1    3    3    0    0 -0.19121103435E+02  0.55543760230E+01 -0.83574042977E+01  0.21594302407E+02  0.51100000000E-03 0. -1.
        -11    1    3    3    0    0 -0.81827372801E+01  0.81097148675E+01  0.20734687798E+02  0.23720285474E+02  0.51100000000E-03 0.  1.
        -12    1    3    3    0    0  0.26086749254E+02 -0.59172892459E+01  0.46282576801E+01  0.27146888732E+02  0.00000000000E+00 0.  1.
</event>
<event>
 7    1  0.2809593E-013  0.7246153E+02  0.7816164E-02  0.1226708E+00
        -11   -1    0    0    0    0  0.00000000000E+00  0.00000000000E+00  0.45593999997E+02  0.45594000000E+02  0.51100000000E-03 0. -1.
         11   -1    0    0    0    0 -0.00000000000E+00 -0.00000000000E+00 -0.45593999997E+02  0.45594000000E+02  0.51100000000E-03 0.  1.
    9900012    2    1    2    0    0  0.11614751773E+02  0.14596960615E+02 -0.16453319083E+01  0.72461525825E+02  0.69999942070E+02 0.  0.
        -12    1    1    2    0    0 -0.11614751773E+02 -0.14596960615E+02  0.16453319083E+01  0.18726474175E+02  0.00000000000E+00 0.  1.
         11    1    3    3    0    0  0.15931504721E+02  0.25745719957E+02 -0.10451418018E+02  0.32029472016E+02  0.51100000000E-03 0. -1.
        -11    1    3    3    0    0 -0.97260124755E+01  0.11567505840E+02 -0.90904188510E+00  0.15140306055E+02  0.51100000000E-03 0.  1.
         12    1    3    3    0    0  0.54092595279E+01 -0.22716265182E+02  0.97151279946E+01  0.25291747754E+02  0.00000000000E+00 0. -1.
</event>
<event>
 7    1  0.2809593E-013  0.7246156E+02  0.7816164E-02  0.1226708E+00
        -11   -1    0    0    0    0  0.00000000000E+00  0.00000000000E+00  0.45593999997E+02  0.45594000000E+02  0.51100000000E-03 0.  1.
         11   -1    0    0    0    0 -0.00000000000E+00 -0.00000000000E+00 -0.45593999997E+02  0.45594000000E+02  0.51100000000E-03 0. -1.
    9900012    2    1    2    0    0 -0.12432285536E+02 -0.36165754854E+01 -0.13529157257E+02  0.72461563126E+02  0.69999990662E+02 0.  0.
        -12    1    1    2    0    0  0.12432285536E+02  0.36165754854E+01  0.13529157257E+02  0.18726436874E+02  0.00000000000E+00 0.  1.
         11    1    3    3    0    0 -0.22986384718E+02  0.12393039330E+02 -0.13020807547E+02  0.29180519798E+02  0.51100000000E-03 0.  1.
        -11    1    3    3    0    0 -0.31514004919E+01 -0.73339100497E+01 -0.17839154543E+02  0.19543617801E+02  0.51100000000E-03 0. -1.
        -12    1    3    3    0    0  0.13705499674E+02 -0.86757047659E+01  0.17330804833E+02  0.23737425527E+02  0.00000000000E+00 0.  1.
</event>
<event>
 7    1  0.2809593E-013  0.7246180E+02  0.7816164E-02  0.1226707E+00
        -11   -1    0    0    0    0  0.00000000000E+00  0.00000000000E+00  0.45593999997E+02  0.45594000000E+02  0.51100000000E-03 0. -1.
         11   -1    0    0    0    0 -0.00000000000E+00 -0.00000000000E+00 -0.45593999997E+02  0.45594000000E+02  0.51100000000E-03 0.  1.
    9900012    2    1    2    0    0  0.85286868389E+01 -0.15527342434E+02  0.60690640713E+01  0.72461804418E+02  0.70000304989E+02 0.  0.
        -12    1    1    2    0    0 -0.85286868389E+01  0.15527342434E+02 -0.60690640713E+01  0.18726195582E+02  0.00000000000E+00 0.  1.
         11    1    3    3    0    0  0.48576305740E+01 -0.96410496621E+01 -0.24467001929E+02  0.26742860674E+02  0.51100000000E-03 0. -1.
        -11    1    3    3    0    0 -0.42291290611E+01  0.99057161085E+01  0.38483996034E+00  0.10777608561E+02  0.51100000000E-03 0.  1.
         12    1    3    3    0    0  0.79001853260E+01 -0.15792008880E+02  0.30151226040E+02  0.34941335183E+02  0.00000000000E+00 0. -1.
</event>
<event>
 7    1  0.2809593E-013  0.7246158E+02  0.7816164E-02  0.1226708E+00
        -11   -1    0    0    0    0  0.00000000000E+00  0.00000000000E+00  0.45593999997E+02  0.45594000000E+02  0.51100000000E-03 0. -1.
         11   -1    0    0    0    0 -0.00000000000E+00 -0.00000000000E+00 -0.45593999997E+02  0.45594000000E+02  0.51100000000E-03 0.  1.
    9900012    2    1    2    0    0  0.58411245357E+01 -0.14461964065E+00  0.17791544389E+02  0.72461582766E+02  0.70000016247E+02 0.  0.
        -12    1    1    2    0    0 -0.58411245357E+01  0.14461964065E+00 -0.17791544389E+02  0.18726417234E+02  0.00000000000E+00 0.  1.
         11    1    3    3    0    0 -0.17067423244E+02 -0.14581804807E+02  0.98821843600E+00  0.22470036572E+02  0.51100000000E-03 0. -1.
        -11    1    3    3    0    0 -0.58224877763E+01 -0.65340902365E+01 -0.30345779352E+01  0.92630644297E+01  0.51100000000E-03 0.  1.
         12    1    3    3    0    0  0.28731035556E+02  0.20971275403E+02  0.19837903888E+02  0.40728481764E+02  0.00000000000E+00 0. -1.
</event>
<event>
 7    1  0.2809593E-013  0.7246150E+02  0.7816164E-02  0.1226708E+00
        -11   -1    0    0    0    0  0.00000000000E+00  0.00000000000E+00  0.45593999997E+02  0.45594000000E+02  0.51100000000E-03 0.  1.
         11   -1    0    0    0    0 -0.00000000000E+00 -0.00000000000E+00 -0.45593999997E+02  0.45594000000E+02  0.51100000000E-03 0. -1.
    9900012    2    1    2    0    0  0.26166732949E+01 -0.75619942446E+01 -0.16930768602E+02  0.72461503757E+02  0.69999913323E+02 0.  0.
        -12    1    1    2    0    0 -0.26166732949E+01  0.75619942446E+01  0.16930768602E+02  0.18726496243E+02  0.00000000000E+00 0.  1.
         11    1    3    3    0    0  0.19246273486E+00 -0.27119197403E+02 -0.20924610026E+02  0.34253864230E+02  0.51100000000E-03 0. -1.
        -11    1    3    3    0    0  0.33385730044E+01 -0.75579786643E+01  0.71075986160E+01  0.10898948093E+02  0.51100000000E-03 0.  1.
        -12    1    3    3    0    0 -0.91436244435E+00  0.27115181823E+02 -0.31137571921E+01  0.27308691434E+02  0.00000000000E+00 0.  1.
</event>
<event>
 7    1  0.2809593E-013  0.7246149E+02  0.7816164E-02  0.1226708E+00
        -11   -1    0    0    0    0  0.00000000000E+00  0.00000000000E+00  0.45593999997E+02  0.45594000000E+02  0.51100000000E-03 0. -1.
         11   -1    0    0    0    0 -0.00000000000E+00 -0.00000000000E+00 -0.45593999997E+02  0.45594000000E+02  0.51100000000E-03 0.  1.
    9900012    2    1    2    0    0  0.81380580276E+00  0.99007962194E+01 -0.15874322063E+02  0.72461490805E+02  0.69999896451E+02 0.  0.
        -12    1    1    2    0    0 -0.81380580276E+00 -0.99007962194E+01  0.15874322063E+02  0.18726509195E+02  0.00000000000E+00 0.  1.
         11    1    3    3    0    0 -0.14113025066E+02  0.20865300846E+02 -0.26014320123E+02  0.36211643260E+02  0.51100000000E-03 0. -1.
        -11    1    3    3    0    0 -0.31888992837E+01  0.53965597280E+01 -0.45632183246E+01  0.77533797326E+01  0.51100000000E-03 0.  1.
        -12    1    3    3    0    0  0.18115730152E+02 -0.16361064354E+02  0.14703216385E+02  0.28496467813E+02  0.00000000000E+00 0.  1.
</event>
<event>
 7    1  0.2809593E-013  0.7246148E+02  0.7816164E-02  0.1226708E+00
        -11   -1    0    0    0    0  0.00000000000E+00  0.00000000000E+00  0.45593999997E+02  0.45594000000E+02  0.51100000000E-03 0. -1.
         11   -1    0    0    0    0 -0.00000000000E+00 -0.00000000000E+00 -0.45593999997E+02  0.45594000000E+02  0.51100000000E-03 0.  1.
    9900012    2    1    2    0    0  0.15547263227E+02  0.97878515462E+01  0.36281244506E+01  0.72461475529E+02  0.69999876550E+02 0.  0.
        -12    1    1    2    0    0 -0.15547263227E+02 -0.97878515462E+01 -0.36281244506E+01  0.18726524471E+02  0.00000000000E+00 0.  1.
         11    1    3    3    0    0 -0.14443946380E+02  0.49506779129E+01  0.14455393055E+01  0.15337091737E+02  0.51100000000E-03 0. -1.
        -11    1    3    3    0    0  0.42399896601E+01  0.21879945457E+02 -0.93394327246E+01  0.24164737313E+02  0.51100000000E-03 0.  1.
         12    1    3    3    0    0  0.25751219947E+02 -0.17042771824E+02  0.11522017870E+02  0.32959646478E+02  0.00000000000E+00 0. -1.
</event>
<event>
 7    1  0.2809593E-013  0.7246145E+02  0.7816164E-02  0.1226708E+00
        -11   -1    0    0    0    0  0.00000000000E+00  0.00000000000E+00  0.45593999997E+02  0.45594000000E+02  0.51100000000E-03 0. -1.
         11   -1    0    0    0    0 -0.00000000000E+00 -0.00000000000E+00 -0.45593999997E+02  0.45594000000E+02  0.51100000000E-03 0.  1.
    9900012    2    1    2    0    0  0.99525384710E+01 -0.14590875156E+02 -0.62239087029E+01  0.72461449347E+02  0.69999842443E+02 0.  0.
        -12    1    1    2    0    0 -0.99525384710E+01  0.14590875156E+02  0.62239087029E+01  0.18726550653E+02  0.00000000000E+00 0.  1.
         11    1    3    3    0    0  0.86443098382E+01  0.11350838370E+02  0.75983868451E+01  0.16164810769E+02  0.51100000000E-03 0. -1.
        -11    1    3    3    0    0 -0.97831312291E+01  0.11528740897E+02 -0.68603566206E+01  0.16603795245E+02  0.51100000000E-03 0.  1.
         12    1    3    3    0    0  0.11091359862E+02 -0.37470454423E+02 -0.69619389273E+01  0.39692843333E+02  0.00000000000E+00 0. -1.
</event>
<event>
 7    1  0.2809593E-013  0.7246163E+02  0.7816164E-02  0.1226708E+00
        -11   -1    0    0    0    0  0.00000000000E+00  0.00000000000E+00  0.45593999997E+02  0.45594000000E+02  0.51100000000E-03 0.  1.
         11   -1    0    0    0    0 -0.00000000000E+00 -0.00000000000E+00 -0.45593999997E+02  0.45594000000E+02  0.51100000000E-03 0. -1.
    9900012    2    1    2    0    0 -0.11648664598E+02  0.14027528290E+02  0.42677724295E+01  0.72461633071E+02  0.70000081779E+02 0.  0.
        -12    1    1    2    0    0  0.11648664598E+02 -0.14027528290E+02 -0.42677724295E+01  0.18726366929E+02  0.00000000000E+00 0.  1.
         11    1    3    3    0    0  0.10847358939E+02 -0.11602671560E+02 -0.79151636758E+01  0.17746464424E+02  0.51100000000E-03 0. -1.
        -11    1    3    3    0    0 -0.99906255992E+01 -0.64608833288E+01  0.16135320205E+02  0.20047547771E+02  0.51100000000E-03 0.  1.
        -12    1    3    3    0    0 -0.12505397938E+02  0.32091083179E+02 -0.39523840999E+01  0.34667620876E+02  0.00000000000E+00 0.  1.
</event>
<event>
 7    1  0.2809593E-013  0.7246219E+02  0.7816164E-02  0.1226706E+00
        -11   -1    0    0    0    0  0.00000000000E+00  0.00000000000E+00  0.45593999997E+02  0.45594000000E+02  0.51100000000E-03 0. -1.
         11   -1    0    0    0    0 -0.00000000000E+00 -0.00000000000E+00 -0.45593999997E+02  0.45594000000E+02  0.51100000000E-03 0.  1.
    9900012    2    1    2    0    0  0.19760896972E+01  0.17884736961E+02 -0.51852847942E+01  0.72462190937E+02  0.70000808498E+02 0.  0.
        -12    1    1    2    0    0 -0.19760896972E+01 -0.17884736961E+02  0.51852847942E+01  0.18725809063E+02  0.00000000000E+00 0.  1.
         11    1    3    3    0    0 -0.49813217910E+00 -0.10673513064E+02 -0.71213953703E+01  0.12840805624E+02  0.51100000000E-03 0.  1.
        -11    1    3    3    0    0 -0.18719665910E+02 -0.43112823968E+01  0.64226269095E+01  0.20254954564E+02  0.51100000000E-03 0. -1.
         12    1    3    3    0    0  0.21193887787E+02  0.32869532422E+02 -0.44865163334E+01  0.39366430749E+02  0.00000000000E+00 0. -1.
</event>
<event>
 7    1  0.2809593E-013  0.7246156E+02  0.7816164E-02  0.1226708E+00
        -11   -1    0    0    0    0  0.00000000000E+00  0.00000000000E+00  0.45593999997E+02  0.45594000000E+02  0.51100000000E-03 0. -1.
         11   -1    0    0    0    0 -0.00000000000E+00 -0.00000000000E+00 -0.45593999997E+02  0.45594000000E+02  0.51100000000E-03 0.  1.
    9900012    2    1    2    0    0 -0.82973947847E+01 -0.15881146256E+02  0.54426048476E+01  0.72461561093E+02  0.69999988013E+02 0.  0.
        -12    1    1    2    0    0  0.82973947847E+01  0.15881146256E+02 -0.54426048476E+01  0.18726438907E+02  0.00000000000E+00 0.  1.
         11    1    3    3    0    0 -0.20905007517E+01 -0.13135740507E+00 -0.30514623964E+01  0.37011986137E+01  0.51100000000E-03 0. -1.
        -11    1    3    3    0    0  0.50989903883E+01 -0.31406076805E+02 -0.17550823603E+02  0.36336934001E+02  0.51100000000E-03 0.  1.
         12    1    3    3    0    0 -0.11305884421E+02  0.15656287954E+02  0.26044890847E+02  0.32423428478E+02  0.00000000000E+00 0. -1.
</event>
<event>
 7    1  0.2809593E-013  0.7246158E+02  0.7816164E-02  0.1226708E+00
        -11   -1    0    0    0    0  0.00000000000E+00  0.00000000000E+00  0.45593999997E+02  0.45594000000E+02  0.51100000000E-03 0. -1.
         11   -1    0    0    0    0 -0.00000000000E+00 -0.00000000000E+00 -0.45593999997E+02  0.45594000000E+02  0.51100000000E-03 0.  1.
    9900012    2    1    2    0    0  0.10707586661E+02 -0.12569811312E+02  0.88332532487E+01  0.72461576650E+02  0.70000008279E+02 0.  0.
        -12    1    1    2    0    0 -0.10707586661E+02  0.12569811312E+02 -0.88332532487E+01  0.18726423350E+02  0.00000000000E+00 0.  1.
         11    1    3    3    0    0  0.10988241597E+02 -0.16557174771E+02  0.29232211363E+02  0.35346904691E+02  0.51100000000E-03 0. -1.
        -11    1    3    3    0    0  0.24317112081E+01 -0.37336847853E+01  0.71229767395E+01  0.84018104816E+01  0.51100000000E-03 0.  1.
        -12    1    3    3    0    0 -0.27123661435E+01  0.77210482444E+01 -0.27521934854E+02  0.28712861477E+02  0.00000000000E+00 0.  1.
</event>
<event>
 7    1  0.2809593E-013  0.7246136E+02  0.7816164E-02  0.1226709E+00
        -11   -1    0    0    0    0  0.00000000000E+00  0.00000000000E+00  0.45593999997E+02  0.45594000000E+02  0.51100000000E-03 0.  1.
         11   -1    0    0    0    0 -0.00000000000E+00 -0.00000000000E+00 -0.45593999997E+02  0.45594000000E+02  0.51100000000E-03 0. -1.
    9900012    2    1    2    0    0  0.11668522398E+01 -0.13072619651E+02 -0.13357846227E+02  0.72461361633E+02  0.69999728180E+02 0.  0.
        -12    1    1    2    0    0 -0.11668522398E+01  0.13072619651E+02  0.13357846227E+02  0.18726638367E+02  0.00000000000E+00 0.  1.
         11    1    3    3    0    0 -0.48761858015E+01 -0.26945950501E+02 -0.26162046227E+02  0.37872339503E+02  0.51100000000E-03 0. -1.
        -11    1    3    3    0    0 -0.65524541915E+01  0.46616134880E+01 -0.60876543574E+01  0.10085872896E+02  0.51100000000E-03 0.  1.
        -12    1    3    3    0    0  0.12595492233E+02  0.92117173616E+01  0.18891854358E+02  0.24503149234E+02  0.00000000000E+00 0.  1.
</event>
<event>
 7    1  0.2809593E-013  0.7246150E+02  0.7816164E-02  0.1226708E+00
        -11   -1    0    0    0    0  0.00000000000E+00  0.00000000000E+00  0.45593999997E+02  0.45594000000E+02  0.51100000000E-03 0. -1.
         11   -1    0    0    0    0 -0.00000000000E+00 -0.00000000000E+00 -0.45593999997E+02  0.45594000000E+02  0.51100000000E-03 0.  1.
    9900012    2    1    2    0    0 -0.18179366011E+02 -0.38795939574E+01  0.22673940147E+01  0.72461503438E+02  0.69999912908E+02 0.  0.
        -12    1    1    2    0    0  0.18179366011E+02  0.38795939574E+01 -0.22673940147E+01  0.18726496562E+02  0.00000000000E+00 0.  1.
         11    1    3    3    0    0  0.61097226687E+00  0.89709579576E+01  0.26467693341E+00  0.89956338258E+01  0.51100000000E-03 0.  1.
        -11    1    3    3    0    0 -0.21788328675E+02  0.19206797595E+02 -0.73057521037E+01  0.29950064347E+02  0.51100000000E-03 0. -1.
         12    1    3    3    0    0  0.29979903969E+01 -0.32057349510E+02  0.93084691850E+01  0.33515805266E+02  0.00000000000E+00 0. -1.
</event>
<event>
 7    1  0.2809593E-013  0.7246167E+02  0.7816164E-02  0.1226708E+00
        -11   -1    0    0    0    0  0.00000000000E+00  0.00000000000E+00  0.45593999997E+02  0.45594000000E+02  0.51100000000E-03 0.  1.
         11   -1    0    0    0    0 -0.00000000000E+00 -0.00000000000E+00 -0.45593999997E+02  0.45594000000E+02  0.51100000000E-03 0. -1.
    9900012    2    1    2    0    0 -0.39655203624E+01  0.12376694251E+02 -0.13482122997E+02  0.72461666861E+02  0.70000125796E+02 0.  0.
        -12    1    1    2    0    0  0.39655203624E+01 -0.12376694251E+02  0.13482122997E+02  0.18726333139E+02  0.00000000000E+00 0.  1.
         11    1    3    3    0    0 -0.12890046473E+01  0.75017201738E+00  0.46830137407E+01  0.49147643884E+01  0.51100000000E-03 0. -1.
        -11    1    3    3    0    0 -0.22362626813E+02 -0.52690265851E+01  0.13471940060E+02  0.26633491855E+02  0.51100000000E-03 0.  1.
         12    1    3    3    0    0  0.19686111098E+02  0.16895548818E+02 -0.31637076798E+02  0.40913410618E+02  0.00000000000E+00 0. -1.
</event>
<event>
 7    1  0.2809593E-013  0.7246155E+02  0.7816164E-02  0.1226708E+00
        -11   -1    0    0    0    0  0.00000000000E+00  0.00000000000E+00  0.45593999997E+02  0.45594000000E+02  0.51100000000E-03 0.  1.
         11   -1    0    0    0    0 -0.00000000000E+00 -0.00000000000E+00 -0.45593999997E+02  0.45594000000E+02  0.51100000000E-03 0. -1.
    9900012    2    1    2    0    0  0.16115167651E+02  0.29195514221E+01  0.90806130281E+01  0.72461549671E+02  0.69999973135E+02 0.  0.
        -12    1    1    2    0    0 -0.16115167651E+02 -0.29195514221E+01 -0.90806130281E+01  0.18726450329E+02  0.00000000000E+00 0.  1.
         11    1    3    3    0    0  0.21632898712E+02 -0.61129615774E+01  0.94790588637E+01  0.24396785918E+02  0.51100000000E-03 0. -1.
        -11    1    3    3    0    0 -0.58838056581E+01  0.84857000893E+01  0.22709789809E+02  0.24947160730E+02  0.51100000000E-03 0.  1.
        -12    1    3    3    0    0  0.36607459793E+00  0.54681291018E+00 -0.23108235645E+02  0.23117603024E+02  0.00000000000E+00 0.  1.
</event>
<event>
 7    1  0.2809593E-013  0.7246155E+02  0.7816164E-02  0.1226708E+00
        -11   -1    0    0    0    0  0.00000000000E+00  0.00000000000E+00  0.45593999997E+02  0.45594000000E+02  0.51100000000E-03 0.  1.
         11   -1    0    0    0    0 -0.00000000000E+00 -0.00000000000E+00 -0.45593999997E+02  0.45594000000E+02  0.51100000000E-03 0. -1.
    9900012    2    1    2    0    0  0.14675389091E+02  0.80606572271E+01 -0.83868053838E+01  0.72461554944E+02  0.69999980003E+02 0.  0.
        -12    1    1    2    0    0 -0.14675389091E+02 -0.80606572271E+01  0.83868053838E+01  0.18726445056E+02  0.00000000000E+00 0.  1.
         11    1    3    3    0    0 -0.96202419087E+00 -0.24857098363E+01 -0.19090217266E+01  0.32785069998E+01  0.51100000000E-03 0. -1.
        -11    1    3    3    0    0  0.15261862948E+02  0.20422997661E+02 -0.32523206106E+02  0.41325321896E+02  0.51100000000E-03 0.  1.
        -12    1    3    3    0    0  0.37555033311E+00 -0.98766305977E+01  0.26045422449E+02  0.27857726048E+02  0.00000000000E+00 0.  1.
</event>
<event>
 7    1  0.2809593E-013  0.7246154E+02  0.7816164E-02  0.1226708E+00
        -11   -1    0    0    0    0  0.00000000000E+00  0.00000000000E+00  0.45593999997E+02  0.45594000000E+02  0.51100000000E-03 0.  1.
         11   -1    0    0    0    0 -0.00000000000E+00 -0.00000000000E+00 -0.45593999997E+02  0.45594000000E+02  0.51100000000E-03 0. -1.
    9900012    2    1    2    0    0  0.13592573897E+02 -0.10421528785E+02 -0.75705909842E+01  0.72461543442E+02  0.69999965020E+02 0.  0.
        -12    1    1    2    0    0 -0.13592573897E+02  0.10421528785E+02  0.75705909842E+01  0.18726456558E+02  0.00000000000E+00 0.  1.
         11    1    3    3    0    0 -0.93367726623E+01 -0.15618603039E+02 -0.21999338199E+02  0.28549727951E+02  0.51100000000E-03 0. -1.
        -11    1    3    3    0    0 -0.41133487156E+01 -0.74268782486E+01 -0.34027401035E+01  0.91464090576E+01  0.51100000000E-03 0.  1.
        -12    1    3    3    0    0  0.27042695275E+02  0.12623952502E+02  0.17831487318E+02  0.34765406434E+02  0.00000000000E+00 0.  1.
</event>
<event>
 7    1  0.2809593E-013  0.7246149E+02  0.7816164E-02  0.1226708E+00
        -11   -1    0    0    0    0  0.00000000000E+00  0.00000000000E+00  0.45593999997E+02  0.45594000000E+02  0.51100000000E-03 0. -1.
         11   -1    0    0    0    0 -0.00000000000E+00 -0.00000000000E+00 -0.45593999997E+02  0.45594000000E+02  0.51100000000E-03 0.  1.
    9900012    2    1    2    0    0 -0.12999228193E+02  0.95594226590E+01  0.95036666416E+01  0.72461490052E+02  0.69999895470E+02 0.  0.
        -12    1    1    2    0    0  0.12999228193E+02 -0.95594226590E+01 -0.95036666416E+01  0.18726509948E+02  0.00000000000E+00 0.  1.
         11    1    3    3    0    0  0.98451819497E+01  0.84145797186E+00 -0.54553707101E+01  0.11287015947E+02  0.51100000000E-03 0. -1.
        -11    1    3    3    0    0 -0.10212679792E+02  0.48348328868E+01 -0.20458699824E+02  0.23371624598E+02  0.51100000000E-03 0.  1.
         12    1    3    3    0    0 -0.12631730350E+02  0.38831318004E+01  0.35417737176E+02  0.37802849507E+02  0.00000000000E+00 0. -1.
</event>
<event>
 7    1  0.2809593E-013  0.7246157E+02  0.7816164E-02  0.1226708E+00
        -11   -1    0    0    0    0  0.00000000000E+00  0.00000000000E+00  0.45593999997E+02  0.45594000000E+02  0.51100000000E-03 0.  1.
         11   -1    0    0    0    0 -0.00000000000E+00 -0.00000000000E+00 -0.45593999997E+02  0.45594000000E+02  0.51100000000E-03 0. -1.
    9900012    2    1    2    0    0 -0.85975951065E+01  0.20116905365E+01 -0.16514046932E+02  0.72461567171E+02  0.69999995932E+02 0.  0.
        -12    1    1    2    0    0  0.85975951065E+01 -0.20116905365E+01  0.16514046932E+02  0.18726432829E+02  0.00000000000E+00 0.  1.
         11    1    3    3    0    0 -0.18153968353E+01  0.66043461286E+01 -0.22235892376E+02  0.23266885556E+02  0.51100000000E-03 0. -1.
        -11    1    3    3    0    0 -0.12823749110E+02  0.19424336334E+02  0.72604661380E+01  0.24381709375E+02  0.51100000000E-03 0.  1.
         12    1    3    3    0    0  0.60415508383E+01 -0.24016991927E+02 -0.15386206934E+01  0.24812972240E+02  0.00000000000E+00 0. -1.
</event>
<event>
 7    1  0.2809593E-013  0.7246156E+02  0.7816164E-02  0.1226708E+00
        -11   -1    0    0    0    0  0.00000000000E+00  0.00000000000E+00  0.45593999997E+02  0.45594000000E+02  0.51100000000E-03 0. -1.
         11   -1    0    0    0    0 -0.00000000000E+00 -0.00000000000E+00 -0.45593999997E+02  0.45594000000E+02  0.51100000000E-03 0.  1.
    9900012    2    1    2    0    0  0.17148250487E+02 -0.74864042174E+01  0.75555702585E+00  0.72461558552E+02  0.69999984704E+02 0.  0.
        -12    1    1    2    0    0 -0.17148250487E+02  0.74864042174E+01 -0.75555702585E+00  0.18726441448E+02  0.00000000000E+00 0.  1.
         11    1    3    3    0    0  0.31307855342E+02  0.73004656561E+01  0.25090935621E+01  0.32245529235E+02  0.51100000000E-03 0. -1.
        -11    1    3    3    0    0  0.10994033823E+02 -0.66824236228E+00 -0.27545545269E+01  0.11353541230E+02  0.51100000000E-03 0.  1.
        -12    1    3    3    0    0 -0.25153638678E+02 -0.14118627511E+02  0.10010179906E+01  0.28862488087E+02  0.00000000000E+00 0.  1.
</event>
<event>
 7    1  0.2809593E-013  0.7246190E+02  0.7816164E-02  0.1226707E+00
        -11   -1    0    0    0    0  0.00000000000E+00  0.00000000000E+00  0.45593999997E+02  0.45594000000E+02  0.51100000000E-03 0. -1.
         11   -1    0    0    0    0 -0.00000000000E+00 -0.00000000000E+00 -0.45593999997E+02  0.45594000000E+02  0.51100000000E-03 0.  1.
    9900012    2    1    2    0    0  0.87412419707E+00  0.23236672589E+01  0.18560803642E+02  0.72461896441E+02  0.70000424866E+02 0.  0.
        -12    1    1    2    0    0 -0.87412419707E+00 -0.23236672589E+01 -0.18560803642E+02  0.18726103559E+02  0.00000000000E+00 0.  1.
         11    1    3    3    0    0  0.12664804348E+00 -0.19191048972E+01 -0.61889483164E+01  0.64809015466E+01  0.51100000000E-03 0. -1.
        -11    1    3    3    0    0  0.41289764919E+01 -0.24706505309E+02 -0.36177031369E+01  0.25309042410E+02  0.51100000000E-03 0.  1.
         12    1    3    3    0    0 -0.33815003383E+01  0.28949277466E+02  0.28367455095E+02  0.40671952485E+02  0.00000000000E+00 0. -1.
</event>
<event>
 7    1  0.2809593E-013  0.7246151E+02  0.7816164E-02  0.1226708E+00
        -11   -1    0    0    0    0  0.00000000000E+00  0.00000000000E+00  0.45593999997E+02  0.45594000000E+02  0.51100000000E-03 0.  1.
         11   -1    0    0    0    0 -0.00000000000E+00 -0.00000000000E+00 -0.45593999997E+02  0.45594000000E+02  0.51100000000E-03 0. -1.
    9900012    2    1    2    0    0 -0.13385123142E+02  0.70821884059E+01  0.11016458318E+02  0.72461514264E+02  0.69999927010E+02 0.  0.
        -12    1    1    2    0    0  0.13385123142E+02 -0.70821884059E+01 -0.11016458318E+02  0.18726485736E+02  0.00000000000E+00 0.  1.
         11    1    3    3    0    0 -0.23601483632E+02  0.20392489148E+02  0.97060689652E+01  0.32666365245E+02  0.51100000000E-03 0. -1.
        -11    1    3    3    0    0  0.18622462215E+02  0.46028273799E+01 -0.33328375336E+01  0.19470231769E+02  0.51100000000E-03 0.  1.
         12    1    3    3    0    0 -0.84061017249E+01 -0.17913128122E+02  0.46432268867E+01  0.20324917251E+02  0.00000000000E+00 0. -1.
</event>
<event>
 7    1  0.2809593E-013  0.7246155E+02  0.7816164E-02  0.1226708E+00
        -11   -1    0    0    0    0  0.00000000000E+00  0.00000000000E+00  0.45593999997E+02  0.45594000000E+02  0.51100000000E-03 0. -1.
         11   -1    0    0    0    0 -0.00000000000E+00 -0.00000000000E+00 -0.45593999997E+02  0.45594000000E+02  0.51100000000E-03 0.  1.
    9900012    2    1    2    0    0 -0.97014671432E+01 -0.13642452068E+02  0.83931512524E+01  0.72461549426E+02  0.69999972815E+02 0.  0.
        -12    1    1    2    0    0  0.97014671432E+01  0.13642452068E+02 -0.83931512524E+01  0.18726450574E+02  0.00000000000E+00 0.  1.
         11    1    3    3    0    0 -0.10050271304E+02 -0.29548342069E+02 -0.11126336409E+02  0.33134692310E+02  0.51100000000E-03 0. -1.
        -11    1    3    3    0    0 -0.10125955895E+02  0.16180635034E+02  0.23767153038E+01  0.19235298511E+02  0.51100000000E-03 0.  1.
         12    1    3    3    0    0  0.10474760056E+02 -0.27474503402E+00  0.17142772358E+02  0.20091558605E+02  0.00000000000E+00 0. -1.
</event>
<event>
 7    1  0.2809593E-013  0.7246161E+02  0.7816164E-02  0.1226708E+00
        -11   -1    0    0    0    0  0.00000000000E+00  0.00000000000E+00  0.45593999997E+02  0.45594000000E+02  0.51100000000E-03 0. -1.
         11   -1    0    0    0    0 -0.00000000000E+00 -0.00000000000E+00 -0.45593999997E+02  0.45594000000E+02  0.51100000000E-03 0.  1.
    9900012    2    1    2    0    0  0.26590555961E+01  0.12097859110E+02  0.14044536604E+02  0.72461607391E+02  0.70000048325E+02 0.  0.
        -12    1    1    2    0    0 -0.26590555961E+01 -0.12097859110E+02 -0.14044536604E+02  0.18726392609E+02  0.00000000000E+00 0.  1.
         11    1    3    3    0    0  0.82416677773E+00 -0.38781440898E+01  0.12067655758E+02  0.12702266263E+02  0.51100000000E-03 0. -1.
        -11    1    3    3    0    0  0.24259915198E+02 -0.73336394195E+01  0.85603622330E+01  0.26750804742E+02  0.51100000000E-03 0.  1.
        -12    1    3    3    0    0 -0.22425026379E+02  0.23309642619E+02 -0.65834813871E+01  0.33008536386E+02  0.00000000000E+00 0.  1.
</event>
<event>
 7    1  0.2809593E-013  0.7246143E+02  0.7816164E-02  0.1226708E+00
        -11   -1    0    0    0    0  0.00000000000E+00  0.00000000000E+00  0.45593999997E+02  0.45594000000E+02  0.51100000000E-03 0. -1.
         11   -1    0    0    0    0 -0.00000000000E+00 -0.00000000000E+00 -0.45593999997E+02  0.45594000000E+02  0.51100000000E-03 0.  1.
    9900012    2    1    2    0    0  0.17392212537E+02  0.49144095589E+01  0.49034439792E+01  0.72461434883E+02  0.69999823601E+02 0.  0.
        -12    1    1    2    0    0 -0.17392212537E+02 -0.49144095589E+01 -0.49034439792E+01  0.18726565117E+02  0.00000000000E+00 0.  1.
         11    1    3    3    0    0 -0.25260666294E+01  0.68560072683E+01 -0.81745104783E+00  0.73521476288E+01  0.51100000000E-03 0. -1.
        -11    1    3    3    0    0 -0.16822064351E+02 -0.18048201456E+02  0.71725960591E+00  0.24682663682E+02  0.51100000000E-03 0.  1.
         12    1    3    3    0    0  0.36740343517E+02  0.16106603747E+02  0.50036354212E+01  0.40426623572E+02  0.00000000000E+00 0. -1.
</event>
<event>
 7    1  0.2809593E-013  0.7246161E+02  0.7816164E-02  0.1226708E+00
        -11   -1    0    0    0    0  0.00000000000E+00  0.00000000000E+00  0.45593999997E+02  0.45594000000E+02  0.51100000000E-03 0. -1.
         11   -1    0    0    0    0 -0.00000000000E+00 -0.00000000000E+00 -0.45593999997E+02  0.45594000000E+02  0.51100000000E-03 0.  1.
    9900012    2    1    2    0    0  0.62763541297E+01 -0.15592065954E+02 -0.82566636518E+01  0.72461611226E+02  0.70000053321E+02 0.  0.
        -12    1    1    2    0    0 -0.62763541297E+01  0.15592065954E+02  0.82566636518E+01  0.18726388774E+02  0.00000000000E+00 0.  1.
         11    1    3    3    0    0 -0.48696553530E+01 -0.19129593512E+02  0.24771565233E+02  0.31674679723E+02  0.51100000000E-03 0. -1.
        -11    1    3    3    0    0 -0.12459591406E+01 -0.28405796851E+01  0.15776534817E+01  0.34799853300E+01  0.51100000000E-03 0.  1.
        -12    1    3    3    0    0  0.12391968623E+02  0.63781072433E+01 -0.34605882367E+02  0.37306946173E+02  0.00000000000E+00 0.  1.
</event>
<event>
 7    1  0.2809593E-013  0.7246157E+02  0.7816164E-02  0.1226708E+00
        -11   -1    0    0    0    0  0.00000000000E+00  0.00000000000E+00  0.45593999997E+02  0.45594000000E+02  0.51100000000E-03 0. -1.
         11   -1    0    0    0    0 -0.00000000000E+00 -0.00000000000E+00 -0.45593999997E+02  0.45594000000E+02  0.51100000000E-03 0.  1.
    9900012    2    1    2    0    0 -0.66114025595E+01 -0.48833948266E+01  0.16826204628E+02  0.72461565448E+02  0.69999993687E+02 0.  0.
        -12    1    1    2    0    0  0.66114025595E+01  0.48833948266E+01 -0.16826204628E+02  0.18726434552E+02  0.00000000000E+00 0.  1.
         11    1    3    3    0    0 -0.16024694342E+01  0.11287840111E+02  0.25097173633E+02  0.27565401635E+02  0.51100000000E-03 0. -1.
        -11    1    3    3    0    0 -0.13046181640E+02  0.65578855712E+01 -0.13877724656E+02  0.20144477169E+02  0.51100000000E-03 0.  1.
        -12    1    3    3    0    0  0.80372485143E+01 -0.22729120509E+02  0.56067556515E+01  0.24751686644E+02  0.00000000000E+00 0.  1.
</event>
<event>
 7    1  0.2809593E-013  0.7246155E+02  0.7816164E-02  0.1226708E+00
        -11   -1    0    0    0    0  0.00000000000E+00  0.00000000000E+00  0.45593999997E+02  0.45594000000E+02  0.51100000000E-03 0. -1.
         11   -1    0    0    0    0 -0.00000000000E+00 -0.00000000000E+00 -0.45593999997E+02  0.45594000000E+02  0.51100000000E-03 0.  1.
    9900012    2    1    2    0    0  0.16000611817E+02  0.66536559440E+01  0.70985278684E+01  0.72461553091E+02  0.69999977590E+02 0.  0.
        -12    1    1    2    0    0 -0.16000611817E+02 -0.66536559440E+01 -0.70985278684E+01  0.18726446909E+02  0.00000000000E+00 0.  1.
         11    1    3    3    0    0  0.35284082889E+02  0.27882925387E+00  0.29222552057E+01  0.35405985749E+02  0.51100000000E-03 0. -1.
        -11    1    3    3    0    0  0.71920934580E+01  0.72318923503E+01 -0.23124866519E+00  0.10201958218E+02  0.51100000000E-03 0.  1.
        -12    1    3    3    0    0 -0.26475564531E+02 -0.85706566014E+00  0.44075213279E+01  0.26853609125E+02  0.00000000000E+00 0.  1.
</event>
<event>
 7    1  0.2809593E-013  0.7246158E+02  0.7816164E-02  0.1226708E+00
        -11   -1    0    0    0    0  0.00000000000E+00  0.00000000000E+00  0.45593999997E+02  0.45594000000E+02  0.51100000000E-03 0. -1.
         11   -1    0    0    0    0 -0.00000000000E+00 -0.00000000000E+00 -0.45593999997E+02  0.45594000000E+02  0.51100000000E-03 0.  1.
    9900012    2    1    2    0    0 -0.10010471925E+02  0.15208128333E+02  0.43797555931E+01  0.72461575499E+02  0.70000006779E+02 0.  0.
        -12    1    1    2    0    0  0.10010471925E+02 -0.15208128333E+02 -0.43797555931E+01  0.18726424501E+02  0.00000000000E+00 0.  1.
         11    1    3    3    0    0  0.90770603518E+01 -0.53991315316E+01  0.43921694768E+01  0.11438304022E+02  0.51100000000E-03 0. -1.
        -11    1    3    3    0    0 -0.22489207768E+02 -0.11888816586E+02  0.92406245512E+01  0.27064692279E+02  0.51100000000E-03 0.  1.
         12    1    3    3    0    0  0.34016754910E+01  0.32496076450E+02 -0.92530384350E+01  0.33958579197E+02  0.00000000000E+00 0. -1.
</event>
<event>
 7    1  0.2809593E-013  0.7246158E+02  0.7816164E-02  0.1226708E+00
        -11   -1    0    0    0    0  0.00000000000E+00  0.00000000000E+00  0.45593999997E+02  0.45594000000E+02  0.51100000000E-03 0.  1.
         11   -1    0    0    0    0 -0.00000000000E+00 -0.00000000000E+00 -0.45593999997E+02  0.45594000000E+02  0.51100000000E-03 0. -1.
    9900012    2    1    2    0    0 -0.50154430580E+01 -0.18041236140E+02  0.19515050287E+00  0.72461576043E+02  0.70000007488E+02 0.  0.
        -12    1    1    2    0    0  0.50154430580E+01  0.18041236140E+02 -0.19515050287E+00  0.18726423957E+02  0.00000000000E+00 0.  1.
         11    1    3    3    0    0  0.12752682080E+02 -0.23371800639E+02  0.57788264041E+01  0.27244573775E+02  0.51100000000E-03 0. -1.
        -11    1    3    3    0    0 -0.12754419810E+02  0.96804822049E+00  0.17227778425E+02  0.21457136150E+02  0.51100000000E-03 0.  1.
         12    1    3    3    0    0 -0.50137053282E+01  0.43625162783E+01 -0.22811454327E+02  0.23759866117E+02  0.00000000000E+00 0. -1.
</event>
<event>
 7    1  0.2809593E-013  0.7246157E+02  0.7816164E-02  0.1226708E+00
        -11   -1    0    0    0    0  0.00000000000E+00  0.00000000000E+00  0.45593999997E+02  0.45594000000E+02  0.51100000000E-03 0.  1.
         11   -1    0    0    0    0 -0.00000000000E+00 -0.00000000000E+00 -0.45593999997E+02  0.45594000000E+02  0.51100000000E-03 0. -1.
    9900012    2    1    2    0    0  0.25806728019E+01  0.47509270296E+01 -0.17928970310E+02  0.72461570652E+02  0.70000000466E+02 0.  0.
        -12    1    1    2    0    0 -0.25806728019E+01 -0.47509270296E+01  0.17928970310E+02  0.18726429348E+02  0.00000000000E+00 0.  1.
         11    1    3    3    0    0 -0.22590335280E+02  0.90377536324E+01 -0.18078463300E+02  0.30312292463E+02  0.51100000000E-03 0. -1.
        -11    1    3    3    0    0  0.86339136814E+01  0.11710014834E+02 -0.93097675113E+01  0.17272541337E+02  0.51100000000E-03 0.  1.
         12    1    3    3    0    0  0.16537094401E+02 -0.15996841437E+02  0.94592605014E+01  0.24876736852E+02  0.00000000000E+00 0. -1.
</event>
<event>
 7    1  0.2809593E-013  0.7246160E+02  0.7816164E-02  0.1226708E+00
        -11   -1    0    0    0    0  0.00000000000E+00  0.00000000000E+00  0.45593999997E+02  0.45594000000E+02  0.51100000000E-03 0.  1.
         11   -1    0    0    0    0 -0.00000000000E+00 -0.00000000000E+00 -0.45593999997E+02  0.45594000000E+02  0.51100000000E-03 0. -1.
    9900012    2    1    2    0    0  0.13588935569E+02 -0.10519230961E+02 -0.74407489098E+01  0.72461597937E+02  0.70000036009E+02 0.  0.
        -12    1    1    2    0    0 -0.13588935569E+02  0.10519230961E+02  0.74407489098E+01  0.18726402063E+02  0.00000000000E+00 0.  1.
         11    1    3    3    0    0  0.25107111510E+02 -0.11409783935E+02 -0.14103803023E+02  0.30975272037E+02  0.51100000000E-03 0.  1.
        -11    1    3    3    0    0  0.29789881740E+01 -0.15957543917E+02  0.99169529380E+01  0.19022711012E+02  0.51100000000E-03 0. -1.
         12    1    3    3    0    0 -0.14497164115E+02  0.16848096892E+02 -0.32538988245E+01  0.22463614887E+02  0.00000000000E+00 0. -1.
</event>
<event>
 7    1  0.2809593E-013  0.7246159E+02  0.7816164E-02  0.1226708E+00
        -11   -1    0    0    0    0  0.00000000000E+00  0.00000000000E+00  0.45593999997E+02  0.45594000000E+02  0.51100000000E-03 0.  1.
         11   -1    0    0    0    0 -0.00000000000E+00 -0.00000000000E+00 -0.45593999997E+02  0.45594000000E+02  0.51100000000E-03 0. -1.
    9900012    2    1    2    0    0 -0.50119658582E+01  0.17584626094E+02 -0.40422435510E+01  0.72461585245E+02  0.70000019477E+02 0.  0.
        -12    1    1    2    0    0  0.50119658582E+01 -0.17584626094E+02  0.40422435510E+01  0.18726414755E+02  0.00000000000E+00 0.  1.
         11    1    3    3    0    0  0.14977828404E+02 -0.30319632213E+01 -0.10114672830E+02  0.18325794700E+02  0.51100000000E-03 0. -1.
        -11    1    3    3    0    0 -0.21590939254E+01 -0.12718149927E+02 -0.63032353868E+01  0.14357708757E+02  0.51100000000E-03 0.  1.
         12    1    3    3    0    0 -0.17830700336E+02  0.33334739242E+02  0.12375664666E+02  0.39778081789E+02  0.00000000000E+00 0. -1.
</event>
<event>
 7    1  0.2809593E-013  0.7246159E+02  0.7816164E-02  0.1226708E+00
        -11   -1    0    0    0    0  0.00000000000E+00  0.00000000000E+00  0.45593999997E+02  0.45594000000E+02  0.51100000000E-03 0. -1.
         11   -1    0    0    0    0 -0.00000000000E+00 -0.00000000000E+00 -0.45593999997E+02  0.45594000000E+02  0.51100000000E-03 0.  1.
    9900012    2    1    2    0    0  0.46236204948E+01 -0.98645821511E+01  0.15231239325E+02  0.72461588201E+02  0.70000023327E+02 0.  0.
        -12    1    1    2    0    0 -0.46236204948E+01  0.98645821511E+01 -0.15231239325E+02  0.18726411799E+02  0.00000000000E+00 0.  1.
         11    1    3    3    0    0 -0.21641742205E+01 -0.16797949927E+02  0.18388881250E+02  0.25000114514E+02  0.51100000000E-03 0. -1.
        -11    1    3    3    0    0 -0.14222324704E+02  0.15336823117E+02  0.77952212980E+01  0.22321696590E+02  0.51100000000E-03 0.  1.
        -12    1    3    3    0    0  0.21010119420E+02 -0.84034553410E+01 -0.10952863223E+02  0.25139777097E+02  0.00000000000E+00 0.  1.
</event>
<event>
 7    1  0.2809593E-013  0.7246155E+02  0.7816164E-02  0.1226708E+00
        -11   -1    0    0    0    0  0.00000000000E+00  0.00000000000E+00  0.45593999997E+02  0.45594000000E+02  0.51100000000E-03 0. -1.
         11   -1    0    0    0    0 -0.00000000000E+00 -0.00000000000E+00 -0.45593999997E+02  0.45594000000E+02  0.51100000000E-03 0.  1.
    9900012    2    1    2    0    0 -0.15952703677E+02  0.40500842693E+01  0.89324178561E+01  0.72461547427E+02  0.69999970212E+02 0.  0.
        -12    1    1    2    0    0  0.15952703677E+02 -0.40500842693E+01 -0.89324178561E+01  0.18726452573E+02  0.00000000000E+00 0.  1.
         11    1    3    3    0    0 -0.75340558684E+01 -0.23539302919E+02 -0.24505472134E+01  0.24836786460E+02  0.51100000000E-03 0. -1.
        -11    1    3    3    0    0  0.13473520516E+02  0.84625082332E+01  0.94148318147E+01  0.18487532530E+02  0.51100000000E-03 0.  1.
         12    1    3    3    0    0 -0.21892168325E+02  0.19126878955E+02  0.19681332548E+01  0.29137228438E+02  0.00000000000E+00 0. -1.
</event>
<event>
 7    1  0.2809593E-013  0.7246156E+02  0.7816164E-02  0.1226708E+00
        -11   -1    0    0    0    0  0.00000000000E+00  0.00000000000E+00  0.45593999997E+02  0.45594000000E+02  0.51100000000E-03 0.  1.
         11   -1    0    0    0    0 -0.00000000000E+00 -0.00000000000E+00 -0.45593999997E+02  0.45594000000E+02  0.51100000000E-03 0. -1.
    9900012    2    1    2    0    0 -0.33621381921E+01 -0.93904177473E+01 -0.15849153953E+02  0.72461558808E+02  0.69999985037E+02 0.  0.
        -12    1    1    2    0    0  0.33621381921E+01  0.93904177473E+01  0.15849153953E+02  0.18726441192E+02  0.00000000000E+00 0.  1.
         11    1    3    3    0    0  0.11152320570E+02 -0.62157887336E+01 -0.28212597399E+02  0.30967094406E+02  0.51100000000E-03 0. -1.
        -11    1    3    3    0    0  0.34545619013E+01  0.33326423016E+01 -0.10589708853E+02  0.11626798205E+02  0.51100000000E-03 0.  1.
        -12    1    3    3    0    0 -0.17969020664E+02 -0.65072713152E+01  0.22953152299E+02  0.29867666197E+02  0.00000000000E+00 0.  1.
</event>
<event>
 7    1  0.2809593E-013  0.7246151E+02  0.7816164E-02  0.1226708E+00
        -11   -1    0    0    0    0  0.00000000000E+00  0.00000000000E+00  0.45593999997E+02  0.45594000000E+02  0.51100000000E-03 0. -1.
         11   -1    0    0    0    0 -0.00000000000E+00 -0.00000000000E+00 -0.45593999997E+02  0.45594000000E+02  0.51100000000E-03 0.  1.
    9900012    2    1    2    0    0  0.49987049107E+01  0.36535717750E+01  0.17673309094E+02  0.72461508288E+02  0.69999919225E+02 0.  0.
        -12    1    1    2    0    0 -0.49987049107E+01 -0.36535717750E+01 -0.17673309094E+02  0.18726491712E+02  0.00000000000E+00 0.  1.
         11    1    3    3    0    0 -0.99671778218E+01  0.66346928372E+01  0.36137820846E+01  0.12506926241E+02  0.51100000000E-03 0. -1.
        -11    1    3    3    0    0  0.60933677807E+01  0.45768062416E+01 -0.21353624204E+02  0.22672749132E+02  0.51100000000E-03 0.  1.
         12    1    3    3    0    0  0.88725149517E+01 -0.75579273038E+01  0.35413151213E+02  0.37281832916E+02  0.00000000000E+00 0. -1.
</event>
<event>
 7    1  0.2809593E-013  0.7246148E+02  0.7816164E-02  0.1226708E+00
        -11   -1    0    0    0    0  0.00000000000E+00  0.00000000000E+00  0.45593999997E+02  0.45594000000E+02  0.51100000000E-03 0.  1.
         11   -1    0    0    0    0 -0.00000000000E+00 -0.00000000000E+00 -0.45593999997E+02  0.45594000000E+02  0.51100000000E-03 0. -1.
    9900012    2    1    2    0    0  0.78428994064E+01  0.43714036729E+00 -0.16999427492E+02  0.72461476088E+02  0.69999877278E+02 0.  0.
        -12    1    1    2    0    0 -0.78428994064E+01 -0.43714036729E+00  0.16999427492E+02  0.18726523912E+02  0.00000000000E+00 0.  1.
         11    1    3    3    0    0  0.95939688168E+01  0.43358049927E+01 -0.12204603521E+02  0.16118181968E+02  0.51100000000E-03 0. -1.
        -11    1    3    3    0    0  0.96885686690E+01 -0.15225918994E+02  0.19899858189E+02  0.26864499404E+02  0.51100000000E-03 0.  1.
         12    1    3    3    0    0 -0.11439638079E+02  0.11327254368E+02 -0.24694682159E+02  0.29478794715E+02  0.00000000000E+00 0. -1.
</event>
<event>
 7    1  0.2809593E-013  0.7246158E+02  0.7816164E-02  0.1226708E+00
        -11   -1    0    0    0    0  0.00000000000E+00  0.00000000000E+00  0.45593999997E+02  0.45594000000E+02  0.51100000000E-03 0.  1.
         11   -1    0    0    0    0 -0.00000000000E+00 -0.00000000000E+00 -0.45593999997E+02  0.45594000000E+02  0.51100000000E-03 0. -1.
    9900012    2    1    2    0    0  0.74679559135E+00 -0.94509369211E+01 -0.16149333249E+02  0.72461578112E+02  0.70000010184E+02 0.  0.
        -12    1    1    2    0    0 -0.74679559135E+00  0.94509369211E+01  0.16149333249E+02  0.18726421888E+02  0.00000000000E+00 0.  1.
         11    1    3    3    0    0  0.35267253112E+01 -0.66859639114E+01 -0.36541318458E+01  0.83959862227E+01  0.51100000000E-03 0. -1.
        -11    1    3    3    0    0  0.25687104419E+02 -0.14030312062E+02 -0.15819499360E+02  0.33270610909E+02  0.51100000000E-03 0.  1.
         12    1    3    3    0    0 -0.28467034139E+02  0.11265339052E+02  0.33242979568E+01  0.30794980980E+02  0.00000000000E+00 0. -1.
</event>
<event>
 7    1  0.2809593E-013  0.7246157E+02  0.7816164E-02  0.1226708E+00
        -11   -1    0    0    0    0  0.00000000000E+00  0.00000000000E+00  0.45593999997E+02  0.45594000000E+02  0.51100000000E-03 0.  1.
         11   -1    0    0    0    0 -0.00000000000E+00 -0.00000000000E+00 -0.45593999997E+02  0.45594000000E+02  0.51100000000E-03 0. -1.
    9900012    2    1    2    0    0  0.82271082635E+00  0.13777885593E+02 -0.12655913017E+02  0.72461571648E+02  0.70000001764E+02 0.  0.
        -12    1    1    2    0    0 -0.82271082635E+00 -0.13777885593E+02  0.12655913017E+02  0.18726428352E+02  0.00000000000E+00 0.  1.
         11    1    3    3    0    0  0.73524013491E+01  0.26699849109E+02  0.45508060557E+01  0.28065095475E+02  0.51100000000E-03 0. -1.
        -11    1    3    3    0    0  0.73982920109E+01  0.88539206460E+01  0.26048721477E+01  0.11828440077E+02  0.51100000000E-03 0.  1.
        -12    1    3    3    0    0 -0.13927982534E+02 -0.21775884161E+02 -0.19811591220E+02  0.32568036096E+02  0.00000000000E+00 0.  1.
</event>
<event>
 7    1  0.2809593E-013  0.7246166E+02  0.7816164E-02  0.1226708E+00
        -11   -1    0    0    0    0  0.00000000000E+00  0.00000000000E+00  0.45593999997E+02  0.45594000000E+02  0.51100000000E-03 0. -1.
         11   -1    0    0    0    0 -0.00000000000E+00 -0.00000000000E+00 -0.45593999997E+02  0.45594000000E+02  0.51100000000E-03 0.  1.
    9900012    2    1    2    0    0  0.15678349887E+02 -0.61465053727E+01  0.81905911122E+01  0.72461655823E+02  0.70000111417E+02 0.  0.
        -12    1    1    2    0    0 -0.15678349887E+02  0.61465053727E+01 -0.81905911122E+01  0.18726344177E+02  0.00000000000E+00 0.  1.
         11    1    3    3    0    0  0.12787159438E+02  0.75583617449E+01  0.27110093417E+02  0.30912739188E+02  0.51100000000E-03 0. -1.
        -11    1    3    3    0    0 -0.10137740136E+01  0.92839876555E+01  0.27300944430E+01  0.97300349674E+01  0.51100000000E-03 0.  1.
         12    1    3    3    0    0  0.39049644621E+01 -0.22988854773E+02 -0.21649596748E+02  0.31818881667E+02  0.00000000000E+00 0. -1.
</event>
<event>
 7    1  0.2809593E-013  0.7246139E+02  0.7816164E-02  0.1226709E+00
        -11   -1    0    0    0    0  0.00000000000E+00  0.00000000000E+00  0.45593999997E+02  0.45594000000E+02  0.51100000000E-03 0.  1.
         11   -1    0    0    0    0 -0.00000000000E+00 -0.00000000000E+00 -0.45593999997E+02  0.45594000000E+02  0.51100000000E-03 0. -1.
    9900012    2    1    2    0    0 -0.44630347600E+01  0.16746641523E+02 -0.70934752400E+01  0.72461385982E+02  0.69999759899E+02 0.  0.
        -12    1    1    2    0    0  0.44630347600E+01 -0.16746641523E+02  0.70934752400E+01  0.18726614018E+02  0.00000000000E+00 0.  1.
         11    1    3    3    0    0  0.37483454580E+01  0.12804238786E+02  0.11605322550E+02  0.17682820372E+02  0.51100000000E-03 0. -1.
        -11    1    3    3    0    0 -0.16731089489E+02  0.11864499851E+02  0.10719737569E+02  0.23143216847E+02  0.51100000000E-03 0.  1.
         12    1    3    3    0    0  0.85197092712E+01 -0.79220971139E+01 -0.29418535359E+02  0.31635348763E+02  0.00000000000E+00 0. -1.
</event>
<event>
 7    1  0.2809593E-013  0.7246161E+02  0.7816164E-02  0.1226708E+00
        -11   -1    0    0    0    0  0.00000000000E+00  0.00000000000E+00  0.45593999997E+02  0.45594000000E+02  0.51100000000E-03 0. -1.
         11   -1    0    0    0    0 -0.00000000000E+00 -0.00000000000E+00 -0.45593999997E+02  0.45594000000E+02  0.51100000000E-03 0.  1.
    9900012    2    1    2    0    0 -0.15505986660E+02 -0.68027884729E+01 -0.79977502482E+01  0.72461613206E+02  0.70000055901E+02 0.  0.
        -12    1    1    2    0    0  0.15505986660E+02  0.68027884729E+01  0.79977502482E+01  0.18726386794E+02  0.00000000000E+00 0.  1.
         11    1    3    3    0    0  0.67953594037E+01 -0.82971521646E+01  0.10111068194E+02  0.14739516401E+02  0.51100000000E-03 0. -1.
        -11    1    3    3    0    0 -0.16038848725E+02 -0.23366517557E+02 -0.44998153206E+01  0.28696465799E+02  0.51100000000E-03 0.  1.
         12    1    3    3    0    0 -0.62624973385E+01  0.24860881248E+02 -0.13609003122E+02  0.29025631006E+02  0.00000000000E+00 0. -1.
</event>
<event>
 7    1  0.2809593E-013  0.7246151E+02  0.7816164E-02  0.1226708E+00
        -11   -1    0    0    0    0  0.00000000000E+00  0.00000000000E+00  0.45593999997E+02  0.45594000000E+02  0.51100000000E-03 0. -1.
         11   -1    0    0    0    0 -0.00000000000E+00 -0.00000000000E+00 -0.45593999997E+02  0.45594000000E+02  0.51100000000E-03 0.  1.
    9900012    2    1    2    0    0 -0.12922275437E+02  0.86769403664E+01  0.10411860629E+02  0.72461512386E+02  0.69999924564E+02 0.  0.
        -12    1    1    2    0    0  0.12922275437E+02 -0.86769403664E+01 -0.10411860629E+02  0.18726487614E+02  0.00000000000E+00 0.  1.
         11    1    3    3    0    0 -0.20642696614E+02 -0.10145741750E+02 -0.67093123729E+01  0.23959796992E+02  0.51100000000E-03 0. -1.
        -11    1    3    3    0    0  0.58342123337E+01 -0.12601078339E+02  0.57741938584E+01  0.15038833859E+02  0.51100000000E-03 0.  1.
         12    1    3    3    0    0  0.18862088425E+01  0.31423760455E+02  0.11346979143E+02  0.33462881535E+02  0.00000000000E+00 0. -1.
</event>
<event>
 7    1  0.2809593E-013  0.7246157E+02  0.7816164E-02  0.1226708E+00
        -11   -1    0    0    0    0  0.00000000000E+00  0.00000000000E+00  0.45593999997E+02  0.45594000000E+02  0.51100000000E-03 0.  1.
         11   -1    0    0    0    0 -0.00000000000E+00 -0.00000000000E+00 -0.45593999997E+02  0.45594000000E+02  0.51100000000E-03 0. -1.
    9900012    2    1    2    0    0 -0.94064736983E+01 -0.63016902594E+01 -0.14915972656E+02  0.72461567135E+02  0.69999995885E+02 0.  0.
        -12    1    1    2    0    0  0.94064736983E+01  0.63016902594E+01  0.14915972656E+02  0.18726432865E+02  0.00000000000E+00 0.  1.
         11    1    3    3    0    0  0.25733880373E+02 -0.74006788881E+00 -0.14477656644E+02  0.29536127737E+02  0.51100000000E-03 0. -1.
        -11    1    3    3    0    0 -0.50162679456E+01 -0.36377269344E+01  0.93287247578E+01  0.11199156541E+02  0.51100000000E-03 0.  1.
        -12    1    3    3    0    0 -0.30124086126E+02 -0.19238954362E+01 -0.97670407697E+01  0.31726282858E+02  0.00000000000E+00 0.  1.
</event>
<event>
 7    1  0.2809593E-013  0.7246158E+02  0.7816164E-02  0.1226708E+00
        -11   -1    0    0    0    0  0.00000000000E+00  0.00000000000E+00  0.45593999997E+02  0.45594000000E+02  0.51100000000E-03 0.  1.
         11   -1    0    0    0    0 -0.00000000000E+00 -0.00000000000E+00 -0.45593999997E+02  0.45594000000E+02  0.51100000000E-03 0. -1.
    9900012    2    1    2    0    0  0.11274322817E+02  0.23730080412E+01 -0.14762695998E+02  0.72461582423E+02  0.70000015800E+02 0.  0.
        -12    1    1    2    0    0 -0.11274322817E+02 -0.23730080412E+01  0.14762695998E+02  0.18726417577E+02  0.00000000000E+00 0.  1.
         11    1    3    3    0    0 -0.42101829985E+01 -0.52336954629E+01  0.63633553075E+00  0.67470091336E+01  0.51100000000E-03 0. -1.
        -11    1    3    3    0    0 -0.20796943018E+02 -0.81328564380E+01 -0.13556084882E+02  0.26123239277E+02  0.51100000000E-03 0.  1.
         12    1    3    3    0    0  0.36281448833E+02  0.15739559942E+02 -0.18429466473E+01  0.39591334013E+02  0.00000000000E+00 0. -1.
</event>
<event>
 7    1  0.2809593E-013  0.7246157E+02  0.7816164E-02  0.1226708E+00
        -11   -1    0    0    0    0  0.00000000000E+00  0.00000000000E+00  0.45593999997E+02  0.45594000000E+02  0.51100000000E-03 0. -1.
         11   -1    0    0    0    0 -0.00000000000E+00 -0.00000000000E+00 -0.45593999997E+02  0.45594000000E+02  0.51100000000E-03 0.  1.
    9900012    2    1    2    0    0 -0.94051710664E+01  0.93775950292E+01  0.13201618174E+02  0.72461568046E+02  0.69999997071E+02 0.  0.
        -12    1    1    2    0    0  0.94051710664E+01 -0.93775950292E+01 -0.13201618174E+02  0.18726431954E+02  0.00000000000E+00 0.  1.
         11    1    3    3    0    0 -0.35828788327E+01 -0.18722215530E+01 -0.36041828660E+01  0.54159365456E+01  0.51100000000E-03 0. -1.
        -11    1    3    3    0    0 -0.26052329710E+01  0.29003543890E+01 -0.24486534003E+02  0.24794951949E+02  0.51100000000E-03 0.  1.
         12    1    3    3    0    0 -0.32170592627E+01  0.83494621933E+01  0.41292335043E+02  0.42250679551E+02  0.00000000000E+00 0. -1.
</event>
<event>
 7    1  0.2809593E-013  0.7246157E+02  0.7816164E-02  0.1226708E+00
        -11   -1    0    0    0    0  0.00000000000E+00  0.00000000000E+00  0.45593999997E+02  0.45594000000E+02  0.51100000000E-03 0.  1.
         11   -1    0    0    0    0 -0.00000000000E+00 -0.00000000000E+00 -0.45593999997E+02  0.45594000000E+02  0.51100000000E-03 0. -1.
    9900012    2    1    2    0    0  0.49033120791E+01  0.18553954092E+01 -0.17977599888E+02  0.72461573240E+02  0.70000003837E+02 0.  0.
        -12    1    1    2    0    0 -0.49033120791E+01 -0.18553954092E+01  0.17977599888E+02  0.18726426760E+02  0.00000000000E+00 0.  1.
         11    1    3    3    0    0 -0.24624097116E+02 -0.69812925752E+00 -0.44395578087E+01  0.25030845313E+02  0.51100000000E-03 0. -1.
        -11    1    3    3    0    0 -0.51799106919E+01  0.44854352844E+01  0.45697121038E+01  0.82360714809E+01  0.51100000000E-03 0.  1.
        -12    1    3    3    0    0  0.34707319887E+02 -0.19319106177E+01 -0.18107754183E+02  0.39194656446E+02  0.00000000000E+00 0.  1.
</event>
<event>
 7    1  0.2809593E-013  0.7246161E+02  0.7816164E-02  0.1226708E+00
        -11   -1    0    0    0    0  0.00000000000E+00  0.00000000000E+00  0.45593999997E+02  0.45594000000E+02  0.51100000000E-03 0.  1.
         11   -1    0    0    0    0 -0.00000000000E+00 -0.00000000000E+00 -0.45593999997E+02  0.45594000000E+02  0.51100000000E-03 0. -1.
    9900012    2    1    2    0    0  0.24320091294E+01 -0.77202353912E+01 -0.16886711153E+02  0.72461609091E+02  0.70000050540E+02 0.  0.
        -12    1    1    2    0    0 -0.24320091294E+01  0.77202353912E+01  0.16886711153E+02  0.18726390909E+02  0.00000000000E+00 0.  1.
         11    1    3    3    0    0 -0.97285511812E+01 -0.30137086451E+01 -0.25208771140E+02  0.27188403604E+02  0.51100000000E-03 0. -1.
        -11    1    3    3    0    0 -0.84721940121E+01  0.50293855137E+01 -0.11434274154E+02  0.15093555437E+02  0.51100000000E-03 0.  1.
        -12    1    3    3    0    0  0.20632754323E+02 -0.97359122598E+01  0.19756334141E+02  0.30179650050E+02  0.00000000000E+00 0.  1.
</event>
<event>
 7    1  0.2809593E-013  0.7246164E+02  0.7816164E-02  0.1226708E+00
        -11   -1    0    0    0    0  0.00000000000E+00  0.00000000000E+00  0.45593999997E+02  0.45594000000E+02  0.51100000000E-03 0. -1.
         11   -1    0    0    0    0 -0.00000000000E+00 -0.00000000000E+00 -0.45593999997E+02  0.45594000000E+02  0.51100000000E-03 0.  1.
    9900012    2    1    2    0    0 -0.16004660478E+02  0.94377480540E+01 -0.23358599694E+01  0.72461641915E+02  0.70000093299E+02 0.  0.
        -12    1    1    2    0    0  0.16004660478E+02 -0.94377480540E+01  0.23358599694E+01  0.18726358085E+02  0.00000000000E+00 0.  1.
         11    1    3    3    0    0 -0.87147933290E+01 -0.37995592305E+01 -0.23160776652E+02  0.25036090919E+02  0.51100000000E-03 0. -1.
        -11    1    3    3    0    0 -0.39080662481E+01  0.11546622907E+02 -0.10368870586E+02  0.16003467119E+02  0.51100000000E-03 0.  1.
         12    1    3    3    0    0 -0.33818009007E+01  0.16906843779E+01  0.31193787268E+02  0.31422083877E+02  0.00000000000E+00 0. -1.
</event>
<event>
 7    1  0.2809593E-013  0.7246151E+02  0.7816164E-02  0.1226708E+00
        -11   -1    0    0    0    0  0.00000000000E+00  0.00000000000E+00  0.45593999997E+02  0.45594000000E+02  0.51100000000E-03 0.  1.
         11   -1    0    0    0    0 -0.00000000000E+00 -0.00000000000E+00 -0.45593999997E+02  0.45594000000E+02  0.51100000000E-03 0. -1.
    9900012    2    1    2    0    0  0.16013090255E+02  0.45908975260E+01 -0.85548766654E+01  0.72461513027E+02  0.69999925398E+02 0.  0.
        -12    1    1    2    0    0 -0.16013090255E+02 -0.45908975260E+01  0.85548766654E+01  0.18726486973E+02  0.00000000000E+00 0.  1.
         11    1    3    3    0    0  0.73487626363E+01  0.11727692327E+02  0.10607229339E+02  0.17437212912E+02  0.51100000000E-03 0. -1.
        -11    1    3    3    0    0  0.27333404672E+00  0.10179177068E+02  0.13623904229E+02  0.17008854282E+02  0.51100000000E-03 0.  1.
         12    1    3    3    0    0  0.83909935716E+01 -0.17315971869E+02 -0.32786010233E+02  0.38015445834E+02  0.00000000000E+00 0. -1.
</event>
<event>
 7    1  0.2809593E-013  0.7246154E+02  0.7816164E-02  0.1226708E+00
        -11   -1    0    0    0    0  0.00000000000E+00  0.00000000000E+00  0.45593999997E+02  0.45594000000E+02  0.51100000000E-03 0.  1.
         11   -1    0    0    0    0 -0.00000000000E+00 -0.00000000000E+00 -0.45593999997E+02  0.45594000000E+02  0.51100000000E-03 0. -1.
    9900012    2    1    2    0    0  0.10821646939E+02 -0.96271752408E+01 -0.11869692919E+02  0.72461543966E+02  0.69999965702E+02 0.  0.
        -12    1    1    2    0    0 -0.10821646939E+02  0.96271752408E+01  0.11869692919E+02  0.18726456034E+02  0.00000000000E+00 0.  1.
         11    1    3    3    0    0  0.12199005533E+02 -0.17785868359E+01 -0.19982618402E+02  0.23479440913E+02  0.51100000000E-03 0. -1.
        -11    1    3    3    0    0 -0.12211728984E+02 -0.23042357159E+02  0.13759356942E+02  0.29485529535E+02  0.51100000000E-03 0.  1.
         12    1    3    3    0    0  0.10834370391E+02  0.15193768754E+02 -0.56464314587E+01  0.19496573518E+02  0.00000000000E+00 0. -1.
</event>
<event>
 7    1  0.2809593E-013  0.7246156E+02  0.7816164E-02  0.1226708E+00
        -11   -1    0    0    0    0  0.00000000000E+00  0.00000000000E+00  0.45593999997E+02  0.45594000000E+02  0.51100000000E-03 0. -1.
         11   -1    0    0    0    0 -0.00000000000E+00 -0.00000000000E+00 -0.45593999997E+02  0.45594000000E+02  0.51100000000E-03 0.  1.
    9900012    2    1    2    0    0 -0.10930710776E+02  0.15122681580E+02  0.15822724024E+01  0.72461560878E+02  0.69999987733E+02 0.  0.
        -12    1    1    2    0    0  0.10930710776E+02 -0.15122681580E+02 -0.15822724024E+01  0.18726439122E+02  0.00000000000E+00 0.  1.
         11    1    3    3    0    0  0.37488680658E+01  0.27408531423E+02  0.15321536858E+02  0.31623268308E+02  0.51100000000E-03 0. -1.
        -11    1    3    3    0    0  0.77092696413E+00  0.97312950495E+01  0.15730116172E+01  0.98877094180E+01  0.51100000000E-03 0.  1.
        -12    1    3    3    0    0 -0.15450505806E+02 -0.22017144893E+02 -0.15312276073E+02  0.30950583151E+02  0.00000000000E+00 0.  1.
</event>
<event>
 7    1  0.2809593E-013  0.7246150E+02  0.7816164E-02  0.1226708E+00
        -11   -1    0    0    0    0  0.00000000000E+00  0.00000000000E+00  0.45593999997E+02  0.45594000000E+02  0.51100000000E-03 0. -1.
         11   -1    0    0    0    0 -0.00000000000E+00 -0.00000000000E+00 -0.45593999997E+02  0.45594000000E+02  0.51100000000E-03 0.  1.
    9900012    2    1    2    0    0  0.14570417078E+01 -0.68675468592E+01  0.17360746303E+02  0.72461503195E+02  0.69999912590E+02 0.  0.
        -12    1    1    2    0    0 -0.14570417078E+01  0.68675468592E+01 -0.17360746303E+02  0.18726496805E+02  0.00000000000E+00 0.  1.
         11    1    3    3    0    0  0.26444411404E+02  0.13103467248E+02  0.10010985749E+02  0.31164524452E+02  0.51100000000E-03 0. -1.
        -11    1    3    3    0    0 -0.21188645654E+00 -0.12407157343E+02 -0.39682458823E+01  0.13028024595E+02  0.51100000000E-03 0.  1.
        -12    1    3    3    0    0 -0.24775483239E+02 -0.75638567642E+01  0.11318006437E+02  0.28268954147E+02  0.00000000000E+00 0.  1.
</event>
<event>
 7    1  0.2809593E-013  0.7246157E+02  0.7816164E-02  0.1226708E+00
        -11   -1    0    0    0    0  0.00000000000E+00  0.00000000000E+00  0.45593999997E+02  0.45594000000E+02  0.51100000000E-03 0. -1.
         11   -1    0    0    0    0 -0.00000000000E+00 -0.00000000000E+00 -0.45593999997E+02  0.45594000000E+02  0.51100000000E-03 0.  1.
    9900012    2    1    2    0    0 -0.39865030792E+01  0.48797399620E+00  0.18290681632E+02  0.72461565209E+02  0.69999993375E+02 0.  0.
        -12    1    1    2    0    0  0.39865030792E+01 -0.48797399620E+00 -0.18290681632E+02  0.18726434791E+02  0.00000000000E+00 0.  1.
         11    1    3    3    0    0  0.21733417491E+02  0.16906224975E+02  0.11960354386E+02  0.30020192472E+02  0.51100000000E-03 0. -1.
        -11    1    3    3    0    0 -0.26297753588E+01 -0.12017044742E+02  0.13109646592E+02  0.17977427981E+02  0.51100000000E-03 0.  1.
        -12    1    3    3    0    0 -0.23090145212E+02 -0.44012062366E+01 -0.67793193455E+01  0.24463944756E+02  0.00000000000E+00 0.  1.
</event>
<event>
 7    1  0.2809593E-013  0.7246155E+02  0.7816164E-02  0.1226708E+00
        -11   -1    0    0    0    0  0.00000000000E+00  0.00000000000E+00  0.45593999997E+02  0.45594000000E+02  0.51100000000E-03 0. -1.
         11   -1    0    0    0    0 -0.00000000000E+00 -0.00000000000E+00 -0.45593999997E+02  0.45594000000E+02  0.51100000000E-03 0.  1.
    9900012    2    1    2    0    0  0.11477801676E+01 -0.15058093014E+02  0.11073225807E+02  0.72461550943E+02  0.69999974791E+02 0.  0.
        -12    1    1    2    0    0 -0.11477801676E+01  0.15058093014E+02 -0.11073225807E+02  0.18726449057E+02  0.00000000000E+00 0.  1.
         11    1    3    3    0    0  0.17856436591E+02 -0.17195564124E+02 -0.95872281979E+01  0.26579215527E+02  0.51100000000E-03 0. -1.
        -11    1    3    3    0    0  0.10992746563E+02  0.11546419312E+01  0.13121529632E+02  0.17156579354E+02  0.51100000000E-03 0.  1.
         12    1    3    3    0    0 -0.27701402986E+02  0.98282917849E+00  0.75389243727E+01  0.28725756061E+02  0.00000000000E+00 0. -1.
</event>
<event>
 7    1  0.2809593E-013  0.7246157E+02  0.7816164E-02  0.1226708E+00
        -11   -1    0    0    0    0  0.00000000000E+00  0.00000000000E+00  0.45593999997E+02  0.45594000000E+02  0.51100000000E-03 0.  1.
         11   -1    0    0    0    0 -0.00000000000E+00 -0.00000000000E+00 -0.45593999997E+02  0.45594000000E+02  0.51100000000E-03 0. -1.
    9900012    2    1    2    0    0 -0.82653647730E+01 -0.13050622901E+02 -0.10585085873E+02  0.72461573329E+02  0.70000003953E+02 0.  0.
        -12    1    1    2    0    0  0.82653647730E+01  0.13050622901E+02  0.10585085873E+02  0.18726426671E+02  0.00000000000E+00 0.  1.
         11    1    3    3    0    0  0.74928262169E+01  0.20218219751E+02 -0.54456003205E+01  0.22239006672E+02  0.51100000000E-03 0. -1.
        -11    1    3    3    0    0 -0.17319040330E+02 -0.88084731677E+01  0.95470763269E+01  0.21649134489E+02  0.51100000000E-03 0.  1.
        -12    1    3    3    0    0  0.15608493397E+01 -0.24460369485E+02 -0.14686561879E+02  0.28573432168E+02  0.00000000000E+00 0.  1.
</event>
<event>
 7    1  0.2809593E-013  0.7246145E+02  0.7816164E-02  0.1226708E+00
        -11   -1    0    0    0    0  0.00000000000E+00  0.00000000000E+00  0.45593999997E+02  0.45594000000E+02  0.51100000000E-03 0.  1.
         11   -1    0    0    0    0 -0.00000000000E+00 -0.00000000000E+00 -0.45593999997E+02  0.45594000000E+02  0.51100000000E-03 0. -1.
    9900012    2    1    2    0    0  0.62029902492E+00 -0.11485264967E+02 -0.14777937501E+02  0.72461454162E+02  0.69999848716E+02 0.  0.
        -12    1    1    2    0    0 -0.62029902492E+00  0.11485264967E+02  0.14777937501E+02  0.18726545838E+02  0.00000000000E+00 0.  1.
         11    1    3    3    0    0  0.25658915020E+01 -0.11286373589E+02 -0.37893184396E+02  0.39621451915E+02  0.51100000000E-03 0. -1.
        -11    1    3    3    0    0  0.10457211036E+02  0.16536509492E+01  0.84627847439E+01  0.13553838939E+02  0.51100000000E-03 0.  1.
        -12    1    3    3    0    0 -0.12402803513E+02 -0.18525423265E+01  0.14652462150E+02  0.19286163307E+02  0.00000000000E+00 0.  1.
</event>
<event>
 7    1  0.2809593E-013  0.7246151E+02  0.7816164E-02  0.1226708E+00
        -11   -1    0    0    0    0  0.00000000000E+00  0.00000000000E+00  0.45593999997E+02  0.45594000000E+02  0.51100000000E-03 0.  1.
         11   -1    0    0    0    0 -0.00000000000E+00 -0.00000000000E+00 -0.45593999997E+02  0.45594000000E+02  0.51100000000E-03 0. -1.
    9900012    2    1    2    0    0 -0.14156474955E+02 -0.12179367171E+02 -0.13923468471E+01  0.72461510804E+02  0.69999922503E+02 0.  0.
        -12    1    1    2    0    0  0.14156474955E+02  0.12179367171E+02  0.13923468471E+01  0.18726489196E+02  0.00000000000E+00 0.  1.
         11    1    3    3    0    0 -0.10636076062E+02  0.23056856813E+01  0.13366499253E+01  0.10964895519E+02  0.51100000000E-03 0. -1.
        -11    1    3    3    0    0  0.22758513397E+02 -0.21348212623E+02  0.81301898549E+01  0.32245869527E+02  0.51100000000E-03 0.  1.
         12    1    3    3    0    0 -0.26278912290E+02  0.68631597705E+01 -0.10859186627E+02  0.29250745758E+02  0.00000000000E+00 0. -1.
</event>
<event>
 7    1  0.2809593E-013  0.7246158E+02  0.7816164E-02  0.1226708E+00
        -11   -1    0    0    0    0  0.00000000000E+00  0.00000000000E+00  0.45593999997E+02  0.45594000000E+02  0.51100000000E-03 0.  1.
         11   -1    0    0    0    0 -0.00000000000E+00 -0.00000000000E+00 -0.45593999997E+02  0.45594000000E+02  0.51100000000E-03 0. -1.
    9900012    2    1    2    0    0 -0.58398625061E+01  0.13318482718E+02 -0.11798000239E+02  0.72461580544E+02  0.70000013352E+02 0.  0.
        -12    1    1    2    0    0  0.58398625061E+01 -0.13318482718E+02  0.11798000239E+02  0.18726419456E+02  0.00000000000E+00 0.  1.
         11    1    3    3    0    0 -0.12856467310E+01  0.18180657027E+01 -0.12260806246E+02  0.12461365113E+02  0.51100000000E-03 0. -1.
        -11    1    3    3    0    0  0.19480618765E+02  0.44464925258E+01 -0.19537835463E+02  0.27946248730E+02  0.51100000000E-03 0.  1.
        -12    1    3    3    0    0 -0.24034834540E+02  0.70539244896E+01  0.20000641469E+02  0.32053966701E+02  0.00000000000E+00 0.  1.
</event>
<event>
 7    1  0.2809593E-013  0.7246178E+02  0.7816164E-02  0.1226707E+00
        -11   -1    0    0    0    0  0.00000000000E+00  0.00000000000E+00  0.45593999997E+02  0.45594000000E+02  0.51100000000E-03 0. -1.
         11   -1    0    0    0    0 -0.00000000000E+00 -0.00000000000E+00 -0.45593999997E+02  0.45594000000E+02  0.51100000000E-03 0.  1.
    9900012    2    1    2    0    0 -0.11433340432E+02 -0.11477322332E+02  0.93926005641E+01  0.72461784506E+02  0.70000279050E+02 0.  0.
        -12    1    1    2    0    0  0.11433340432E+02  0.11477322332E+02 -0.93926005641E+01  0.18726215494E+02  0.00000000000E+00 0.  1.
         11    1    3    3    0    0 -0.21484063707E+02  0.71782290911E+01 -0.77382772412E+01  0.23936852365E+02  0.51100000000E-03 0. -1.
        -11    1    3    3    0    0 -0.13417363945E+02  0.76403420002E+00 -0.27450936731E+00  0.13441903108E+02  0.51100000000E-03 0.  1.
         12    1    3    3    0    0  0.23468087220E+02 -0.19419585623E+02  0.17405387173E+02  0.35083029033E+02  0.00000000000E+00 0. -1.
</event>
<event>
 7    1  0.2809593E-013  0.7246157E+02  0.7816164E-02  0.1226708E+00
        -11   -1    0    0    0    0  0.00000000000E+00  0.00000000000E+00  0.45593999997E+02  0.45594000000E+02  0.51100000000E-03 0. -1.
         11   -1    0    0    0    0 -0.00000000000E+00 -0.00000000000E+00 -0.45593999997E+02  0.45594000000E+02  0.51100000000E-03 0.  1.
    9900012    2    1    2    0    0 -0.16268001590E+02  0.26056376540E+01  0.89017999556E+01  0.72461567725E+02  0.69999996652E+02 0.  0.
        -12    1    1    2    0    0  0.16268001590E+02 -0.26056376540E+01 -0.89017999556E+01  0.18726432275E+02  0.00000000000E+00 0.  1.
         11    1    3    3    0    0 -0.86309916830E+01 -0.27913281600E+01  0.10159678547E+02  0.13620007297E+02  0.51100000000E-03 0. -1.
        -11    1    3    3    0    0 -0.23892558898E+02  0.18986132061E+02 -0.14571882582E+02  0.33818151096E+02  0.51100000000E-03 0.  1.
         12    1    3    3    0    0  0.16255548991E+02 -0.13589166247E+02  0.13314003990E+02  0.25023409331E+02  0.00000000000E+00 0. -1.
</event>
<event>
 7    1  0.2809593E-013  0.7246154E+02  0.7816164E-02  0.1226708E+00
        -11   -1    0    0    0    0  0.00000000000E+00  0.00000000000E+00  0.45593999997E+02  0.45594000000E+02  0.51100000000E-03 0.  1.
         11   -1    0    0    0    0 -0.00000000000E+00 -0.00000000000E+00 -0.45593999997E+02  0.45594000000E+02  0.51100000000E-03 0. -1.
    9900012    2    1    2    0    0 -0.16310407708E+02 -0.91935711389E+01 -0.35915346211E+00  0.72461544353E+02  0.69999966207E+02 0.  0.
        -12    1    1    2    0    0  0.16310407708E+02  0.91935711389E+01  0.35915346211E+00  0.18726455647E+02  0.00000000000E+00 0.  1.
         11    1    3    3    0    0 -0.41101908199E+01 -0.29595834032E+01 -0.20060142751E+02  0.20689662393E+02  0.51100000000E-03 0. -1.
        -11    1    3    3    0    0 -0.17008541792E+02 -0.21984510272E+02  0.21590103846E+02  0.35195763525E+02  0.51100000000E-03 0.  1.
         12    1    3    3    0    0  0.48083249035E+01  0.15750522536E+02 -0.18891145570E+01  0.16576118435E+02  0.00000000000E+00 0. -1.
</event>
<event>
 7    1  0.2809593E-013  0.7246150E+02  0.7816164E-02  0.1226708E+00
        -11   -1    0    0    0    0  0.00000000000E+00  0.00000000000E+00  0.45593999997E+02  0.45594000000E+02  0.51100000000E-03 0.  1.
         11   -1    0    0    0    0 -0.00000000000E+00 -0.00000000000E+00 -0.45593999997E+02  0.45594000000E+02  0.51100000000E-03 0. -1.
    9900012    2    1    2    0    0 -0.68807762267E+01  0.14455743424E+02 -0.97143289173E+01  0.72461500441E+02  0.69999909002E+02 0.  0.
        -12    1    1    2    0    0  0.68807762267E+01 -0.14455743424E+02  0.97143289173E+01  0.18726499559E+02  0.00000000000E+00 0.  1.
         11    1    3    3    0    0 -0.43078550240E+01 -0.55118692998E+01  0.60594587029E+01  0.92550179967E+01  0.51100000000E-03 0. -1.
        -11    1    3    3    0    0  0.87528873492E+01  0.76614162588E+01  0.20326854442E+02  0.23419892139E+02  0.51100000000E-03 0.  1.
         12    1    3    3    0    0 -0.11325808552E+02  0.12306196465E+02 -0.36100642062E+02  0.39786590305E+02  0.00000000000E+00 0. -1.
</event>
<event>
 7    1  0.2809593E-013  0.7246153E+02  0.7816164E-02  0.1226708E+00
        -11   -1    0    0    0    0  0.00000000000E+00  0.00000000000E+00  0.45593999997E+02  0.45594000000E+02  0.51100000000E-03 0.  1.
         11   -1    0    0    0    0 -0.00000000000E+00 -0.00000000000E+00 -0.45593999997E+02  0.45594000000E+02  0.51100000000E-03 0. -1.
    9900012    2    1    2    0    0 -0.90353370690E+01 -0.12117640385E+01 -0.16357716945E+02  0.72461532322E+02  0.69999950535E+02 0.  0.
        -12    1    1    2    0    0  0.90353370690E+01  0.12117640385E+01  0.16357716945E+02  0.18726467678E+02  0.00000000000E+00 0.  1.
         11    1    3    3    0    0 -0.81355463235E+01  0.39986568536E+01 -0.15975104363E+02  0.18367915785E+02  0.51100000000E-03 0. -1.
        -11    1    3    3    0    0 -0.25045069907E+02 -0.26121621030E+01  0.10749056783E+02  0.27379209987E+02  0.51100000000E-03 0.  1.
         12    1    3    3    0    0  0.24145279161E+02 -0.25982587890E+01 -0.11131669365E+02  0.26714406551E+02  0.00000000000E+00 0. -1.
</event>
<event>
 7    1  0.2809593E-013  0.7246166E+02  0.7816164E-02  0.1226708E+00
        -11   -1    0    0    0    0  0.00000000000E+00  0.00000000000E+00  0.45593999997E+02  0.45594000000E+02  0.51100000000E-03 0. -1.
         11   -1    0    0    0    0 -0.00000000000E+00 -0.00000000000E+00 -0.45593999997E+02  0.45594000000E+02  0.51100000000E-03 0.  1.
    9900012    2    1    2    0    0 -0.10385547923E+02  0.71140945245E+01  0.13863836577E+02  0.72461657293E+02  0.70000113332E+02 0.  0.
        -12    1    1    2    0    0  0.10385547923E+02 -0.71140945245E+01 -0.13863836577E+02  0.18726342707E+02  0.00000000000E+00 0.  1.
         11    1    3    3    0    0 -0.19493163262E+02  0.15738252729E+02  0.17911880313E+02  0.30797913396E+02  0.51100000000E-03 0. -1.
        -11    1    3    3    0    0 -0.90587600082E+01 -0.13774071106E+02  0.89322946711E+01  0.18750254827E+02  0.51100000000E-03 0.  1.
        -12    1    3    3    0    0  0.18166375348E+02  0.51499129020E+01 -0.12980338408E+02  0.22913489070E+02  0.00000000000E+00 0.  1.
</event>
<event>
 7    1  0.2809593E-013  0.7246156E+02  0.7816164E-02  0.1226708E+00
        -11   -1    0    0    0    0  0.00000000000E+00  0.00000000000E+00  0.45593999997E+02  0.45594000000E+02  0.51100000000E-03 0.  1.
         11   -1    0    0    0    0 -0.00000000000E+00 -0.00000000000E+00 -0.45593999997E+02  0.45594000000E+02  0.51100000000E-03 0. -1.
    9900012    2    1    2    0    0 -0.29658781579E+01  0.93422657801E+01 -0.15956357270E+02  0.72461556118E+02  0.69999981532E+02 0.  0.
        -12    1    1    2    0    0  0.29658781579E+01 -0.93422657801E+01  0.15956357270E+02  0.18726443882E+02  0.00000000000E+00 0.  1.
         11    1    3    3    0    0  0.61153798955E+01 -0.11880804173E+02 -0.13918082000E+01  0.13434601199E+02  0.51100000000E-03 0. -1.
        -11    1    3    3    0    0 -0.52884816514E+01 -0.13582576044E+02  0.87147750932E+01  0.16982394276E+02  0.51100000000E-03 0.  1.
         12    1    3    3    0    0 -0.37927764020E+01  0.34805645997E+02 -0.23279324163E+02  0.42044560642E+02  0.00000000000E+00 0. -1.
</event>
<event>
 7    1  0.2809593E-013  0.7246159E+02  0.7816164E-02  0.1226708E+00
        -11   -1    0    0    0    0  0.00000000000E+00  0.00000000000E+00  0.45593999997E+02  0.45594000000E+02  0.51100000000E-03 0.  1.
         11   -1    0    0    0    0 -0.00000000000E+00 -0.00000000000E+00 -0.45593999997E+02  0.45594000000E+02  0.51100000000E-03 0. -1.
    9900012    2    1    2    0    0  0.52126025422E+01 -0.13241511451E+02 -0.12172486251E+02  0.72461594250E+02  0.70000031207E+02 0.  0.
        -12    1    1    2    0    0 -0.52126025422E+01  0.13241511451E+02  0.12172486251E+02  0.18726405750E+02  0.00000000000E+00 0.  1.
         11    1    3    3    0    0 -0.12831960389E+02 -0.81497198185E+01 -0.74142317613E+01  0.16912952830E+02  0.51100000000E-03 0. -1.
        -11    1    3    3    0    0 -0.16438402114E+02 -0.22846580231E+01 -0.11643118890E+02  0.20273207543E+02  0.51100000000E-03 0.  1.
        -12    1    3    3    0    0  0.34482965045E+02 -0.28071336098E+01  0.68848644003E+01  0.35275433877E+02  0.00000000000E+00 0.  1.
</event>
<event>
 7    1  0.2809593E-013  0.7246154E+02  0.7816164E-02  0.1226708E+00
        -11   -1    0    0    0    0  0.00000000000E+00  0.00000000000E+00  0.45593999997E+02  0.45594000000E+02  0.51100000000E-03 0.  1.
         11   -1    0    0    0    0 -0.00000000000E+00 -0.00000000000E+00 -0.45593999997E+02  0.45594000000E+02  0.51100000000E-03 0. -1.
    9900012    2    1    2    0    0 -0.10048805330E+02  0.12985390747E+02 -0.90045319046E+01  0.72461535939E+02  0.69999955246E+02 0.  0.
        -12    1    1    2    0    0  0.10048805330E+02 -0.12985390747E+02  0.90045319046E+01  0.18726464061E+02  0.00000000000E+00 0.  1.
         11    1    3    3    0    0  0.17780893911E+02 -0.91131148307E+01 -0.12338784805E+02  0.23483071795E+02  0.51100000000E-03 0. -1.
        -11    1    3    3    0    0  0.63193503719E+01  0.18300060811E+01  0.63622353916E+01  0.91521118229E+01  0.51100000000E-03 0.  1.
        -12    1    3    3    0    0 -0.34149049613E+02  0.20268499496E+02 -0.30279824909E+01  0.39826352322E+02  0.00000000000E+00 0.  1.
</event>
<event>
 7    1  0.2809593E-013  0.7246155E+02  0.7816164E-02  0.1226708E+00
        -11   -1    0    0    0    0  0.00000000000E+00  0.00000000000E+00  0.45593999997E+02  0.45594000000E+02  0.51100000000E-03 0. -1.
         11   -1    0    0    0    0 -0.00000000000E+00 -0.00000000000E+00 -0.45593999997E+02  0.45594000000E+02  0.51100000000E-03 0.  1.
    9900012    2    1    2    0    0  0.18195689770E+02  0.43854184572E+01  0.60400502095E+00  0.72461552304E+02  0.69999976564E+02 0.  0.
        -12    1    1    2    0    0 -0.18195689770E+02 -0.43854184572E+01 -0.60400502095E+00  0.18726447696E+02  0.00000000000E+00 0.  1.
         11    1    3    3    0    0 -0.13308631864E+01 -0.65294819584E+01  0.24902966917E+01  0.71138533398E+01  0.51100000000E-03 0. -1.
        -11    1    3    3    0    0 -0.19840521598E+02 -0.75573114457E+01 -0.47921893689E+01  0.21765209229E+02  0.51100000000E-03 0.  1.
         12    1    3    3    0    0  0.39367074555E+02  0.18472211861E+02  0.29058976981E+01  0.43582489735E+02  0.00000000000E+00 0. -1.
</event>
<event>
 7    1  0.2809593E-013  0.7246143E+02  0.7816164E-02  0.1226708E+00
        -11   -1    0    0    0    0  0.00000000000E+00  0.00000000000E+00  0.45593999997E+02  0.45594000000E+02  0.51100000000E-03 0. -1.
         11   -1    0    0    0    0 -0.00000000000E+00 -0.00000000000E+00 -0.45593999997E+02  0.45594000000E+02  0.51100000000E-03 0.  1.
    9900012    2    1    2    0    0  0.55762204130E+00 -0.14915750326E+02  0.11309018890E+02  0.72461429081E+02  0.69999816043E+02 0.  0.
        -12    1    1    2    0    0 -0.55762204130E+00  0.14915750326E+02 -0.11309018890E+02  0.18726570919E+02  0.00000000000E+00 0.  1.
         11    1    3    3    0    0 -0.14267053905E+02  0.82059894728E+01  0.27050509207E+00  0.16460870682E+02  0.51100000000E-03 0. -1.
        -11    1    3    3    0    0  0.28780453419E+01 -0.11868047145E+02 -0.18524283443E+02  0.22187446121E+02  0.51100000000E-03 0.  1.
         12    1    3    3    0    0  0.11946630604E+02 -0.11253692654E+02  0.29562797242E+02  0.33813112278E+02  0.00000000000E+00 0. -1.
</event>
<event>
 7    1  0.2809593E-013  0.7246157E+02  0.7816164E-02  0.1226708E+00
        -11   -1    0    0    0    0  0.00000000000E+00  0.00000000000E+00  0.45593999997E+02  0.45594000000E+02  0.51100000000E-03 0. -1.
         11   -1    0    0    0    0 -0.00000000000E+00 -0.00000000000E+00 -0.45593999997E+02  0.45594000000E+02  0.51100000000E-03 0.  1.
    9900012    2    1    2    0    0  0.12701360905E+01  0.11268546440E+02  0.14902545458E+02  0.72461568261E+02  0.69999997351E+02 0.  0.
        -12    1    1    2    0    0 -0.12701360905E+01 -0.11268546440E+02 -0.14902545458E+02  0.18726431739E+02  0.00000000000E+00 0.  1.
         11    1    3    3    0    0  0.26807025059E+01  0.13752065624E+01 -0.45735527449E+01  0.54767457478E+01  0.51100000000E-03 0. -1.
        -11    1    3    3    0    0  0.59729117840E+01 -0.41704972674E+01 -0.21679284651E+02  0.22870507338E+02  0.51100000000E-03 0.  1.
         12    1    3    3    0    0 -0.73834781995E+01  0.14063837145E+02  0.41155382854E+02  0.44114315175E+02  0.00000000000E+00 0. -1.
</event>
<event>
 7    1  0.2809593E-013  0.7246177E+02  0.7816164E-02  0.1226707E+00
        -11   -1    0    0    0    0  0.00000000000E+00  0.00000000000E+00  0.45593999997E+02  0.45594000000E+02  0.51100000000E-03 0.  1.
         11   -1    0    0    0    0 -0.00000000000E+00 -0.00000000000E+00 -0.45593999997E+02  0.45594000000E+02  0.51100000000E-03 0. -1.
    9900012    2    1    2    0    0  0.14025384888E+01 -0.94231429950E+01 -0.16121696938E+02  0.72461765720E+02  0.70000254578E+02 0.  0.
        -12    1    1    2    0    0 -0.14025384888E+01  0.94231429950E+01  0.16121696938E+02  0.18726234280E+02  0.00000000000E+00 0.  1.
         11    1    3    3    0    0 -0.67575393423E+01 -0.16497371340E+02 -0.95665044360E+01  0.20232291182E+02  0.51100000000E-03 0. -1.
        -11    1    3    3    0    0  0.73191774221E+00 -0.11798306376E+02  0.17277866104E+02  0.20934669672E+02  0.51100000000E-03 0.  1.
        -12    1    3    3    0    0  0.74281600889E+01  0.18872534721E+02 -0.23833058606E+02  0.31294804866E+02  0.00000000000E+00 0.  1.
</event>
<event>
 7    1  0.2809593E-013  0.7246195E+02  0.7816164E-02  0.1226707E+00
        -11   -1    0    0    0    0  0.00000000000E+00  0.00000000000E+00  0.45593999997E+02  0.45594000000E+02  0.51100000000E-03 0.  1.
         11   -1    0    0    0    0 -0.00000000000E+00 -0.00000000000E+00 -0.45593999997E+02  0.45594000000E+02  0.51100000000E-03 0. -1.
    9900012    2    1    2    0    0  0.28942439330E+01  0.17748928549E+02 -0.52214933614E+01  0.72461945811E+02  0.70000489178E+02 0.  0.
        -12    1    1    2    0    0 -0.28942439330E+01 -0.17748928549E+02  0.52214933614E+01  0.18726054189E+02  0.00000000000E+00 0.  1.
         11    1    3    3    0    0  0.42689823294E+01  0.39303964224E+01 -0.20912713406E+02  0.21702852541E+02  0.51100000000E-03 0. -1.
        -11    1    3    3    0    0  0.16653445631E+02 -0.84631814742E+01  0.11107114936E+02  0.21733170374E+02  0.51100000000E-03 0.  1.
         12    1    3    3    0    0 -0.18028184027E+02  0.22281713600E+02  0.45841051087E+01  0.29025922896E+02  0.00000000000E+00 0. -1.
</event>
<event>
 7    1  0.2809593E-013  0.7246154E+02  0.7816164E-02  0.1226708E+00
        -11   -1    0    0    0    0  0.00000000000E+00  0.00000000000E+00  0.45593999997E+02  0.45594000000E+02  0.51100000000E-03 0.  1.
         11   -1    0    0    0    0 -0.00000000000E+00 -0.00000000000E+00 -0.45593999997E+02  0.45594000000E+02  0.51100000000E-03 0. -1.
    9900012    2    1    2    0    0 -0.14972845846E+02 -0.11150432321E+02 -0.14703604930E+01  0.72461542415E+02  0.69999963682E+02 0.  0.
        -12    1    1    2    0    0  0.14972845846E+02  0.11150432321E+02  0.14703604930E+01  0.18726457585E+02  0.00000000000E+00 0.  1.
         11    1    3    3    0    0 -0.38786694436E+01  0.14489738936E+02  0.37511124717E+00  0.15004576629E+02  0.51100000000E-03 0. -1.
        -11    1    3    3    0    0 -0.29099955153E+02 -0.19865441911E+02  0.80106847182E+01  0.36133284408E+02  0.51100000000E-03 0.  1.
        -12    1    3    3    0    0  0.18005778750E+02 -0.57747293467E+01 -0.98561564584E+01  0.21323681379E+02  0.00000000000E+00 0.  1.
</event>
<event>
 7    1  0.2809593E-013  0.7246182E+02  0.7816164E-02  0.1226707E+00
        -11   -1    0    0    0    0  0.00000000000E+00  0.00000000000E+00  0.45593999997E+02  0.45594000000E+02  0.51100000000E-03 0. -1.
         11   -1    0    0    0    0 -0.00000000000E+00 -0.00000000000E+00 -0.45593999997E+02  0.45594000000E+02  0.51100000000E-03 0.  1.
    9900012    2    1    2    0    0 -0.24788213346E+01  0.59854082260E+00  0.18551742713E+02  0.72461816085E+02  0.70000320187E+02 0.  0.
        -12    1    1    2    0    0  0.24788213346E+01 -0.59854082260E+00 -0.18551742713E+02  0.18726183915E+02  0.00000000000E+00 0.  1.
         11    1    3    3    0    0  0.11603964704E+02  0.14518192395E+02  0.13694993496E+02  0.23086419263E+02  0.51100000000E-03 0. -1.
        -11    1    3    3    0    0  0.11412588252E+02 -0.19709490473E+02 -0.45294843188E-01  0.22775276885E+02  0.51100000000E-03 0.  1.
         12    1    3    3    0    0 -0.25495374291E+02  0.57898389002E+01  0.49020440601E+01  0.26600119937E+02  0.00000000000E+00 0. -1.
</event>
<event>
 7    1  0.2809593E-013  0.7246168E+02  0.7816164E-02  0.1226708E+00
        -11   -1    0    0    0    0  0.00000000000E+00  0.00000000000E+00  0.45593999997E+02  0.45594000000E+02  0.51100000000E-03 0.  1.
         11   -1    0    0    0    0 -0.00000000000E+00 -0.00000000000E+00 -0.45593999997E+02  0.45594000000E+02  0.51100000000E-03 0. -1.
    9900012    2    1    2    0    0 -0.32032177455E+01 -0.13416194903E+02 -0.12665709355E+02  0.72461679405E+02  0.70000142136E+02 0.  0.
        -12    1    1    2    0    0  0.32032177455E+01  0.13416194903E+02  0.12665709355E+02  0.18726320595E+02  0.00000000000E+00 0.  1.
         11    1    3    3    0    0 -0.11629519264E+02  0.57410415005E+01 -0.15806326122E+02  0.20446154200E+02  0.51100000000E-03 0. -1.
        -11    1    3    3    0    0  0.92142346404E+01  0.11551001991E+02  0.13075466883E+02  0.19730575295E+02  0.51100000000E-03 0.  1.
         12    1    3    3    0    0 -0.78793312199E+00 -0.30708238394E+02 -0.99348501156E+01  0.32284949910E+02  0.00000000000E+00 0. -1.
</event>
<event>
 7    1  0.2809593E-013  0.7246157E+02  0.7816164E-02  0.1226708E+00
        -11   -1    0    0    0    0  0.00000000000E+00  0.00000000000E+00  0.45593999997E+02  0.45594000000E+02  0.51100000000E-03 0. -1.
         11   -1    0    0    0    0 -0.00000000000E+00 -0.00000000000E+00 -0.45593999997E+02  0.45594000000E+02  0.51100000000E-03 0.  1.
    9900012    2    1    2    0    0 -0.18190245513E+02 -0.36387988513E+01  0.25599704813E+01  0.72461565802E+02  0.69999994148E+02 0.  0.
        -12    1    1    2    0    0  0.18190245513E+02  0.36387988513E+01 -0.25599704813E+01  0.18726434198E+02  0.00000000000E+00 0.  1.
         11    1    3    3    0    0 -0.35753996945E+01  0.16046765303E+02  0.11303142574E+02  0.19951019823E+02  0.51100000000E-03 0. -1.
        -11    1    3    3    0    0  0.15899629900E+02 -0.39944110224E+01  0.20950730058E+01  0.16527034869E+02  0.51100000000E-03 0.  1.
         12    1    3    3    0    0 -0.30514475719E+02 -0.15691153132E+02 -0.10838245099E+02  0.35983511110E+02  0.00000000000E+00 0. -1.
</event>
<event>
 7    1  0.2809593E-013  0.7246166E+02  0.7816164E-02  0.1226708E+00
        -11   -1    0    0    0    0  0.00000000000E+00  0.00000000000E+00  0.45593999997E+02  0.45594000000E+02  0.51100000000E-03 0. -1.
         11   -1    0    0    0    0 -0.00000000000E+00 -0.00000000000E+00 -0.45593999997E+02  0.45594000000E+02  0.51100000000E-03 0.  1.
    9900012    2    1    2    0    0  0.15421952727E+02 -0.36303863813E+01 -0.99829666017E+01  0.72461656167E+02  0.70000111865E+02 0.  0.
        -12    1    1    2    0    0 -0.15421952727E+02  0.36303863813E+01  0.99829666017E+01  0.18726343833E+02  0.00000000000E+00 0.  1.
         11    1    3    3    0    0 -0.36094337580E+01  0.15773679642E+01  0.25238596747E+00  0.39471256233E+01  0.51100000000E-03 0. -1.
        -11    1    3    3    0    0  0.18387740655E+02  0.28415685885E+02 -0.81892008345E+01  0.34822740003E+02  0.51100000000E-03 0.  1.
         12    1    3    3    0    0  0.64364582992E+00 -0.33623440231E+02 -0.20461517346E+01  0.33691790541E+02  0.00000000000E+00 0. -1.
</event>
<event>
 7    1  0.2809593E-013  0.7246157E+02  0.7816164E-02  0.1226708E+00
        -11   -1    0    0    0    0  0.00000000000E+00  0.00000000000E+00  0.45593999997E+02  0.45594000000E+02  0.51100000000E-03 0. -1.
         11   -1    0    0    0    0 -0.00000000000E+00 -0.00000000000E+00 -0.45593999997E+02  0.45594000000E+02  0.51100000000E-03 0.  1.
    9900012    2    1    2    0    0 -0.88523498932E+01  0.16253630072E+02 -0.28521030735E+01  0.72461572656E+02  0.70000003076E+02 0.  0.
        -12    1    1    2    0    0  0.88523498932E+01 -0.16253630072E+02  0.28521030735E+01  0.18726427344E+02  0.00000000000E+00 0.  1.
         11    1    3    3    0    0 -0.88955787357E+01  0.26188784101E+02 -0.45865946601E+01  0.28036058649E+02  0.51100000000E-03 0.  1.
        -11    1    3    3    0    0 -0.16176676700E+02  0.65990089929E+01  0.96373370662E+01  0.19952695425E+02  0.51100000000E-03 0. -1.
        -12    1    3    3    0    0  0.16219905543E+02 -0.16534163022E+02 -0.79028454796E+01  0.24472818581E+02  0.00000000000E+00 0.  1.
</event>
<event>
 7    1  0.2809593E-013  0.7246156E+02  0.7816164E-02  0.1226708E+00
        -11   -1    0    0    0    0  0.00000000000E+00  0.00000000000E+00  0.45593999997E+02  0.45594000000E+02  0.51100000000E-03 0.  1.
         11   -1    0    0    0    0 -0.00000000000E+00 -0.00000000000E+00 -0.45593999997E+02  0.45594000000E+02  0.51100000000E-03 0. -1.
    9900012    2    1    2    0    0  0.14954616245E+02  0.97959874295E+01  0.55747209559E+01  0.72461563326E+02  0.69999990923E+02 0.  0.
        -12    1    1    2    0    0 -0.14954616245E+02 -0.97959874295E+01 -0.55747209559E+01  0.18726436674E+02  0.00000000000E+00 0.  1.
         11    1    3    3    0    0 -0.10076817725E+02  0.23074060232E+02 -0.20783473792E+01  0.25264085955E+02  0.51100000000E-03 0. -1.
        -11    1    3    3    0    0  0.57461076778E+01  0.12362724912E+02 -0.17971268386E+01  0.13750795825E+02  0.51100000000E-03 0.  1.
        -12    1    3    3    0    0  0.19285326292E+02 -0.25640797714E+02  0.94501951737E+01  0.33446681546E+02  0.00000000000E+00 0.  1.
</event>
<event>
 7    1  0.2809593E-013  0.7246155E+02  0.7816164E-02  0.1226708E+00
        -11   -1    0    0    0    0  0.00000000000E+00  0.00000000000E+00  0.45593999997E+02  0.45594000000E+02  0.51100000000E-03 0. -1.
         11   -1    0    0    0    0 -0.00000000000E+00 -0.00000000000E+00 -0.45593999997E+02  0.45594000000E+02  0.51100000000E-03 0.  1.
    9900012    2    1    2    0    0  0.12617258344E+02  0.12095486063E+02 -0.67219126269E+01  0.72461545434E+02  0.69999967615E+02 0.  0.
        -12    1    1    2    0    0 -0.12617258344E+02 -0.12095486063E+02  0.67219126269E+01  0.18726454566E+02  0.00000000000E+00 0.  1.
         11    1    3    3    0    0 -0.87336791968E+01  0.86376618653E+00  0.95718953169E+01  0.12986316820E+02  0.51100000000E-03 0. -1.
        -11    1    3    3    0    0 -0.64692181257E+01 -0.11673080526E+02  0.84190722711E+01  0.15779492079E+02  0.51100000000E-03 0.  1.
         12    1    3    3    0    0  0.27820155667E+02  0.22904800402E+02 -0.24712880215E+02  0.43695736535E+02  0.00000000000E+00 0. -1.
</event>
<event>
 7    1  0.2809593E-013  0.7246163E+02  0.7816164E-02  0.1226708E+00
        -11   -1    0    0    0    0  0.00000000000E+00  0.00000000000E+00  0.45593999997E+02  0.45594000000E+02  0.51100000000E-03 0. -1.
         11   -1    0    0    0    0 -0.00000000000E+00 -0.00000000000E+00 -0.45593999997E+02  0.45594000000E+02  0.51100000000E-03 0.  1.
    9900012    2    1    2    0    0  0.71138066821E+01  0.31341356600E+01  0.17036666284E+02  0.72461626888E+02  0.70000073724E+02 0.  0.
        -12    1    1    2    0    0 -0.71138066821E+01 -0.31341356600E+01 -0.17036666284E+02  0.18726373112E+02  0.00000000000E+00 0.  1.
         11    1    3    3    0    0 -0.15333944478E+02  0.12944949580E+02  0.11952141504E+02  0.23357124387E+02  0.51100000000E-03 0. -1.
        -11    1    3    3    0    0 -0.51616228950E+01  0.10212678845E+02 -0.64070932349E+01  0.13114572204E+02  0.51100000000E-03 0.  1.
         12    1    3    3    0    0  0.27609374055E+02 -0.20023492765E+02  0.11491618016E+02  0.35989930297E+02  0.00000000000E+00 0. -1.
</event>
<event>
 7    1  0.2809593E-013  0.7246156E+02  0.7816164E-02  0.1226708E+00
        -11   -1    0    0    0    0  0.00000000000E+00  0.00000000000E+00  0.45593999997E+02  0.45594000000E+02  0.51100000000E-03 0.  1.
         11   -1    0    0    0    0 -0.00000000000E+00 -0.00000000000E+00 -0.45593999997E+02  0.45594000000E+02  0.51100000000E-03 0. -1.
    9900012    2    1    2    0    0 -0.84574476592E+01 -0.76795476947E+01 -0.14838318583E+02  0.72461559546E+02  0.69999985998E+02 0.  0.
        -12    1    1    2    0    0  0.84574476592E+01  0.76795476947E+01  0.14838318583E+02  0.18726440454E+02  0.00000000000E+00 0.  1.
         11    1    3    3    0    0 -0.17643780043E+02 -0.66481738784E+01 -0.69999724922E+00  0.18867728706E+02  0.51100000000E-03 0. -1.
        -11    1    3    3    0    0 -0.14841495514E+02  0.12892861384E+02  0.44747208246E+01  0.20162316099E+02  0.51100000000E-03 0.  1.
         12    1    3    3    0    0  0.24027827898E+02 -0.13924235201E+02 -0.18613042158E+02  0.33431514740E+02  0.00000000000E+00 0. -1.
</event>
<event>
 7    1  0.2809593E-013  0.7246156E+02  0.7816164E-02  0.1226708E+00
        -11   -1    0    0    0    0  0.00000000000E+00  0.00000000000E+00  0.45593999997E+02  0.45594000000E+02  0.51100000000E-03 0.  1.
         11   -1    0    0    0    0 -0.00000000000E+00 -0.00000000000E+00 -0.45593999997E+02  0.45594000000E+02  0.51100000000E-03 0. -1.
    9900012    2    1    2    0    0  0.16819076270E+02  0.80497141945E+01  0.17321901612E+01  0.72461555918E+02  0.69999981273E+02 0.  0.
        -12    1    1    2    0    0 -0.16819076270E+02 -0.80497141945E+01 -0.17321901612E+01  0.18726444082E+02  0.00000000000E+00 0.  1.
         11    1    3    3    0    0 -0.15910406269E+02  0.75760585719E+00  0.75767747353E+01  0.17638665197E+02  0.51100000000E-03 0. -1.
        -11    1    3    3    0    0 -0.10559459863E+02  0.31227163608E+01 -0.76675643594E+00  0.11038182176E+02  0.51100000000E-03 0.  1.
         12    1    3    3    0    0  0.43288942402E+02  0.41693919765E+01 -0.50778281381E+01  0.43784708545E+02  0.00000000000E+00 0. -1.
</event>
<event>
 7    1  0.2809593E-013  0.7246159E+02  0.7816164E-02  0.1226708E+00
        -11   -1    0    0    0    0  0.00000000000E+00  0.00000000000E+00  0.45593999997E+02  0.45594000000E+02  0.51100000000E-03 0. -1.
         11   -1    0    0    0    0 -0.00000000000E+00 -0.00000000000E+00 -0.45593999997E+02  0.45594000000E+02  0.51100000000E-03 0.  1.
    9900012    2    1    2    0    0 -0.11473329334E+02 -0.76284256921E+01  0.12682599357E+02  0.72461588411E+02  0.70000023600E+02 0.  0.
        -12    1    1    2    0    0  0.11473329334E+02  0.76284256921E+01 -0.12682599357E+02  0.18726411589E+02  0.00000000000E+00 0.  1.
         11    1    3    3    0    0 -0.21004605527E+01  0.14725326088E+01  0.40421467315E+01  0.47874040228E+01  0.51100000000E-03 0. -1.
        -11    1    3    3    0    0  0.39920158561E+01  0.27688954270E+02  0.39063054581E+01  0.28246656470E+02  0.51100000000E-03 0.  1.
         12    1    3    3    0    0 -0.13364884637E+02 -0.36789912571E+02  0.47341471675E+01  0.39427527918E+02  0.00000000000E+00 0. -1.
</event>
<event>
 7    1  0.2809593E-013  0.7246151E+02  0.7816164E-02  0.1226708E+00
        -11   -1    0    0    0    0  0.00000000000E+00  0.00000000000E+00  0.45593999997E+02  0.45594000000E+02  0.51100000000E-03 0. -1.
         11   -1    0    0    0    0 -0.00000000000E+00 -0.00000000000E+00 -0.45593999997E+02  0.45594000000E+02  0.51100000000E-03 0.  1.
    9900012    2    1    2    0    0  0.13504950307E+02 -0.71375009434E+01  0.10832997567E+02  0.72461509704E+02  0.69999921070E+02 0.  0.
        -12    1    1    2    0    0 -0.13504950307E+02  0.71375009434E+01 -0.10832997567E+02  0.18726490296E+02  0.00000000000E+00 0.  1.
         11    1    3    3    0    0  0.83601190460E+01  0.78802327662E+01 -0.20739597485E+01  0.11674372283E+02  0.51100000000E-03 0. -1.
        -11    1    3    3    0    0  0.30265861496E+02 -0.12534668540E+02  0.13755042080E+02  0.35529445118E+02  0.51100000000E-03 0.  1.
         12    1    3    3    0    0 -0.25121030234E+02 -0.24830651691E+01 -0.84808476443E+00  0.25257692302E+02  0.00000000000E+00 0. -1.
</event>
<event>
 7    1  0.2809593E-013  0.7246156E+02  0.7816164E-02  0.1226708E+00
        -11   -1    0    0    0    0  0.00000000000E+00  0.00000000000E+00  0.45593999997E+02  0.45594000000E+02  0.51100000000E-03 0.  1.
         11   -1    0    0    0    0 -0.00000000000E+00 -0.00000000000E+00 -0.45593999997E+02  0.45594000000E+02  0.51100000000E-03 0. -1.
    9900012    2    1    2    0    0  0.16863816848E+02  0.80007692435E+01  0.15096481392E+01  0.72461557074E+02  0.69999982778E+02 0.  0.
        -12    1    1    2    0    0 -0.16863816848E+02 -0.80007692435E+01 -0.15096481392E+01  0.18726442926E+02  0.00000000000E+00 0.  1.
         11    1    3    3    0    0  0.25689922519E+02 -0.19135237023E+02 -0.87469741222E+01  0.33206008063E+02  0.51100000000E-03 0. -1.
        -11    1    3    3    0    0 -0.90553141309E+01 -0.11470119912E+01  0.52564499966E+01  0.10533025080E+02  0.51100000000E-03 0.  1.
        -12    1    3    3    0    0  0.22920845996E+00  0.28283018257E+02  0.50001722648E+01  0.28722523930E+02  0.00000000000E+00 0.  1.
</event>
<event>
 7    1  0.2809593E-013  0.7246181E+02  0.7816164E-02  0.1226707E+00
        -11   -1    0    0    0    0  0.00000000000E+00  0.00000000000E+00  0.45593999997E+02  0.45594000000E+02  0.51100000000E-03 0.  1.
         11   -1    0    0    0    0 -0.00000000000E+00 -0.00000000000E+00 -0.45593999997E+02  0.45594000000E+02  0.51100000000E-03 0. -1.
    9900012    2    1    2    0    0  0.12716714276E+02 -0.11376476939E+02 -0.77156318539E+01  0.72461814472E+02  0.70000318086E+02 0.  0.
        -12    1    1    2    0    0 -0.12716714276E+02  0.11376476939E+02  0.77156318539E+01  0.18726185528E+02  0.00000000000E+00 0.  1.
         11    1    3    3    0    0  0.32400404739E+01 -0.23621610498E+00  0.39990441969E+01  0.51522825108E+01  0.51100000000E-03 0. -1.
        -11    1    3    3    0    0 -0.25138466163E+01 -0.67369378432E+01  0.26269103676E+02  0.27235483556E+02  0.51100000000E-03 0.  1.
         12    1    3    3    0    0  0.11990520418E+02 -0.44033229910E+01 -0.37983779727E+02  0.40074048405E+02  0.00000000000E+00 0. -1.
</event>
<event>
 7    1  0.2809593E-013  0.7246152E+02  0.7816164E-02  0.1226708E+00
        -11   -1    0    0    0    0  0.00000000000E+00  0.00000000000E+00  0.45593999997E+02  0.45594000000E+02  0.51100000000E-03 0.  1.
         11   -1    0    0    0    0 -0.00000000000E+00 -0.00000000000E+00 -0.45593999997E+02  0.45594000000E+02  0.51100000000E-03 0. -1.
    9900012    2    1    2    0    0 -0.33038232743E+01 -0.11290109126E+02 -0.14570488485E+02  0.72461522836E+02  0.69999938176E+02 0.  0.
        -12    1    1    2    0    0  0.33038232743E+01  0.11290109126E+02  0.14570488485E+02  0.18726477164E+02  0.00000000000E+00 0.  1.
         11    1    3    3    0    0  0.18312317298E+02 -0.81772354712E+01 -0.72738656103E+00  0.20068314235E+02  0.51100000000E-03 0. -1.
        -11    1    3    3    0    0 -0.15461381970E+02 -0.19510956110E+02  0.63208686238E+01  0.25684336106E+02  0.51100000000E-03 0.  1.
        -12    1    3    3    0    0 -0.61547586018E+01  0.16398082456E+02 -0.20163970548E+02  0.26708872495E+02  0.00000000000E+00 0.  1.
</event>
<event>
 7    1  0.2809593E-013  0.7246153E+02  0.7816164E-02  0.1226708E+00
        -11   -1    0    0    0    0  0.00000000000E+00  0.00000000000E+00  0.45593999997E+02  0.45594000000E+02  0.51100000000E-03 0. -1.
         11   -1    0    0    0    0 -0.00000000000E+00 -0.00000000000E+00 -0.45593999997E+02  0.45594000000E+02  0.51100000000E-03 0.  1.
    9900012    2    1    2    0    0 -0.37079823061E+01 -0.18998414627E+01  0.18257111437E+02  0.72461530808E+02  0.69999948562E+02 0.  0.
        -12    1    1    2    0    0  0.37079823061E+01  0.18998414627E+01 -0.18257111437E+02  0.18726469192E+02  0.00000000000E+00 0.  1.
         11    1    3    3    0    0 -0.39919147709E+01  0.17843847413E+02  0.27050147415E+02  0.32650401980E+02  0.51100000000E-03 0. -1.
        -11    1    3    3    0    0  0.44853699379E+01  0.86481540260E+01  0.16845114785E+00  0.97435869980E+01  0.51100000000E-03 0.  1.
         12    1    3    3    0    0 -0.42014374731E+01 -0.28391842902E+02 -0.89614871260E+01  0.30067541830E+02  0.00000000000E+00 0. -1.
</event>
<event>
 7    1  0.2809593E-013  0.7246157E+02  0.7816164E-02  0.1226708E+00
        -11   -1    0    0    0    0  0.00000000000E+00  0.00000000000E+00  0.45593999997E+02  0.45594000000E+02  0.51100000000E-03 0. -1.
         11   -1    0    0    0    0 -0.00000000000E+00 -0.00000000000E+00 -0.45593999997E+02  0.45594000000E+02  0.51100000000E-03 0.  1.
    9900012    2    1    2    0    0 -0.35194025260E+01 -0.18225884650E+02 -0.24718451211E+01  0.72461572586E+02  0.70000002985E+02 0.  0.
        -12    1    1    2    0    0  0.35194025260E+01  0.18225884650E+02  0.24718451211E+01  0.18726427414E+02  0.00000000000E+00 0.  1.
         11    1    3    3    0    0  0.25296633789E+01  0.11225505716E+01 -0.33261038489E+01  0.43269254294E+01  0.51100000000E-03 0. -1.
        -11    1    3    3    0    0 -0.28463496986E+02 -0.45001179424E+01 -0.19169936476E+02  0.34610810260E+02  0.51100000000E-03 0.  1.
         12    1    3    3    0    0  0.22414431081E+02 -0.14848317279E+02  0.20024195203E+02  0.33523836896E+02  0.00000000000E+00 0. -1.
</event>
<event>
 7    1  0.2809593E-013  0.7246156E+02  0.7816164E-02  0.1226708E+00
        -11   -1    0    0    0    0  0.00000000000E+00  0.00000000000E+00  0.45593999997E+02  0.45594000000E+02  0.51100000000E-03 0. -1.
         11   -1    0    0    0    0 -0.00000000000E+00 -0.00000000000E+00 -0.45593999997E+02  0.45594000000E+02  0.51100000000E-03 0.  1.
    9900012    2    1    2    0    0 -0.65401043768E+01 -0.11431558098E+02 -0.13312622091E+02  0.72461564334E+02  0.69999992236E+02 0.  0.
        -12    1    1    2    0    0  0.65401043768E+01  0.11431558098E+02  0.13312622091E+02  0.18726435666E+02  0.00000000000E+00 0.  1.
         11    1    3    3    0    0 -0.24220862669E+01  0.25835575735E+01 -0.56416020636E+01  0.66610018560E+01  0.51100000000E-03 0. -1.
        -11    1    3    3    0    0  0.84569246887E+01  0.12622592011E+02 -0.26708311132E+02  0.30727565606E+02  0.51100000000E-03 0.  1.
         12    1    3    3    0    0 -0.12574942798E+02 -0.26637707683E+02  0.19037291105E+02  0.35072996872E+02  0.00000000000E+00 0. -1.
</event>
<event>
 7    1  0.2809593E-013  0.7246159E+02  0.7816164E-02  0.1226708E+00
        -11   -1    0    0    0    0  0.00000000000E+00  0.00000000000E+00  0.45593999997E+02  0.45594000000E+02  0.51100000000E-03 0. -1.
         11   -1    0    0    0    0 -0.00000000000E+00 -0.00000000000E+00 -0.45593999997E+02  0.45594000000E+02  0.51100000000E-03 0.  1.
    9900012    2    1    2    0    0  0.11881501816E+02  0.75083538368E+01  0.12374691583E+02  0.72461589385E+02  0.70000024869E+02 0.  0.
        -12    1    1    2    0    0 -0.11881501816E+02 -0.75083538368E+01 -0.12374691583E+02  0.18726410615E+02  0.00000000000E+00 0.  1.
         11    1    3    3    0    0  0.45335421539E+01  0.31572194690E+01  0.24077348058E+01  0.60264605195E+01  0.51100000000E-03 0. -1.
        -11    1    3    3    0    0  0.20604750273E+01  0.18497269808E+02 -0.23347197268E+02  0.29857765627E+02  0.51100000000E-03 0.  1.
         12    1    3    3    0    0  0.52874846345E+01 -0.14146135441E+02  0.33314154046E+02  0.36577363238E+02  0.00000000000E+00 0. -1.
</event>
<event>
 7    1  0.2809593E-013  0.7246158E+02  0.7816164E-02  0.1226708E+00
        -11   -1    0    0    0    0  0.00000000000E+00  0.00000000000E+00  0.45593999997E+02  0.45594000000E+02  0.51100000000E-03 0.  1.
         11   -1    0    0    0    0 -0.00000000000E+00 -0.00000000000E+00 -0.45593999997E+02  0.45594000000E+02  0.51100000000E-03 0. -1.
    9900012    2    1    2    0    0 -0.12378919373E+01 -0.17612759271E+02 -0.62399667809E+01  0.72461578799E+02  0.70000011079E+02 0.  0.
        -12    1    1    2    0    0  0.12378919373E+01  0.17612759271E+02  0.62399667809E+01  0.18726421201E+02  0.00000000000E+00 0.  1.
         11    1    3    3    0    0 -0.16323334542E+02 -0.30529621378E+02 -0.12600880656E+02  0.36841433545E+02  0.51100000000E-03 0. -1.
        -11    1    3    3    0    0 -0.63129911115E+01  0.37806291915E+01  0.96351610238E+01  0.12123668672E+02  0.51100000000E-03 0.  1.
        -12    1    3    3    0    0  0.21398433716E+02  0.91362329161E+01 -0.32742471483E+01  0.23496476582E+02  0.00000000000E+00 0.  1.
</event>
<event>
 7    1  0.2809593E-013  0.7246157E+02  0.7816164E-02  0.1226708E+00
        -11   -1    0    0    0    0  0.00000000000E+00  0.00000000000E+00  0.45593999997E+02  0.45594000000E+02  0.51100000000E-03 0. -1.
         11   -1    0    0    0    0 -0.00000000000E+00 -0.00000000000E+00 -0.45593999997E+02  0.45594000000E+02  0.51100000000E-03 0.  1.
    9900012    2    1    2    0    0 -0.49146274629E+01  0.17141965750E+02  0.57165065689E+01  0.72461574815E+02  0.70000005889E+02 0.  0.
        -12    1    1    2    0    0  0.49146274629E+01 -0.17141965750E+02 -0.57165065689E+01  0.18726425185E+02  0.00000000000E+00 0.  1.
         11    1    3    3    0    0 -0.29380053651E+02  0.88550549174E+00  0.13738939431E+02  0.32445802956E+02  0.51100000000E-03 0. -1.
        -11    1    3    3    0    0  0.32879907173E+01 -0.41217909628E+01  0.55396929691E+01  0.76477605971E+01  0.51100000000E-03 0.  1.
        -12    1    3    3    0    0  0.21177435471E+02  0.20378251221E+02 -0.13562125832E+02  0.32368011261E+02  0.00000000000E+00 0.  1.
</event>
<event>
 7    1  0.2809593E-013  0.7246162E+02  0.7816164E-02  0.1226708E+00
        -11   -1    0    0    0    0  0.00000000000E+00  0.00000000000E+00  0.45593999997E+02  0.45594000000E+02  0.51100000000E-03 0.  1.
         11   -1    0    0    0    0 -0.00000000000E+00 -0.00000000000E+00 -0.45593999997E+02  0.45594000000E+02  0.51100000000E-03 0. -1.
    9900012    2    1    2    0    0  0.14224708051E+00  0.18363177997E+02  0.36675492427E+01  0.72461615997E+02  0.70000059537E+02 0.  0.
        -12    1    1    2    0    0 -0.14224708051E+00 -0.18363177997E+02 -0.36675492427E+01  0.18726384003E+02  0.00000000000E+00 0.  1.
         11    1    3    3    0    0  0.19507685457E+02 -0.30369303926E+01 -0.23518187946E+02  0.30706316983E+02  0.51100000000E-03 0. -1.
        -11    1    3    3    0    0 -0.81623551397E+00 -0.89282087368E+00 -0.80242668252E+00  0.14516398895E+01  0.51100000000E-03 0.  1.
        -12    1    3    3    0    0 -0.18549202863E+02  0.22292929263E+02  0.27988163872E+02  0.40303659125E+02  0.00000000000E+00 0.  1.
</event>
<event>
 7    1  0.2809593E-013  0.7246157E+02  0.7816164E-02  0.1226708E+00
        -11   -1    0    0    0    0  0.00000000000E+00  0.00000000000E+00  0.45593999997E+02  0.45594000000E+02  0.51100000000E-03 0.  1.
         11   -1    0    0    0    0 -0.00000000000E+00 -0.00000000000E+00 -0.45593999997E+02  0.45594000000E+02  0.51100000000E-03 0. -1.
    9900012    2    1    2    0    0  0.16509912173E+02  0.19353072655E+00 -0.88354095496E+01  0.72461571723E+02  0.70000001862E+02 0.  0.
        -12    1    1    2    0    0 -0.16509912173E+02 -0.19353072655E+00  0.88354095496E+01  0.18726428277E+02  0.00000000000E+00 0.  1.
         11    1    3    3    0    0 -0.83655439580E+01 -0.69839945630E+01 -0.49179218830E+01  0.11955938344E+02  0.51100000000E-03 0. -1.
        -11    1    3    3    0    0  0.28181163470E+01 -0.16552256526E+02  0.15402007765E+02  0.22784661931E+02  0.51100000000E-03 0.  1.
        -12    1    3    3    0    0  0.22057339784E+02  0.23729781816E+02 -0.19319495431E+02  0.37720971449E+02  0.00000000000E+00 0.  1.
</event>
<event>
 7    1  0.2809593E-013  0.7246172E+02  0.7816164E-02  0.1226708E+00
        -11   -1    0    0    0    0  0.00000000000E+00  0.00000000000E+00  0.45593999997E+02  0.45594000000E+02  0.51100000000E-03 0. -1.
         11   -1    0    0    0    0 -0.00000000000E+00 -0.00000000000E+00 -0.45593999997E+02  0.45594000000E+02  0.51100000000E-03 0.  1.
    9900012    2    1    2    0    0  0.10826934668E+02  0.46755085434E+01  0.14546151505E+02  0.72461723861E+02  0.70000200049E+02 0.  0.
        -12    1    1    2    0    0 -0.10826934668E+02 -0.46755085434E+01 -0.14546151505E+02  0.18726276139E+02  0.00000000000E+00 0.  1.
         11    1    3    3    0    0  0.67179787964E+01  0.80652267476E+01  0.49030245552E+01  0.11585282545E+02  0.51100000000E-03 0. -1.
        -11    1    3    3    0    0 -0.87612205825E+01 -0.15078487225E+02 -0.19984990146E+02  0.26523943796E+02  0.51100000000E-03 0.  1.
         12    1    3    3    0    0  0.12870176454E+02  0.11688769021E+02  0.29628117096E+02  0.34352497519E+02  0.00000000000E+00 0. -1.
</event>
<event>
 7    1  0.2809593E-013  0.7246138E+02  0.7816164E-02  0.1226709E+00
        -11   -1    0    0    0    0  0.00000000000E+00  0.00000000000E+00  0.45593999997E+02  0.45594000000E+02  0.51100000000E-03 0. -1.
         11   -1    0    0    0    0 -0.00000000000E+00 -0.00000000000E+00 -0.45593999997E+02  0.45594000000E+02  0.51100000000E-03 0.  1.
    9900012    2    1    2    0    0 -0.16873778220E+01 -0.48001723025E+01  0.18022140436E+02  0.72461376067E+02  0.69999746982E+02 0.  0.
        -12    1    1    2    0    0  0.16873778220E+01  0.48001723025E+01 -0.18022140436E+02  0.18726623933E+02  0.00000000000E+00 0.  1.
         11    1    3    3    0    0 -0.45155319119E+01  0.12527463267E+02 -0.10155662682E+02  0.16747084795E+02  0.51100000000E-03 0. -1.
        -11    1    3    3    0    0  0.46262478537E+01  0.11113619966E+02  0.24082335202E+02  0.26923476503E+02  0.51100000000E-03 0.  1.
        -12    1    3    3    0    0 -0.17980937638E+01 -0.28441255536E+02  0.40954679157E+01  0.28790814769E+02  0.00000000000E+00 0.  1.
</event>
<event>
 7    1  0.2809593E-013  0.7246156E+02  0.7816164E-02  0.1226708E+00
        -11   -1    0    0    0    0  0.00000000000E+00  0.00000000000E+00  0.45593999997E+02  0.45594000000E+02  0.51100000000E-03 0. -1.
         11   -1    0    0    0    0 -0.00000000000E+00 -0.00000000000E+00 -0.45593999997E+02  0.45594000000E+02  0.51100000000E-03 0.  1.
    9900012    2    1    2    0    0  0.14148173241E+01  0.16301532702E+02 -0.91070265942E+01  0.72461558537E+02  0.69999984684E+02 0.  0.
        -12    1    1    2    0    0 -0.14148173241E+01 -0.16301532702E+02  0.91070265942E+01  0.18726441463E+02  0.00000000000E+00 0.  1.
         11    1    3    3    0    0 -0.25942983224E+02  0.12126277341E+02 -0.11628303163E+02  0.30907966860E+02  0.51100000000E-03 0. -1.
        -11    1    3    3    0    0  0.49126458013E+01  0.11121768838E+02  0.11176188947E+02  0.16514691353E+02  0.51100000000E-03 0.  1.
        -12    1    3    3    0    0  0.22445154747E+02 -0.69465134781E+01 -0.86549123783E+01  0.25038900323E+02  0.00000000000E+00 0.  1.
</event>
<event>
 7    1  0.2809593E-013  0.7246160E+02  0.7816164E-02  0.1226708E+00
        -11   -1    0    0    0    0  0.00000000000E+00  0.00000000000E+00  0.45593999997E+02  0.45594000000E+02  0.51100000000E-03 0.  1.
         11   -1    0    0    0    0 -0.00000000000E+00 -0.00000000000E+00 -0.45593999997E+02  0.45594000000E+02  0.51100000000E-03 0. -1.
    9900012    2    1    2    0    0 -0.36762387344E+01 -0.31096082064E+01 -0.18096789779E+02  0.72461596321E+02  0.70000033905E+02 0.  0.
        -12    1    1    2    0    0  0.36762387344E+01  0.31096082064E+01  0.18096789779E+02  0.18726403679E+02  0.00000000000E+00 0.  1.
         11    1    3    3    0    0  0.18993418536E+02  0.31818316674E+01  0.11189920506E+02  0.22273040243E+02  0.51100000000E-03 0. -1.
        -11    1    3    3    0    0 -0.54771194289E+00 -0.16152076632E+02 -0.84405679097E+01  0.18232738544E+02  0.51100000000E-03 0.  1.
         12    1    3    3    0    0 -0.22121945328E+02  0.98606367582E+01 -0.20846142376E+02  0.31955817535E+02  0.00000000000E+00 0. -1.
</event>
<event>
 7    1  0.2809593E-013  0.7246161E+02  0.7816164E-02  0.1226708E+00
        -11   -1    0    0    0    0  0.00000000000E+00  0.00000000000E+00  0.45593999997E+02  0.45594000000E+02  0.51100000000E-03 0. -1.
         11   -1    0    0    0    0 -0.00000000000E+00 -0.00000000000E+00 -0.45593999997E+02  0.45594000000E+02  0.51100000000E-03 0.  1.
    9900012    2    1    2    0    0 -0.11749340879E+02  0.23648831911E+00  0.14579949357E+02  0.72461605231E+02  0.70000045511E+02 0.  0.
        -12    1    1    2    0    0  0.11749340879E+02 -0.23648831911E+00 -0.14579949357E+02  0.18726394769E+02  0.00000000000E+00 0.  1.
         11    1    3    3    0    0 -0.32351597872E+02 -0.13200619135E+02  0.15651898691E+02  0.38286605534E+02  0.51100000000E-03 0. -1.
        -11    1    3    3    0    0 -0.37161363264E+01 -0.20239420412E+01  0.28360936842E+01  0.50940591112E+01  0.51100000000E-03 0.  1.
        -12    1    3    3    0    0  0.24318393319E+02  0.15461049495E+02 -0.39080430189E+01  0.29080940586E+02  0.00000000000E+00 0.  1.
</event>
<event>
 7    1  0.2809593E-013  0.7246152E+02  0.7816164E-02  0.1226708E+00
        -11   -1    0    0    0    0  0.00000000000E+00  0.00000000000E+00  0.45593999997E+02  0.45594000000E+02  0.51100000000E-03 0.  1.
         11   -1    0    0    0    0 -0.00000000000E+00 -0.00000000000E+00 -0.45593999997E+02  0.45594000000E+02  0.51100000000E-03 0. -1.
    9900012    2    1    2    0    0 -0.10477226418E+02 -0.15391137417E+02 -0.20054062705E+01  0.72461520386E+02  0.69999934985E+02 0.  0.
        -12    1    1    2    0    0  0.10477226418E+02  0.15391137417E+02  0.20054062705E+01  0.18726479614E+02  0.00000000000E+00 0.  1.
         11    1    3    3    0    0  0.82027092534E+01 -0.13829202656E+02 -0.19889153224E+02  0.25575568448E+02  0.51100000000E-03 0. -1.
        -11    1    3    3    0    0  0.10882482847E+01 -0.16974987538E+02  0.12851851278E+02  0.21319112734E+02  0.51100000000E-03 0.  1.
         12    1    3    3    0    0 -0.19768183956E+02  0.15413052777E+02  0.50318956757E+01  0.25566839205E+02  0.00000000000E+00 0. -1.
</event>
<event>
 7    1  0.2809593E-013  0.7246133E+02  0.7816164E-02  0.1226709E+00
        -11   -1    0    0    0    0  0.00000000000E+00  0.00000000000E+00  0.45593999997E+02  0.45594000000E+02  0.51100000000E-03 0. -1.
         11   -1    0    0    0    0 -0.00000000000E+00 -0.00000000000E+00 -0.45593999997E+02  0.45594000000E+02  0.51100000000E-03 0.  1.
    9900012    2    1    2    0    0 -0.12312613598E+02  0.11009002224E+02 -0.88255062663E+01  0.72461330664E+02  0.69999687836E+02 0.  0.
        -12    1    1    2    0    0  0.12312613598E+02 -0.11009002224E+02  0.88255062663E+01  0.18726669336E+02  0.00000000000E+00 0.  1.
         11    1    3    3    0    0  0.54832615503E+01  0.12018684099E+01 -0.11708185263E+02  0.12984307734E+02  0.51100000000E-03 0. -1.
        -11    1    3    3    0    0  0.67319534508E+01  0.24217167730E+02 -0.11452684826E+02  0.27621629208E+02  0.51100000000E-03 0.  1.
         12    1    3    3    0    0 -0.24527828599E+02 -0.14410033916E+02  0.14335363823E+02  0.31855393722E+02  0.00000000000E+00 0. -1.
</event>
<event>
 7    1  0.2809593E-013  0.7246159E+02  0.7816164E-02  0.1226708E+00
        -11   -1    0    0    0    0  0.00000000000E+00  0.00000000000E+00  0.45593999997E+02  0.45594000000E+02  0.51100000000E-03 0.  1.
         11   -1    0    0    0    0 -0.00000000000E+00 -0.00000000000E+00 -0.45593999997E+02  0.45594000000E+02  0.51100000000E-03 0. -1.
    9900012    2    1    2    0    0  0.56446198079E+01 -0.10971782846E+02 -0.14086751369E+02  0.72461593090E+02  0.70000029696E+02 0.  0.
        -12    1    1    2    0    0 -0.56446198079E+01  0.10971782846E+02  0.14086751369E+02  0.18726406910E+02  0.00000000000E+00 0.  1.
         11    1    3    3    0    0 -0.64859969143E+01  0.11038489641E+02  0.41605906586E+00  0.12809742969E+02  0.51100000000E-03 0. -1.
        -11    1    3    3    0    0 -0.26784115428E+01  0.60661439288E+00  0.17525588303E+02  0.17739450810E+02  0.51100000000E-03 0.  1.
         12    1    3    3    0    0  0.14809028265E+02 -0.22616886880E+02 -0.32028398738E+02  0.41912399311E+02  0.00000000000E+00 0. -1.
</event>
<event>
 7    1  0.2809593E-013  0.7246154E+02  0.7816164E-02  0.1226708E+00
        -11   -1    0    0    0    0  0.00000000000E+00  0.00000000000E+00  0.45593999997E+02  0.45594000000E+02  0.51100000000E-03 0.  1.
         11   -1    0    0    0    0 -0.00000000000E+00 -0.00000000000E+00 -0.45593999997E+02  0.45594000000E+02  0.51100000000E-03 0. -1.
    9900012    2    1    2    0    0 -0.14871534177E+02 -0.87397914409E+01 -0.72893008622E+01  0.72461537700E+02  0.69999957540E+02 0.  0.
        -12    1    1    2    0    0  0.14871534177E+02  0.87397914409E+01  0.72893008622E+01  0.18726462300E+02  0.00000000000E+00 0.  1.
         11    1    3    3    0    0  0.30355327794E+01 -0.31071482028E+01  0.20972539482E+01  0.48236193459E+01  0.51100000000E-03 0. -1.
        -11    1    3    3    0    0 -0.20918576218E+02  0.26065556821E+02  0.28134209732E+01  0.33539758812E+02  0.51100000000E-03 0.  1.
         12    1    3    3    0    0  0.30115092612E+01 -0.31698200059E+02 -0.12199975784E+02  0.34098159541E+02  0.00000000000E+00 0. -1.
</event>
<event>
 7    1  0.2809593E-013  0.7246155E+02  0.7816164E-02  0.1226708E+00
        -11   -1    0    0    0    0  0.00000000000E+00  0.00000000000E+00  0.45593999997E+02  0.45594000000E+02  0.51100000000E-03 0.  1.
         11   -1    0    0    0    0 -0.00000000000E+00 -0.00000000000E+00 -0.45593999997E+02  0.45594000000E+02  0.51100000000E-03 0. -1.
    9900012    2    1    2    0    0  0.95491819963E+01 -0.85439022889E+01 -0.13656304015E+02  0.72461553928E+02  0.69999978680E+02 0.  0.
        -12    1    1    2    0    0 -0.95491819963E+01  0.85439022889E+01  0.13656304015E+02  0.18726446072E+02  0.00000000000E+00 0.  1.
         11    1    3    3    0    0 -0.24604718542E+02  0.53073677094E+01 -0.51129505907E+01  0.25684676181E+02  0.51100000000E-03 0. -1.
        -11    1    3    3    0    0 -0.34572092426E+00 -0.74752236369E+01 -0.89813166455E+01  0.11690275460E+02  0.51100000000E-03 0.  1.
        -12    1    3    3    0    0  0.34499621463E+02 -0.63760463614E+01  0.43796322093E+00  0.35086602287E+02  0.00000000000E+00 0.  1.
</event>
<event>
 7    1  0.2809593E-013  0.7246153E+02  0.7816164E-02  0.1226708E+00
        -11   -1    0    0    0    0  0.00000000000E+00  0.00000000000E+00  0.45593999997E+02  0.45594000000E+02  0.51100000000E-03 0.  1.
         11   -1    0    0    0    0 -0.00000000000E+00 -0.00000000000E+00 -0.45593999997E+02  0.45594000000E+02  0.51100000000E-03 0. -1.
    9900012    2    1    2    0    0  0.18652532071E+02  0.16623296062E+01 -0.17009665098E-01  0.72461532588E+02  0.69999950881E+02 0.  0.
        -12    1    1    2    0    0 -0.18652532071E+02 -0.16623296062E+01  0.17009665098E-01  0.18726467412E+02  0.00000000000E+00 0.  1.
         11    1    3    3    0    0  0.27700345272E+01 -0.53138896084E+00 -0.19558230424E+02  0.19760562823E+02  0.51100000000E-03 0. -1.
        -11    1    3    3    0    0 -0.39769847194E+01 -0.18936634792E+02  0.11888302582E+02  0.22710004034E+02  0.51100000000E-03 0.  1.
        -12    1    3    3    0    0  0.19859482264E+02  0.21130353359E+02  0.76529181768E+01  0.29990965731E+02  0.00000000000E+00 0.  1.
</event>
<event>
 7    1  0.2809593E-013  0.7246160E+02  0.7816164E-02  0.1226708E+00
        -11   -1    0    0    0    0  0.00000000000E+00  0.00000000000E+00  0.45593999997E+02  0.45594000000E+02  0.51100000000E-03 0.  1.
         11   -1    0    0    0    0 -0.00000000000E+00 -0.00000000000E+00 -0.45593999997E+02  0.45594000000E+02  0.51100000000E-03 0. -1.
    9900012    2    1    2    0    0 -0.88636727742E+01  0.12076074607E+02 -0.11237522033E+02  0.72461596864E+02  0.70000034612E+02 0.  0.
        -12    1    1    2    0    0  0.88636727742E+01 -0.12076074607E+02  0.11237522033E+02  0.18726403136E+02  0.00000000000E+00 0.  1.
         11    1    3    3    0    0  0.20708581710E+02 -0.35171309271E+01  0.53709894521E+01  0.21680938502E+02  0.51100000000E-03 0. -1.
        -11    1    3    3    0    0 -0.36850611941E+01  0.79967541629E+01  0.96983312778E+01  0.13099060385E+02  0.51100000000E-03 0.  1.
        -12    1    3    3    0    0 -0.25887193290E+02  0.75964513712E+01 -0.26306842763E+02  0.37681597976E+02  0.00000000000E+00 0.  1.
</event>
<event>
 7    1  0.2809593E-013  0.7246157E+02  0.7816164E-02  0.1226708E+00
        -11   -1    0    0    0    0  0.00000000000E+00  0.00000000000E+00  0.45593999997E+02  0.45594000000E+02  0.51100000000E-03 0.  1.
         11   -1    0    0    0    0 -0.00000000000E+00 -0.00000000000E+00 -0.45593999997E+02  0.45594000000E+02  0.51100000000E-03 0. -1.
    9900012    2    1    2    0    0  0.24445265975E+00  0.35198573960E+00 -0.18721525010E+02  0.72461570822E+02  0.70000000688E+02 0.  0.
        -12    1    1    2    0    0 -0.24445265975E+00 -0.35198573960E+00  0.18721525010E+02  0.18726429178E+02  0.00000000000E+00 0.  1.
         11    1    3    3    0    0 -0.94658380610E+01 -0.25034068896E+02 -0.45290423707E+01  0.27144408646E+02  0.51100000000E-03 0. -1.
        -11    1    3    3    0    0  0.60852753761E+01 -0.43129315890E+01  0.57008569803E+01  0.93878499064E+01  0.51100000000E-03 0.  1.
        -12    1    3    3    0    0  0.36250153447E+01  0.29698986224E+02 -0.19893339619E+02  0.35929312270E+02  0.00000000000E+00 0.  1.
</event>
<event>
 7    1  0.2809593E-013  0.7246154E+02  0.7816164E-02  0.1226708E+00
        -11   -1    0    0    0    0  0.00000000000E+00  0.00000000000E+00  0.45593999997E+02  0.45594000000E+02  0.51100000000E-03 0.  1.
         11   -1    0    0    0    0 -0.00000000000E+00 -0.00000000000E+00 -0.45593999997E+02  0.45594000000E+02  0.51100000000E-03 0. -1.
    9900012    2    1    2    0    0 -0.15243851294E+02 -0.41346959000E+01 -0.10060298002E+02  0.72461539887E+02  0.69999960389E+02 0.  0.
        -12    1    1    2    0    0  0.15243851294E+02  0.41346959000E+01  0.10060298002E+02  0.18726460113E+02  0.00000000000E+00 0.  1.
         11    1    3    3    0    0  0.10446235274E+00  0.98776753785E+01  0.60157793198E+00  0.98965286609E+01  0.51100000000E-03 0.  1.
        -11    1    3    3    0    0 -0.20799885908E+00 -0.34763811388E+02 -0.30791432661E-01  0.34764447272E+02  0.51100000000E-03 0. -1.
         12    1    3    3    0    0 -0.15140314788E+02  0.20751440110E+02 -0.10631084502E+02  0.27800563954E+02  0.00000000000E+00 0. -1.
</event>
<event>
 7    1  0.2809593E-013  0.7246167E+02  0.7816164E-02  0.1226708E+00
        -11   -1    0    0    0    0  0.00000000000E+00  0.00000000000E+00  0.45593999997E+02  0.45594000000E+02  0.51100000000E-03 0.  1.
         11   -1    0    0    0    0 -0.00000000000E+00 -0.00000000000E+00 -0.45593999997E+02  0.45594000000E+02  0.51100000000E-03 0. -1.
    9900012    2    1    2    0    0 -0.91716526163E+01 -0.10375313047E+01 -0.16293543765E+02  0.72461674911E+02  0.70000136282E+02 0.  0.
        -12    1    1    2    0    0  0.91716526163E+01  0.10375313047E+01  0.16293543765E+02  0.18726325089E+02  0.00000000000E+00 0.  1.
         11    1    3    3    0    0  0.25004878428E+01 -0.31729375073E+01  0.40130799047E+01  0.56942762894E+01  0.51100000000E-03 0. -1.
        -11    1    3    3    0    0 -0.11691920094E+01 -0.16576496476E+02  0.16972821437E+02  0.23753397929E+02  0.51100000000E-03 0.  1.
         12    1    3    3    0    0 -0.10502948450E+02  0.18711902679E+02 -0.37279445107E+02  0.43014000692E+02  0.00000000000E+00 0. -1.
</event>
<event>
 7    1  0.2809593E-013  0.7246169E+02  0.7816164E-02  0.1226708E+00
        -11   -1    0    0    0    0  0.00000000000E+00  0.00000000000E+00  0.45593999997E+02  0.45594000000E+02  0.51100000000E-03 0.  1.
         11   -1    0    0    0    0 -0.00000000000E+00 -0.00000000000E+00 -0.45593999997E+02  0.45594000000E+02  0.51100000000E-03 0. -1.
    9900012    2    1    2    0    0 -0.65209012942E+01 -0.16929646595E+02 -0.46410879158E+01  0.72461687374E+02  0.70000152518E+02 0.  0.
        -12    1    1    2    0    0  0.65209012942E+01  0.16929646595E+02  0.46410879158E+01  0.18726312626E+02  0.00000000000E+00 0.  1.
         11    1    3    3    0    0  0.12542347553E+02  0.10345796938E+01 -0.20641135047E+02  0.24175137923E+02  0.51100000000E-03 0. -1.
        -11    1    3    3    0    0 -0.23184144993E+02  0.36589432647E+01  0.68698968886E+01  0.24455836285E+02  0.51100000000E-03 0.  1.
        -12    1    3    3    0    0  0.41208961459E+01 -0.21623169553E+02  0.91301502431E+01  0.23830713167E+02  0.00000000000E+00 0.  1.
</event>
<event>
 7    1  0.2809593E-013  0.7246146E+02  0.7816164E-02  0.1226708E+00
        -11   -1    0    0    0    0  0.00000000000E+00  0.00000000000E+00  0.45593999997E+02  0.45594000000E+02  0.51100000000E-03 0.  1.
         11   -1    0    0    0    0 -0.00000000000E+00 -0.00000000000E+00 -0.45593999997E+02  0.45594000000E+02  0.51100000000E-03 0. -1.
    9900012    2    1    2    0    0 -0.45580736971E+01 -0.17776029793E+02 -0.37309656459E+01  0.72461457989E+02  0.69999853701E+02 0.  0.
        -12    1    1    2    0    0  0.45580736971E+01  0.17776029793E+02  0.37309656459E+01  0.18726542011E+02  0.00000000000E+00 0.  1.
         11    1    3    3    0    0  0.10059633524E+02  0.14417436253E+02 -0.17545010534E+02  0.24837191662E+02  0.51100000000E-03 0. -1.
        -11    1    3    3    0    0  0.65946191440E+01 -0.34836963798E+01  0.88676171055E+01  0.11587052063E+02  0.51100000000E-03 0.  1.
         12    1    3    3    0    0 -0.21212326365E+02 -0.28709769666E+02  0.49464277829E+01  0.36037214264E+02  0.00000000000E+00 0. -1.
</event>
<event>
 7    1  0.2809593E-013  0.7246185E+02  0.7816164E-02  0.1226707E+00
        -11   -1    0    0    0    0  0.00000000000E+00  0.00000000000E+00  0.45593999997E+02  0.45594000000E+02  0.51100000000E-03 0. -1.
         11   -1    0    0    0    0 -0.00000000000E+00 -0.00000000000E+00 -0.45593999997E+02  0.45594000000E+02  0.51100000000E-03 0.  1.
    9900012    2    1    2    0    0  0.49738196366E+01  0.84822685970E+01  0.15936784378E+02  0.72461845599E+02  0.70000358635E+02 0.  0.
        -12    1    1    2    0    0 -0.49738196366E+01 -0.84822685970E+01 -0.15936784378E+02  0.18726154401E+02  0.00000000000E+00 0.  1.
         11    1    3    3    0    0  0.74441696994E+01 -0.45376953626E+01  0.85607247517E+01  0.12218524880E+02  0.51100000000E-03 0. -1.
        -11    1    3    3    0    0  0.10289720515E+02  0.27150361221E+02 -0.13473549037E+02  0.32008701733E+02  0.51100000000E-03 0.  1.
         12    1    3    3    0    0 -0.12760070578E+02 -0.14130397261E+02  0.20849608663E+02  0.28234618986E+02  0.00000000000E+00 0. -1.
</event>
<event>
 7    1  0.2809593E-013  0.7246157E+02  0.7816164E-02  0.1226708E+00
        -11   -1    0    0    0    0  0.00000000000E+00  0.00000000000E+00  0.45593999997E+02  0.45594000000E+02  0.51100000000E-03 0.  1.
         11   -1    0    0    0    0 -0.00000000000E+00 -0.00000000000E+00 -0.45593999997E+02  0.45594000000E+02  0.51100000000E-03 0. -1.
    9900012    2    1    2    0    0  0.97404413532E+01  0.15984853267E+02 -0.53604038395E+00  0.72461572925E+02  0.70000003427E+02 0.  0.
        -12    1    1    2    0    0 -0.97404413532E+01 -0.15984853267E+02  0.53604038395E+00  0.18726427075E+02  0.00000000000E+00 0.  1.
         11    1    3    3    0    0  0.19609936007E+02  0.90421042304E+01 -0.20340058910E+02  0.29665253004E+02  0.51100000000E-03 0. -1.
        -11    1    3    3    0    0  0.71862336053E+01  0.16051391096E+02  0.45434805279E+01  0.18164039340E+02  0.51100000000E-03 0.  1.
        -12    1    3    3    0    0 -0.17055728259E+02 -0.91086420601E+01  0.15260537998E+02  0.24632280581E+02  0.00000000000E+00 0.  1.
</event>
<event>
 7    1  0.2809593E-013  0.7246155E+02  0.7816164E-02  0.1226708E+00
        -11   -1    0    0    0    0  0.00000000000E+00  0.00000000000E+00  0.45593999997E+02  0.45594000000E+02  0.51100000000E-03 0.  1.
         11   -1    0    0    0    0 -0.00000000000E+00 -0.00000000000E+00 -0.45593999997E+02  0.45594000000E+02  0.51100000000E-03 0. -1.
    9900012    2    1    2    0    0  0.33915964313E+01 -0.80854100049E+01 -0.16546992646E+02  0.72461554877E+02  0.69999979917E+02 0.  0.
        -12    1    1    2    0    0 -0.33915964313E+01  0.80854100049E+01  0.16546992646E+02  0.18726445123E+02  0.00000000000E+00 0.  1.
         11    1    3    3    0    0  0.33505536768E+02  0.68119386138E+01 -0.44311124368E+01  0.34476923579E+02  0.51100000000E-03 0. -1.
        -11    1    3    3    0    0  0.77530915845E+00  0.99569377706E+00 -0.46136034582E+00  0.13436383511E+01  0.51100000000E-03 0.  1.
        -12    1    3    3    0    0 -0.30889249495E+02 -0.15893042396E+02 -0.11654519863E+02  0.36640992948E+02  0.00000000000E+00 0.  1.
</event>
<event>
 7    1  0.2809593E-013  0.7246153E+02  0.7816164E-02  0.1226708E+00
        -11   -1    0    0    0    0  0.00000000000E+00  0.00000000000E+00  0.45593999997E+02  0.45594000000E+02  0.51100000000E-03 0.  1.
         11   -1    0    0    0    0 -0.00000000000E+00 -0.00000000000E+00 -0.45593999997E+02  0.45594000000E+02  0.51100000000E-03 0. -1.
    9900012    2    1    2    0    0  0.99496050722E+00  0.15877326536E+01 -0.18632497210E+02  0.72461526929E+02  0.69999943509E+02 0.  0.
        -12    1    1    2    0    0 -0.99496050722E+00 -0.15877326536E+01  0.18632497210E+02  0.18726473071E+02  0.00000000000E+00 0.  1.
         11    1    3    3    0    0  0.21204587207E+01 -0.62348712304E+01  0.51568997113E+01  0.83644234314E+01  0.51100000000E-03 0. -1.
        -11    1    3    3    0    0 -0.10450573318E+02  0.14692773714E+01  0.17970200711E+02  0.20839898573E+02  0.51100000000E-03 0.  1.
         12    1    3    3    0    0  0.93250751048E+01  0.63533265126E+01 -0.41759597632E+02  0.43257204925E+02  0.00000000000E+00 0. -1.
</event>
<event>
 7    1  0.2809593E-013  0.7246159E+02  0.7816164E-02  0.1226708E+00
        -11   -1    0    0    0    0  0.00000000000E+00  0.00000000000E+00  0.45593999997E+02  0.45594000000E+02  0.51100000000E-03 0.  1.
         11   -1    0    0    0    0 -0.00000000000E+00 -0.00000000000E+00 -0.45593999997E+02  0.45594000000E+02  0.51100000000E-03 0. -1.
    9900012    2    1    2    0    0  0.16112539732E+02  0.61468285679E+01  0.72993731358E+01  0.72461593878E+02  0.70000030723E+02 0.  0.
        -12    1    1    2    0    0 -0.16112539732E+02 -0.61468285679E+01 -0.72993731358E+01  0.18726406122E+02  0.00000000000E+00 0.  1.
         11    1    3    3    0    0  0.47573989986E+00  0.64501538133E+01  0.57585417096E-01  0.64679308135E+01  0.51100000000E-03 0. -1.
        -11    1    3    3    0    0  0.33774652539E+02  0.19238234620E+02  0.28646895286E+01  0.38974905667E+02  0.51100000000E-03 0.  1.
         12    1    3    3    0    0 -0.18137852707E+02 -0.19541559865E+02  0.43770981901E+01  0.27018757398E+02  0.00000000000E+00 0. -1.
</event>
<event>
 7    1  0.2809593E-013  0.7246164E+02  0.7816164E-02  0.1226708E+00
        -11   -1    0    0    0    0  0.00000000000E+00  0.00000000000E+00  0.45593999997E+02  0.45594000000E+02  0.51100000000E-03 0.  1.
         11   -1    0    0    0    0 -0.00000000000E+00 -0.00000000000E+00 -0.45593999997E+02  0.45594000000E+02  0.51100000000E-03 0. -1.
    9900012    2    1    2    0    0  0.10526227188E+02  0.97846565108E+01 -0.12005642413E+02  0.72461643932E+02  0.70000095926E+02 0.  0.
        -12    1    1    2    0    0 -0.10526227188E+02 -0.97846565108E+01  0.12005642413E+02  0.18726356068E+02  0.00000000000E+00 0.  1.
         11    1    3    3    0    0  0.33464445889E+02  0.18083887154E+01 -0.12771396380E+02  0.35864299437E+02  0.51100000000E-03 0. -1.
        -11    1    3    3    0    0  0.48644052942E+00  0.12225581384E+02 -0.27271819149E+01  0.12535509006E+02  0.51100000000E-03 0.  1.
        -12    1    3    3    0    0 -0.23424659230E+02 -0.42493135888E+01  0.34929358818E+01  0.24061835489E+02  0.00000000000E+00 0.  1.
</event>
<event>
 7    1  0.2809593E-013  0.7246152E+02  0.7816164E-02  0.1226708E+00
        -11   -1    0    0    0    0  0.00000000000E+00  0.00000000000E+00  0.45593999997E+02  0.45594000000E+02  0.51100000000E-03 0.  1.
         11   -1    0    0    0    0 -0.00000000000E+00 -0.00000000000E+00 -0.45593999997E+02  0.45594000000E+02  0.51100000000E-03 0. -1.
    9900012    2    1    2    0    0  0.15701286554E+02 -0.10065253207E+02  0.16856621225E+01  0.72461516658E+02  0.69999930129E+02 0.  0.
        -12    1    1    2    0    0 -0.15701286554E+02  0.10065253207E+02 -0.16856621225E+01  0.18726483342E+02  0.00000000000E+00 0.  1.
         11    1    3    3    0    0 -0.12657409653E+01 -0.43972927456E+01  0.97581042549E+01  0.10777703030E+02  0.51100000000E-03 0.  1.
        -11    1    3    3    0    0  0.32618891752E+02  0.78550440134E+00 -0.22340079837E+02  0.39543498627E+02  0.51100000000E-03 0. -1.
         12    1    3    3    0    0 -0.15651864233E+02 -0.64534648628E+01  0.14267637705E+02  0.22140315002E+02  0.00000000000E+00 0. -1.
</event>
<event>
 7    1  0.2809593E-013  0.7246149E+02  0.7816164E-02  0.1226708E+00
        -11   -1    0    0    0    0  0.00000000000E+00  0.00000000000E+00  0.45593999997E+02  0.45594000000E+02  0.51100000000E-03 0.  1.
         11   -1    0    0    0    0 -0.00000000000E+00 -0.00000000000E+00 -0.45593999997E+02  0.45594000000E+02  0.51100000000E-03 0. -1.
    9900012    2    1    2    0    0 -0.20995475040E+01 -0.95922974582E+01 -0.15945587835E+02  0.72461493608E+02  0.69999900101E+02 0.  0.
        -12    1    1    2    0    0  0.20995475040E+01  0.95922974582E+01  0.15945587835E+02  0.18726506392E+02  0.00000000000E+00 0.  1.
         11    1    3    3    0    0  0.30566179099E+01 -0.29891984358E+01 -0.60822382309E+01  0.74345035136E+01  0.51100000000E-03 0. -1.
        -11    1    3    3    0    0  0.15425375852E+02 -0.23581966772E+02 -0.21966337212E+02  0.35729138638E+02  0.51100000000E-03 0.  1.
         12    1    3    3    0    0 -0.20581541266E+02  0.16978867749E+02  0.12102987608E+02  0.29297851457E+02  0.00000000000E+00 0. -1.
</event>
<event>
 7    1  0.2809593E-013  0.7246155E+02  0.7816164E-02  0.1226708E+00
        -11   -1    0    0    0    0  0.00000000000E+00  0.00000000000E+00  0.45593999997E+02  0.45594000000E+02  0.51100000000E-03 0. -1.
         11   -1    0    0    0    0 -0.00000000000E+00 -0.00000000000E+00 -0.45593999997E+02  0.45594000000E+02  0.51100000000E-03 0.  1.
    9900012    2    1    2    0    0 -0.17223286193E+02  0.72035838129E+01 -0.14652326812E+01  0.72461545081E+02  0.69999967155E+02 0.  0.
        -12    1    1    2    0    0  0.17223286193E+02 -0.72035838129E+01  0.14652326812E+01  0.18726454919E+02  0.00000000000E+00 0.  1.
         11    1    3    3    0    0  0.12882983764E+01  0.15225557415E+02 -0.16520657937E+02  0.22503543059E+02  0.51100000000E-03 0. -1.
        -11    1    3    3    0    0  0.75925431599E+01 -0.17930065996E+02  0.37201141731E+01  0.19823552355E+02  0.51100000000E-03 0.  1.
         12    1    3    3    0    0 -0.26104127729E+02  0.99080923940E+01  0.11335311083E+02  0.30134449667E+02  0.00000000000E+00 0. -1.
</event>
<event>
 7    1  0.2809593E-013  0.7246155E+02  0.7816164E-02  0.1226708E+00
        -11   -1    0    0    0    0  0.00000000000E+00  0.00000000000E+00  0.45593999997E+02  0.45594000000E+02  0.51100000000E-03 0.  1.
         11   -1    0    0    0    0 -0.00000000000E+00 -0.00000000000E+00 -0.45593999997E+02  0.45594000000E+02  0.51100000000E-03 0. -1.
    9900012    2    1    2    0    0 -0.10588639414E+01  0.10280959281E+02 -0.15616040634E+02  0.72461547008E+02  0.69999969665E+02 0.  0.
        -12    1    1    2    0    0  0.10588639414E+01 -0.10280959281E+02  0.15616040634E+02  0.18726452992E+02  0.00000000000E+00 0.  1.
         11    1    3    3    0    0 -0.19016147168E+02  0.64781743623E+01 -0.66607818991E+01  0.21164749277E+02  0.51100000000E-03 0. -1.
        -11    1    3    3    0    0 -0.10533953938E+02 -0.66224805643E+01 -0.15883678107E+02  0.20177033103E+02  0.51100000000E-03 0.  1.
         12    1    3    3    0    0  0.28491237164E+02  0.10425265483E+02  0.69284193721E+01  0.31119764628E+02  0.00000000000E+00 0. -1.
</event>
<event>
 7    1  0.2809593E-013  0.7246195E+02  0.7816164E-02  0.1226707E+00
        -11   -1    0    0    0    0  0.00000000000E+00  0.00000000000E+00  0.45593999997E+02  0.45594000000E+02  0.51100000000E-03 0. -1.
         11   -1    0    0    0    0 -0.00000000000E+00 -0.00000000000E+00 -0.45593999997E+02  0.45594000000E+02  0.51100000000E-03 0.  1.
    9900012    2    1    2    0    0  0.29939454008E+01 -0.62468918071E+01  0.17397629255E+02  0.72461952098E+02  0.70000497369E+02 0.  0.
        -12    1    1    2    0    0 -0.29939454008E+01  0.62468918071E+01 -0.17397629255E+02  0.18726047902E+02  0.00000000000E+00 0.  1.
         11    1    3    3    0    0  0.20890090303E+02 -0.18930463420E+02 -0.25153278391E+01  0.28303448422E+02  0.51100000000E-03 0. -1.
        -11    1    3    3    0    0 -0.62313818574E+01 -0.40322959452E+01 -0.71312649865E+01  0.10292933062E+02  0.51100000000E-03 0.  1.
         12    1    3    3    0    0 -0.11664763045E+02  0.16715867558E+02  0.27044222081E+02  0.33865570615E+02  0.00000000000E+00 0. -1.
</event>
<event>
 7    1  0.2809593E-013  0.7246168E+02  0.7816164E-02  0.1226708E+00
        -11   -1    0    0    0    0  0.00000000000E+00  0.00000000000E+00  0.45593999997E+02  0.45594000000E+02  0.51100000000E-03 0.  1.
         11   -1    0    0    0    0 -0.00000000000E+00 -0.00000000000E+00 -0.45593999997E+02  0.45594000000E+02  0.51100000000E-03 0. -1.
    9900012    2    1    2    0    0 -0.23665087809E+01 -0.74099133752E+01 -0.17034314150E+02  0.72461680591E+02  0.70000143682E+02 0.  0.
        -12    1    1    2    0    0  0.23665087809E+01  0.74099133752E+01  0.17034314150E+02  0.18726319409E+02  0.00000000000E+00 0.  1.
         11    1    3    3    0    0 -0.18899231102E+02  0.94767990350E+00 -0.21033964416E+02  0.28293226977E+02  0.51100000000E-03 0. -1.
        -11    1    3    3    0    0  0.10052857330E+02 -0.87899343879E+01 -0.17326534259E+02  0.21875366894E+02  0.51100000000E-03 0.  1.
         12    1    3    3    0    0  0.64798649909E+01  0.43234110917E+00  0.21326184525E+02  0.22293086721E+02  0.00000000000E+00 0. -1.
</event>
<event>
 7    1  0.2809593E-013  0.7246149E+02  0.7816164E-02  0.1226708E+00
        -11   -1    0    0    0    0  0.00000000000E+00  0.00000000000E+00  0.45593999997E+02  0.45594000000E+02  0.51100000000E-03 0.  1.
         11   -1    0    0    0    0 -0.00000000000E+00 -0.00000000000E+00 -0.45593999997E+02  0.45594000000E+02  0.51100000000E-03 0. -1.
    9900012    2    1    2    0    0  0.54796881739E+01 -0.17074992898E+02 -0.53944343537E+01  0.72461487058E+02  0.69999891570E+02 0.  0.
        -12    1    1    2    0    0 -0.54796881739E+01  0.17074992898E+02  0.53944343537E+01  0.18726512942E+02  0.00000000000E+00 0.  1.
         11    1    3    3    0    0 -0.13323735043E+02  0.60395225703E+01 -0.19565004446E+02  0.24429227323E+02  0.51100000000E-03 0. -1.
        -11    1    3    3    0    0 -0.65513292777E+01  0.46974499660E+01  0.42448282841E+01  0.91106815832E+01  0.51100000000E-03 0.  1.
         12    1    3    3    0    0  0.25354752494E+02 -0.27811965435E+02  0.99257418085E+01  0.38921578152E+02  0.00000000000E+00 0. -1.
</event>
<event>
 7    1  0.2809593E-013  0.7246157E+02  0.7816164E-02  0.1226708E+00
        -11   -1    0    0    0    0  0.00000000000E+00  0.00000000000E+00  0.45593999997E+02  0.45594000000E+02  0.51100000000E-03 0. -1.
         11   -1    0    0    0    0 -0.00000000000E+00 -0.00000000000E+00 -0.45593999997E+02  0.45594000000E+02  0.51100000000E-03 0.  1.
    9900012    2    1    2    0    0 -0.12370204316E+02  0.52466071420E+01  0.13043407424E+02  0.72461566315E+02  0.69999994817E+02 0.  0.
        -12    1    1    2    0    0  0.12370204316E+02 -0.52466071420E+01 -0.13043407424E+02  0.18726433685E+02  0.00000000000E+00 0.  1.
         11    1    3    3    0    0  0.23026396736E+01  0.80514722212E+01 -0.77943789040E+01  0.11440310186E+02  0.51100000000E-03 0. -1.
        -11    1    3    3    0    0 -0.11816153689E+02  0.76186862750E+01 -0.16774343317E+02  0.21887084377E+02  0.51100000000E-03 0.  1.
         12    1    3    3    0    0 -0.28566903005E+01 -0.10423551354E+02  0.37612129645E+02  0.39134171752E+02  0.00000000000E+00 0. -1.
</event>
<event>
 7    1  0.2809593E-013  0.7246159E+02  0.7816164E-02  0.1226708E+00
        -11   -1    0    0    0    0  0.00000000000E+00  0.00000000000E+00  0.45593999997E+02  0.45594000000E+02  0.51100000000E-03 0.  1.
         11   -1    0    0    0    0 -0.00000000000E+00 -0.00000000000E+00 -0.45593999997E+02  0.45594000000E+02  0.51100000000E-03 0. -1.
    9900012    2    1    2    0    0 -0.86191024814E+01  0.15816032713E+02  0.51227708969E+01  0.72461585500E+02  0.70000019808E+02 0.  0.
        -12    1    1    2    0    0  0.86191024814E+01 -0.15816032713E+02 -0.51227708969E+01  0.18726414500E+02  0.00000000000E+00 0.  1.
         11    1    3    3    0    0  0.94727917369E+01  0.27444693516E+01 -0.17574610103E+02  0.20152737180E+02  0.51100000000E-03 0. -1.
        -11    1    3    3    0    0  0.10468515327E+02  0.46217955425E+01  0.19157561760E+02  0.22315084137E+02  0.51100000000E-03 0.  1.
        -12    1    3    3    0    0 -0.28560409545E+02  0.84497678193E+01  0.35398192401E+01  0.29993764183E+02  0.00000000000E+00 0.  1.
</event>
<event>
 7    1  0.2809593E-013  0.7246152E+02  0.7816164E-02  0.1226708E+00
        -11   -1    0    0    0    0  0.00000000000E+00  0.00000000000E+00  0.45593999997E+02  0.45594000000E+02  0.51100000000E-03 0.  1.
         11   -1    0    0    0    0 -0.00000000000E+00 -0.00000000000E+00 -0.45593999997E+02  0.45594000000E+02  0.51100000000E-03 0. -1.
    9900012    2    1    2    0    0  0.34698687833E+01  0.12208954236E+02 -0.13768889937E+02  0.72461524544E+02  0.69999940401E+02 0.  0.
        -12    1    1    2    0    0 -0.34698687833E+01 -0.12208954236E+02  0.13768889937E+02  0.18726475456E+02  0.00000000000E+00 0.  1.
         11    1    3    3    0    0  0.19539206762E+02  0.79501290434E+01 -0.27508274509E+01  0.21273274421E+02  0.51100000000E-03 0. -1.
        -11    1    3    3    0    0 -0.37482706986E+01  0.17440829517E+02 -0.23312029007E+02  0.29354433467E+02  0.51100000000E-03 0.  1.
        -12    1    3    3    0    0 -0.12321067280E+02 -0.13182004324E+02  0.12293966521E+02  0.21833816655E+02  0.00000000000E+00 0.  1.
</event>
<event>
 7    1  0.2809593E-013  0.7246157E+02  0.7816164E-02  0.1226708E+00
        -11   -1    0    0    0    0  0.00000000000E+00  0.00000000000E+00  0.45593999997E+02  0.45594000000E+02  0.51100000000E-03 0.  1.
         11   -1    0    0    0    0 -0.00000000000E+00 -0.00000000000E+00 -0.45593999997E+02  0.45594000000E+02  0.51100000000E-03 0. -1.
    9900012    2    1    2    0    0  0.17838296384E+02  0.30076916991E+00 -0.56907003617E+01  0.72461565460E+02  0.69999993703E+02 0.  0.
        -12    1    1    2    0    0 -0.17838296384E+02 -0.30076916991E+00  0.56907003617E+01  0.18726434540E+02  0.00000000000E+00 0.  1.
         11    1    3    3    0    0  0.16930263202E+01 -0.13356461966E+02 -0.23940712958E+02  0.27466691675E+02  0.51100000000E-03 0. -1.
        -11    1    3    3    0    0 -0.11259698244E+02  0.43365439628E+01  0.38570385759E+01  0.12667405612E+02  0.51100000000E-03 0.  1.
        -12    1    3    3    0    0  0.27404968308E+02  0.93206871729E+01  0.14392974021E+02  0.32327468173E+02  0.00000000000E+00 0.  1.
</event>
<event>
 7    1  0.2809593E-013  0.7246157E+02  0.7816164E-02  0.1226708E+00
        -11   -1    0    0    0    0  0.00000000000E+00  0.00000000000E+00  0.45593999997E+02  0.45594000000E+02  0.51100000000E-03 0.  1.
         11   -1    0    0    0    0 -0.00000000000E+00 -0.00000000000E+00 -0.45593999997E+02  0.45594000000E+02  0.51100000000E-03 0. -1.
    9900012    2    1    2    0    0 -0.84506661620E+00 -0.18699362245E+02 -0.54660167092E+00  0.72461573236E+02  0.70000003832E+02 0.  0.
        -12    1    1    2    0    0  0.84506661620E+00  0.18699362245E+02  0.54660167092E+00  0.18726426764E+02  0.00000000000E+00 0.  1.
         11    1    3    3    0    0  0.64179817762E+01  0.12626777280E+02 -0.72240550522E+01  0.15900093277E+02  0.51100000000E-03 0. -1.
        -11    1    3    3    0    0  0.17243561741E+02 -0.22698869126E+02  0.10341224768E+02  0.30323588360E+02  0.51100000000E-03 0.  1.
         12    1    3    3    0    0 -0.24506610133E+02 -0.86272703995E+01 -0.36637713865E+01  0.26237891598E+02  0.00000000000E+00 0. -1.
</event>
<event>
 7    1  0.2809593E-013  0.7246154E+02  0.7816164E-02  0.1226708E+00
        -11   -1    0    0    0    0  0.00000000000E+00  0.00000000000E+00  0.45593999997E+02  0.45594000000E+02  0.51100000000E-03 0.  1.
         11   -1    0    0    0    0 -0.00000000000E+00 -0.00000000000E+00 -0.45593999997E+02  0.45594000000E+02  0.51100000000E-03 0. -1.
    9900012    2    1    2    0    0  0.90190781818E+01  0.14936234393E+02 -0.68003889094E+01  0.72461543891E+02  0.69999965605E+02 0.  0.
        -12    1    1    2    0    0 -0.90190781818E+01 -0.14936234393E+02  0.68003889094E+01  0.18726456109E+02  0.00000000000E+00 0.  1.
         11    1    3    3    0    0  0.85085785730E+01  0.19914816579E+01  0.98277068316E+01  0.13150883254E+02  0.51100000000E-03 0. -1.
        -11    1    3    3    0    0  0.15450519699E+02 -0.52646742877E+01  0.13419891721E+02  0.21131229221E+02  0.51100000000E-03 0.  1.
         12    1    3    3    0    0 -0.14940020090E+02  0.18209427022E+02 -0.30047987462E+02  0.38179431417E+02  0.00000000000E+00 0. -1.
</event>
<event>
 7    1  0.2809593E-013  0.7246156E+02  0.7816164E-02  0.1226708E+00
        -11   -1    0    0    0    0  0.00000000000E+00  0.00000000000E+00  0.45593999997E+02  0.45594000000E+02  0.51100000000E-03 0. -1.
         11   -1    0    0    0    0 -0.00000000000E+00 -0.00000000000E+00 -0.45593999997E+02  0.45594000000E+02  0.51100000000E-03 0.  1.
    9900012    2    1    2    0    0 -0.71045087937E+01  0.12022949903E+02  0.12476147474E+02  0.72461558123E+02  0.69999984145E+02 0.  0.
        -12    1    1    2    0    0  0.71045087937E+01 -0.12022949903E+02 -0.12476147474E+02  0.18726441877E+02  0.00000000000E+00 0.  1.
         11    1    3    3    0    0 -0.84178585538E+01  0.28278656413E+01  0.30594037147E+02  0.31856746160E+02  0.51100000000E-03 0.  1.
        -11    1    3    3    0    0  0.13547396453E+02  0.11624661115E+02  0.88613992806E+00  0.17873162589E+02  0.51100000000E-03 0. -1.
        -12    1    3    3    0    0 -0.12234046693E+02 -0.24295768528E+01 -0.19004029601E+02  0.22731649374E+02  0.00000000000E+00 0.  1.
</event>
<event>
 7    1  0.2809593E-013  0.7246159E+02  0.7816164E-02  0.1226708E+00
        -11   -1    0    0    0    0  0.00000000000E+00  0.00000000000E+00  0.45593999997E+02  0.45594000000E+02  0.51100000000E-03 0.  1.
         11   -1    0    0    0    0 -0.00000000000E+00 -0.00000000000E+00 -0.45593999997E+02  0.45594000000E+02  0.51100000000E-03 0. -1.
    9900012    2    1    2    0    0 -0.16135082007E+01 -0.18608985727E+02 -0.13343833026E+01  0.72461592515E+02  0.70000028947E+02 0.  0.
        -12    1    1    2    0    0  0.16135082007E+01  0.18608985727E+02  0.13343833026E+01  0.18726407485E+02  0.00000000000E+00 0.  1.
         11    1    3    3    0    0  0.29421557934E+02 -0.76890109190E+01 -0.10859018374E+02  0.32290358321E+02  0.51100000000E-03 0. -1.
        -11    1    3    3    0    0 -0.15924254330E+01  0.52143913707E+01  0.13452567080E+01  0.56156399456E+01  0.51100000000E-03 0.  1.
        -12    1    3    3    0    0 -0.29442640702E+02 -0.16134366178E+02  0.81793783637E+01  0.34555594249E+02  0.00000000000E+00 0.  1.
</event>
<event>
 7    1  0.2809593E-013  0.7246159E+02  0.7816164E-02  0.1226708E+00
        -11   -1    0    0    0    0  0.00000000000E+00  0.00000000000E+00  0.45593999997E+02  0.45594000000E+02  0.51100000000E-03 0.  1.
         11   -1    0    0    0    0 -0.00000000000E+00 -0.00000000000E+00 -0.45593999997E+02  0.45594000000E+02  0.51100000000E-03 0. -1.
    9900012    2    1    2    0    0 -0.12351638575E+02 -0.12200675922E+02  0.70184606002E+01  0.72461594641E+02  0.70000031717E+02 0.  0.
        -12    1    1    2    0    0  0.12351638575E+02  0.12200675922E+02 -0.70184606002E+01  0.18726405359E+02  0.00000000000E+00 0.  1.
         11    1    3    3    0    0  0.12229368558E+02  0.34489393884E+01 -0.50922096146E+01  0.13688799701E+02  0.51100000000E-03 0. -1.
        -11    1    3    3    0    0  0.62182274578E+01  0.31100310828E+01  0.20585323592E+02  0.21727728683E+02  0.51100000000E-03 0.  1.
         12    1    3    3    0    0 -0.30799234591E+02 -0.18759646393E+02 -0.84746533773E+01  0.37045066258E+02  0.00000000000E+00 0. -1.
</event>
<event>
 7    1  0.2809593E-013  0.7246156E+02  0.7816164E-02  0.1226708E+00
        -11   -1    0    0    0    0  0.00000000000E+00  0.00000000000E+00  0.45593999997E+02  0.45594000000E+02  0.51100000000E-03 0.  1.
         11   -1    0    0    0    0 -0.00000000000E+00 -0.00000000000E+00 -0.45593999997E+02  0.45594000000E+02  0.51100000000E-03 0. -1.
    9900012    2    1    2    0    0 -0.80674501375E+01 -0.13298511013E+02  0.10428111494E+02  0.72461557300E+02  0.69999983072E+02 0.  0.
        -12    1    1    2    0    0  0.80674501375E+01  0.13298511013E+02 -0.10428111494E+02  0.18726442700E+02  0.00000000000E+00 0.  1.
         11    1    3    3    0    0 -0.10968450515E+02  0.23877035501E+01  0.21714425464E+02  0.24444310349E+02  0.51100000000E-03 0. -1.
        -11    1    3    3    0    0  0.13767263329E+02  0.74598301886E+01  0.64114531152E+01  0.16920205002E+02  0.51100000000E-03 0.  1.
         12    1    3    3    0    0 -0.10866262951E+02 -0.23146044752E+02 -0.17697767085E+02  0.31097041949E+02  0.00000000000E+00 0. -1.
</event>
<event>
 7    1  0.2809593E-013  0.7246155E+02  0.7816164E-02  0.1226708E+00
        -11   -1    0    0    0    0  0.00000000000E+00  0.00000000000E+00  0.45593999997E+02  0.45594000000E+02  0.51100000000E-03 0. -1.
         11   -1    0    0    0    0 -0.00000000000E+00 -0.00000000000E+00 -0.45593999997E+02  0.45594000000E+02  0.51100000000E-03 0.  1.
    9900012    2    1    2    0    0  0.99808259408E+01  0.12400661917E+02  0.98634032276E+01  0.72461547435E+02  0.69999970222E+02 0.  0.
        -12    1    1    2    0    0 -0.99808259408E+01 -0.12400661917E+02 -0.98634032276E+01  0.18726452565E+02  0.00000000000E+00 0.  1.
         11    1    3    3    0    0  0.22206215180E+02  0.11416861906E+02 -0.15523438088E+02  0.29401324099E+02  0.51100000000E-03 0. -1.
        -11    1    3    3    0    0 -0.37652055236E+01 -0.42952528395E+01 -0.70797707433E+01  0.90966545295E+01  0.51100000000E-03 0.  1.
         12    1    3    3    0    0 -0.84601837157E+01  0.52790528506E+01  0.32466612059E+02  0.33963568807E+02  0.00000000000E+00 0. -1.
</event>
<event>
 7    1  0.2809593E-013  0.7246156E+02  0.7816164E-02  0.1226708E+00
        -11   -1    0    0    0    0  0.00000000000E+00  0.00000000000E+00  0.45593999997E+02  0.45594000000E+02  0.51100000000E-03 0.  1.
         11   -1    0    0    0    0 -0.00000000000E+00 -0.00000000000E+00 -0.45593999997E+02  0.45594000000E+02  0.51100000000E-03 0. -1.
    9900012    2    1    2    0    0 -0.76476654475E+01 -0.16580924094E+02 -0.41552099005E+01  0.72461558802E+02  0.69999985030E+02 0.  0.
        -12    1    1    2    0    0  0.76476654475E+01  0.16580924094E+02  0.41552099005E+01  0.18726441198E+02  0.00000000000E+00 0.  1.
         11    1    3    3    0    0 -0.21717568106E+02 -0.14162109416E+02 -0.12003145467E+02  0.28570852436E+02  0.51100000000E-03 0. -1.
        -11    1    3    3    0    0  0.18484748621E+02 -0.30551469890E+01 -0.12849245756E+02  0.22718339981E+02  0.51100000000E-03 0.  1.
        -12    1    3    3    0    0 -0.44148459623E+01  0.63633231113E+00  0.20697181323E+02  0.21172366386E+02  0.00000000000E+00 0.  1.
</event>
<event>
 7    1  0.2809593E-013  0.7246146E+02  0.7816164E-02  0.1226708E+00
        -11   -1    0    0    0    0  0.00000000000E+00  0.00000000000E+00  0.45593999997E+02  0.45594000000E+02  0.51100000000E-03 0.  1.
         11   -1    0    0    0    0 -0.00000000000E+00 -0.00000000000E+00 -0.45593999997E+02  0.45594000000E+02  0.51100000000E-03 0. -1.
    9900012    2    1    2    0    0  0.72406137358E+01 -0.16300391047E+02  0.57056013309E+01  0.72461464760E+02  0.69999862521E+02 0.  0.
        -12    1    1    2    0    0 -0.72406137358E+01  0.16300391047E+02 -0.57056013309E+01  0.18726535240E+02  0.00000000000E+00 0.  1.
         11    1    3    3    0    0  0.31059721130E+02 -0.23770416445E+02 -0.33633188846E+01  0.39256221021E+02  0.51100000000E-03 0. -1.
        -11    1    3    3    0    0  0.19590261877E+01 -0.33780094812E+01  0.18493605497E+01  0.43207483569E+01  0.51100000000E-03 0.  1.
        -12    1    3    3    0    0 -0.25778133582E+02  0.10848034879E+02  0.72195596658E+01  0.28884495382E+02  0.00000000000E+00 0.  1.
</event>
<event>
 7    1  0.2809593E-013  0.7246143E+02  0.7816164E-02  0.1226708E+00
        -11   -1    0    0    0    0  0.00000000000E+00  0.00000000000E+00  0.45593999997E+02  0.45594000000E+02  0.51100000000E-03 0. -1.
         11   -1    0    0    0    0 -0.00000000000E+00 -0.00000000000E+00 -0.45593999997E+02  0.45594000000E+02  0.51100000000E-03 0.  1.
    9900012    2    1    2    0    0  0.87196344183E+01 -0.16366090718E+02  0.26083522911E+01  0.72461429266E+02  0.69999816285E+02 0.  0.
        -12    1    1    2    0    0 -0.87196344183E+01  0.16366090718E+02 -0.26083522911E+01  0.18726570734E+02  0.00000000000E+00 0.  1.
         11    1    3    3    0    0  0.12820176795E+02  0.69946803238E+01  0.14069913625E+02  0.20279175417E+02  0.51100000000E-03 0. -1.
        -11    1    3    3    0    0 -0.10786815780E+02  0.99728254245E+01  0.33991258065E+01  0.15078683568E+02  0.51100000000E-03 0.  1.
        -12    1    3    3    0    0  0.66862734035E+01 -0.33333596466E+02 -0.14860687141E+02  0.37103570282E+02  0.00000000000E+00 0.  1.
</event>
<event>
 7    1  0.2809593E-013  0.7246155E+02  0.7816164E-02  0.1226708E+00
        -11   -1    0    0    0    0  0.00000000000E+00  0.00000000000E+00  0.45593999997E+02  0.45594000000E+02  0.51100000000E-03 0. -1.
         11   -1    0    0    0    0 -0.00000000000E+00 -0.00000000000E+00 -0.45593999997E+02  0.45594000000E+02  0.51100000000E-03 0.  1.
    9900012    2    1    2    0    0  0.13416497074E+02 -0.72684749413E+00  0.13044131117E+02  0.72461546582E+02  0.69999969110E+02 0.  0.
        -12    1    1    2    0    0 -0.13416497074E+02  0.72684749413E+00 -0.13044131117E+02  0.18726453418E+02  0.00000000000E+00 0.  1.
         11    1    3    3    0    0  0.12143474452E+02 -0.17281214032E+02  0.68904469606E+01  0.22216718699E+02  0.51100000000E-03 0. -1.
        -11    1    3    3    0    0  0.22314920694E+02 -0.11479530285E+01  0.19796850390E+01  0.22431955663E+02  0.51100000000E-03 0.  1.
        -12    1    3    3    0    0 -0.21041898072E+02  0.17702319566E+02  0.41739991173E+01  0.27812872220E+02  0.00000000000E+00 0.  1.
</event>
<event>
 7    1  0.2809593E-013  0.7246158E+02  0.7816164E-02  0.1226708E+00
        -11   -1    0    0    0    0  0.00000000000E+00  0.00000000000E+00  0.45593999997E+02  0.45594000000E+02  0.51100000000E-03 0.  1.
         11   -1    0    0    0    0 -0.00000000000E+00 -0.00000000000E+00 -0.45593999997E+02  0.45594000000E+02  0.51100000000E-03 0. -1.
    9900012    2    1    2    0    0  0.13312283184E+02 -0.92032400104E+01 -0.94213750977E+01  0.72461579654E+02  0.70000012192E+02 0.  0.
        -12    1    1    2    0    0 -0.13312283184E+02  0.92032400104E+01  0.94213750977E+01  0.18726420346E+02  0.00000000000E+00 0.  1.
         11    1    3    3    0    0  0.94126262525E+01 -0.10938038804E+02 -0.52001266362E+01  0.15338824699E+02  0.51100000000E-03 0. -1.
        -11    1    3    3    0    0  0.24722564711E+02 -0.14113457070E+02 -0.10272697626E+02  0.30264222989E+02  0.51100000000E-03 0.  1.
        -12    1    3    3    0    0 -0.20822907780E+02  0.15848255864E+02  0.60514491642E+01  0.26858531966E+02  0.00000000000E+00 0.  1.
</event>
<event>
 7    1  0.2809593E-013  0.7246176E+02  0.7816164E-02  0.1226708E+00
        -11   -1    0    0    0    0  0.00000000000E+00  0.00000000000E+00  0.45593999997E+02  0.45594000000E+02  0.51100000000E-03 0.  1.
         11   -1    0    0    0    0 -0.00000000000E+00 -0.00000000000E+00 -0.45593999997E+02  0.45594000000E+02  0.51100000000E-03 0. -1.
    9900012    2    1    2    0    0  0.11009682656E+02 -0.45887488483E+01 -0.14436151364E+02  0.72461756534E+02  0.70000242611E+02 0.  0.
        -12    1    1    2    0    0 -0.11009682656E+02  0.45887488483E+01  0.14436151364E+02  0.18726243466E+02  0.00000000000E+00 0.  1.
         11    1    3    3    0    0 -0.20846007402E+01 -0.34073191854E+01  0.24018047290E+01  0.46609066172E+01  0.51100000000E-03 0. -1.
        -11    1    3    3    0    0 -0.14689902558E+02  0.17657850567E+02  0.97746070757E+01  0.24962689509E+02  0.51100000000E-03 0.  1.
         12    1    3    3    0    0  0.27784185954E+02 -0.18839280230E+02 -0.26612563168E+02  0.42838160407E+02  0.00000000000E+00 0. -1.
</event>
<event>
 7    1  0.2809593E-013  0.7246133E+02  0.7816164E-02  0.1226709E+00
        -11   -1    0    0    0    0  0.00000000000E+00  0.00000000000E+00  0.45593999997E+02  0.45594000000E+02  0.51100000000E-03 0.  1.
         11   -1    0    0    0    0 -0.00000000000E+00 -0.00000000000E+00 -0.45593999997E+02  0.45594000000E+02  0.51100000000E-03 0. -1.
    9900012    2    1    2    0    0 -0.76017818917E+01  0.10974552563E+02  0.13132410167E+02  0.72461332152E+02  0.69999689775E+02 0.  0.
        -12    1    1    2    0    0  0.76017818917E+01 -0.10974552563E+02 -0.13132410167E+02  0.18726667848E+02  0.00000000000E+00 0.  1.
         11    1    3    3    0    0 -0.50848218810E+01  0.50563003486E+01 -0.10334665095E+02  0.12578827039E+02  0.51100000000E-03 0. -1.
        -11    1    3    3    0    0  0.36956616280E+01 -0.22550548813E+02  0.62861165142E+00  0.22860015737E+02  0.51100000000E-03 0.  1.
         12    1    3    3    0    0 -0.62126216388E+01  0.28468801027E+02  0.22838463611E+02  0.37022489377E+02  0.00000000000E+00 0. -1.
</event>
<event>
 7    1  0.2809593E-013  0.7246158E+02  0.7816164E-02  0.1226708E+00
        -11   -1    0    0    0    0  0.00000000000E+00  0.00000000000E+00  0.45593999997E+02  0.45594000000E+02  0.51100000000E-03 0. -1.
         11   -1    0    0    0    0 -0.00000000000E+00 -0.00000000000E+00 -0.45593999997E+02  0.45594000000E+02  0.51100000000E-03 0.  1.
    9900012    2    1    2    0    0 -0.16022335545E+02 -0.71632690433E+01 -0.65307954906E+01  0.72461576170E+02  0.70000007654E+02 0.  0.
        -12    1    1    2    0    0  0.16022335545E+02  0.71632690433E+01  0.65307954906E+01  0.18726423830E+02  0.00000000000E+00 0.  1.
         11    1    3    3    0    0 -0.78942002927E+01 -0.21179931454E+01  0.48900979075E+01  0.95245656611E+01  0.51100000000E-03 0. -1.
        -11    1    3    3    0    0  0.18915951963E+02  0.17374506510E+02 -0.10636021345E+02  0.27799490381E+02  0.51100000000E-03 0.  1.
         12    1    3    3    0    0 -0.27044087216E+02 -0.22419782408E+02 -0.78487205322E+00  0.35137520128E+02  0.00000000000E+00 0. -1.
</event>
<event>
 7    1  0.2809593E-013  0.7246154E+02  0.7816164E-02  0.1226708E+00
        -11   -1    0    0    0    0  0.00000000000E+00  0.00000000000E+00  0.45593999997E+02  0.45594000000E+02  0.51100000000E-03 0. -1.
         11   -1    0    0    0    0 -0.00000000000E+00 -0.00000000000E+00 -0.45593999997E+02  0.45594000000E+02  0.51100000000E-03 0.  1.
    9900012    2    1    2    0    0 -0.14574873566E+02 -0.26102657583E+00  0.11755220406E+02  0.72461540614E+02  0.69999961336E+02 0.  0.
        -12    1    1    2    0    0  0.14574873566E+02  0.26102657583E+00 -0.11755220406E+02  0.18726459386E+02  0.00000000000E+00 0.  1.
         11    1    3    3    0    0 -0.12783592882E+02  0.64506164045E+01  0.24752240120E+02  0.28595525703E+02  0.51100000000E-03 0. -1.
        -11    1    3    3    0    0 -0.83344672883E+01 -0.60031453585E+01  0.13273557528E+02  0.16783576165E+02  0.51100000000E-03 0.  1.
        -12    1    3    3    0    0  0.65431866049E+01 -0.70849762184E+00 -0.26270577242E+02  0.27082438747E+02  0.00000000000E+00 0.  1.
</event>
<event>
 7    1  0.2809593E-013  0.7246155E+02  0.7816164E-02  0.1226708E+00
        -11   -1    0    0    0    0  0.00000000000E+00  0.00000000000E+00  0.45593999997E+02  0.45594000000E+02  0.51100000000E-03 0.  1.
         11   -1    0    0    0    0 -0.00000000000E+00 -0.00000000000E+00 -0.45593999997E+02  0.45594000000E+02  0.51100000000E-03 0. -1.
    9900012    2    1    2    0    0  0.93496611484E+01 -0.14737423904E+02 -0.67876371569E+01  0.72461552257E+02  0.69999976502E+02 0.  0.
        -12    1    1    2    0    0 -0.93496611484E+01  0.14737423904E+02  0.67876371569E+01  0.18726447743E+02  0.00000000000E+00 0.  1.
         11    1    3    3    0    0  0.50478988559E+01 -0.11693933127E+02  0.56541325137E+01  0.13935514687E+02  0.51100000000E-03 0. -1.
        -11    1    3    3    0    0 -0.11654545250E+02 -0.23585703816E+02 -0.18065757682E+02  0.31913718842E+02  0.51100000000E-03 0.  1.
         12    1    3    3    0    0  0.15956307543E+02  0.20542213039E+02  0.56239880111E+01  0.26612318728E+02  0.00000000000E+00 0. -1.
</event>
<event>
 7    1  0.2809593E-013  0.7246157E+02  0.7816164E-02  0.1226708E+00
        -11   -1    0    0    0    0  0.00000000000E+00  0.00000000000E+00  0.45593999997E+02  0.45594000000E+02  0.51100000000E-03 0. -1.
         11   -1    0    0    0    0 -0.00000000000E+00 -0.00000000000E+00 -0.45593999997E+02  0.45594000000E+02  0.51100000000E-03 0.  1.
    9900012    2    1    2    0    0  0.90432783606E+01 -0.13056624525E+02 -0.99208236007E+01  0.72461572994E+02  0.70000003517E+02 0.  0.
        -12    1    1    2    0    0 -0.90432783606E+01  0.13056624525E+02  0.99208236007E+01  0.18726427006E+02  0.00000000000E+00 0.  1.
         11    1    3    3    0    0  0.41639291795E+01 -0.22368352249E+02  0.47381222384E+00  0.22757547909E+02  0.51100000000E-03 0. -1.
        -11    1    3    3    0    0  0.17034068582E+02 -0.98956658799E+01 -0.17013620376E+02  0.26029732503E+02  0.51100000000E-03 0.  1.
        -12    1    3    3    0    0 -0.12154719401E+02  0.19207393604E+02  0.66189845511E+01  0.23674292582E+02  0.00000000000E+00 0.  1.
</event>
<event>
 7    1  0.2809593E-013  0.7246160E+02  0.7816164E-02  0.1226708E+00
        -11   -1    0    0    0    0  0.00000000000E+00  0.00000000000E+00  0.45593999997E+02  0.45594000000E+02  0.51100000000E-03 0.  1.
         11   -1    0    0    0    0 -0.00000000000E+00 -0.00000000000E+00 -0.45593999997E+02  0.45594000000E+02  0.51100000000E-03 0. -1.
    9900012    2    1    2    0    0  0.11102956172E+02 -0.12244232653E+02  0.88023432603E+01  0.72461598426E+02  0.70000036647E+02 0.  0.
        -12    1    1    2    0    0 -0.11102956172E+02  0.12244232653E+02 -0.88023432603E+01  0.18726401574E+02  0.00000000000E+00 0.  1.
         11    1    3    3    0    0 -0.56722705514E+01  0.59203189193E+01 -0.11888231022E+02  0.14441428821E+02  0.51100000000E-03 0. -1.
        -11    1    3    3    0    0  0.10932552021E+01 -0.11940415509E+02 -0.14606724126E+02  0.18897754349E+02  0.51100000000E-03 0.  1.
        -12    1    3    3    0    0  0.15681971522E+02 -0.62241360640E+01  0.35297298408E+02  0.39122415256E+02  0.00000000000E+00 0.  1.
</event>
<event>
 7    1  0.2809593E-013  0.7246148E+02  0.7816164E-02  0.1226708E+00
        -11   -1    0    0    0    0  0.00000000000E+00  0.00000000000E+00  0.45593999997E+02  0.45594000000E+02  0.51100000000E-03 0.  1.
         11   -1    0    0    0    0 -0.00000000000E+00 -0.00000000000E+00 -0.45593999997E+02  0.45594000000E+02  0.51100000000E-03 0. -1.
    9900012    2    1    2    0    0  0.17561056460E+02  0.59628265835E-01 -0.65029319484E+01  0.72461484482E+02  0.69999888213E+02 0.  0.
        -12    1    1    2    0    0 -0.17561056460E+02 -0.59628265835E-01  0.65029319484E+01  0.18726515518E+02  0.00000000000E+00 0.  1.
         11    1    3    3    0    0  0.29646528543E+02  0.89371297357E+01 -0.30713667054E+01  0.31116269639E+02  0.51100000000E-03 0. -1.
        -11    1    3    3    0    0  0.13521222705E+02 -0.28295245180E+00 -0.46660401216E+01  0.14306483013E+02  0.51100000000E-03 0.  1.
         12    1    3    3    0    0 -0.25606694787E+02 -0.85945490180E+01  0.12344748785E+01  0.27038731830E+02  0.00000000000E+00 0. -1.
</event>
<event>
 7    1  0.2809593E-013  0.7246155E+02  0.7816164E-02  0.1226708E+00
        -11   -1    0    0    0    0  0.00000000000E+00  0.00000000000E+00  0.45593999997E+02  0.45594000000E+02  0.51100000000E-03 0. -1.
         11   -1    0    0    0    0 -0.00000000000E+00 -0.00000000000E+00 -0.45593999997E+02  0.45594000000E+02  0.51100000000E-03 0.  1.
    9900012    2    1    2    0    0 -0.17337654660E+02  0.28132203779E+01  0.64939584409E+01  0.72461548808E+02  0.69999972010E+02 0.  0.
        -12    1    1    2    0    0  0.17337654660E+02 -0.28132203779E+01 -0.64939584409E+01  0.18726451192E+02  0.00000000000E+00 0.  1.
         11    1    3    3    0    0  0.10240747809E+02 -0.13544342103E+02  0.19850171442E+02  0.26121857231E+02  0.51100000000E-03 0. -1.
        -11    1    3    3    0    0 -0.11829820402E+02 -0.74528993438E+01  0.16665354511E+01  0.14080756373E+02  0.51100000000E-03 0.  1.
        -12    1    3    3    0    0 -0.15748582068E+02  0.23810461824E+02 -0.15022748452E+02  0.32258935204E+02  0.00000000000E+00 0.  1.
</event>
<event>
 7    1  0.2809593E-013  0.7246158E+02  0.7816164E-02  0.1226708E+00
        -11   -1    0    0    0    0  0.00000000000E+00  0.00000000000E+00  0.45593999997E+02  0.45594000000E+02  0.51100000000E-03 0. -1.
         11   -1    0    0    0    0 -0.00000000000E+00 -0.00000000000E+00 -0.45593999997E+02  0.45594000000E+02  0.51100000000E-03 0.  1.
    9900012    2    1    2    0    0 -0.14788964680E+02  0.11238769607E+02 -0.23781268419E+01  0.72461577334E+02  0.70000009171E+02 0.  0.
        -12    1    1    2    0    0  0.14788964680E+02 -0.11238769607E+02  0.23781268419E+01  0.18726422666E+02  0.00000000000E+00 0.  1.
         11    1    3    3    0    0 -0.78801418472E+01  0.28957842085E+02  0.53393489610E+01  0.30482157098E+02  0.51100000000E-03 0. -1.
        -11    1    3    3    0    0  0.28358446297E+00  0.10031176178E+02  0.42712305702E+01  0.10906343407E+02  0.51100000000E-03 0.  1.
        -12    1    3    3    0    0 -0.71924072960E+01 -0.27750248656E+02 -0.11988706373E+02  0.31073076830E+02  0.00000000000E+00 0.  1.
</event>
<event>
 7    1  0.2809593E-013  0.7246190E+02  0.7816164E-02  0.1226707E+00
        -11   -1    0    0    0    0  0.00000000000E+00  0.00000000000E+00  0.45593999997E+02  0.45594000000E+02  0.51100000000E-03 0.  1.
         11   -1    0    0    0    0 -0.00000000000E+00 -0.00000000000E+00 -0.45593999997E+02  0.45594000000E+02  0.51100000000E-03 0. -1.
    9900012    2    1    2    0    0 -0.15140124968E+01 -0.11095378045E+02  0.15008898141E+02  0.72461904005E+02  0.70000434718E+02 0.  0.
        -12    1    1    2    0    0  0.15140124968E+01  0.11095378045E+02 -0.15008898141E+02  0.18726095995E+02  0.00000000000E+00 0.  1.
         11    1    3    3    0    0 -0.14170625778E+02 -0.11033211791E+02 -0.90127242558E+01  0.20093969148E+02  0.51100000000E-03 0. -1.
        -11    1    3    3    0    0  0.59245814825E+01 -0.56682379659E+00 -0.13231305181E+02  0.14508252548E+02  0.51100000000E-03 0.  1.
        -12    1    3    3    0    0  0.67320317985E+01  0.50465754196E+00  0.37252927578E+02  0.37859682308E+02  0.00000000000E+00 0.  1.
</event>
<event>
 7    1  0.2809593E-013  0.7246155E+02  0.7816164E-02  0.1226708E+00
        -11   -1    0    0    0    0  0.00000000000E+00  0.00000000000E+00  0.45593999997E+02  0.45594000000E+02  0.51100000000E-03 0.  1.
         11   -1    0    0    0    0 -0.00000000000E+00 -0.00000000000E+00 -0.45593999997E+02  0.45594000000E+02  0.51100000000E-03 0. -1.
    9900012    2    1    2    0    0  0.95445279786E+01 -0.13978013119E+01 -0.16050801426E+02  0.72461545737E+02  0.69999968009E+02 0.  0.
        -12    1    1    2    0    0 -0.95445279786E+01  0.13978013119E+01  0.16050801426E+02  0.18726454263E+02  0.00000000000E+00 0.  1.
         11    1    3    3    0    0  0.11127710563E+02 -0.14969457622E+02 -0.32155405875E+02  0.37173656413E+02  0.51100000000E-03 0. -1.
        -11    1    3    3    0    0  0.34348421291E+01 -0.50470927038E+01 -0.41033235833E+01  0.73558514057E+01  0.51100000000E-03 0.  1.
        -12    1    3    3    0    0 -0.50180247130E+01  0.18618749014E+02  0.20207928032E+02  0.27932037918E+02  0.00000000000E+00 0.  1.
</event>
<event>
 7    1  0.2809593E-013  0.7246176E+02  0.7816164E-02  0.1226707E+00
        -11   -1    0    0    0    0  0.00000000000E+00  0.00000000000E+00  0.45593999997E+02  0.45594000000E+02  0.51100000000E-03 0.  1.
         11   -1    0    0    0    0 -0.00000000000E+00 -0.00000000000E+00 -0.45593999997E+02  0.45594000000E+02  0.51100000000E-03 0. -1.
    9900012    2    1    2    0    0  0.28064871865E+01 -0.17803272650E+02 -0.50832123361E+01  0.72461763458E+02  0.70000251631E+02 0.  0.
        -12    1    1    2    0    0 -0.28064871865E+01  0.17803272650E+02  0.50832123361E+01  0.18726236542E+02  0.00000000000E+00 0.  1.
         11    1    3    3    0    0  0.66292010210E+01  0.76153738087E+01 -0.13520325242E+02  0.16874223518E+02  0.51100000000E-03 0. -1.
        -11    1    3    3    0    0  0.84945680095E+01  0.40186358777E+00  0.22249780042E+02  0.23819569521E+02  0.51100000000E-03 0.  1.
         12    1    3    3    0    0 -0.12317281844E+02 -0.25820510047E+02 -0.13812667136E+02  0.31767970418E+02  0.00000000000E+00 0. -1.
</event>
<event>
 7    1  0.2809593E-013  0.7246150E+02  0.7816164E-02  0.1226708E+00
        -11   -1    0    0    0    0  0.00000000000E+00  0.00000000000E+00  0.45593999997E+02  0.45594000000E+02  0.51100000000E-03 0.  1.
         11   -1    0    0    0    0 -0.00000000000E+00 -0.00000000000E+00 -0.45593999997E+02  0.45594000000E+02  0.51100000000E-03 0. -1.
    9900012    2    1    2    0    0 -0.59720084932E+01  0.95412438908E+01 -0.14966011463E+02  0.72461502209E+02  0.69999911306E+02 0.  0.
        -12    1    1    2    0    0  0.59720084932E+01 -0.95412438908E+01  0.14966011463E+02  0.18726497791E+02  0.00000000000E+00 0.  1.
         11    1    3    3    0    0  0.38665402270E+01 -0.13580743137E+02 -0.96476885506E+01  0.17101596771E+02  0.51100000000E-03 0. -1.
        -11    1    3    3    0    0 -0.92878715289E+01 -0.14030827284E+02  0.34638611919E+01  0.17179260940E+02  0.51100000000E-03 0.  1.
        -12    1    3    3    0    0 -0.55067719132E+00  0.37152814312E+02 -0.87821841039E+01  0.38180644498E+02  0.00000000000E+00 0.  1.
</event>
<event>
 7    1  0.2809593E-013  0.7246157E+02  0.7816164E-02  0.1226708E+00
        -11   -1    0    0    0    0  0.00000000000E+00  0.00000000000E+00  0.45593999997E+02  0.45594000000E+02  0.51100000000E-03 0. -1.
         11   -1    0    0    0    0 -0.00000000000E+00 -0.00000000000E+00 -0.45593999997E+02  0.45594000000E+02  0.51100000000E-03 0.  1.
    9900012    2    1    2    0    0  0.52806575459E+01  0.87605138222E+01  0.15685892910E+02  0.72461569937E+02  0.69999999534E+02 0.  0.
        -12    1    1    2    0    0 -0.52806575459E+01 -0.87605138222E+01 -0.15685892910E+02  0.18726430063E+02  0.00000000000E+00 0.  1.
         11    1    3    3    0    0 -0.16021311375E+02  0.20409149377E+02 -0.24019319719E-01  0.25946413502E+02  0.51100000000E-03 0. -1.
        -11    1    3    3    0    0 -0.73162447764E+01  0.58270168568E+01 -0.29822021834E+00  0.93579110189E+01  0.51100000000E-03 0.  1.
        -12    1    3    3    0    0  0.28618213697E+02 -0.17475652411E+02  0.16008132448E+02  0.37157245415E+02  0.00000000000E+00 0.  1.
</event>
<event>
 7    1  0.2809593E-013  0.7246158E+02  0.7816164E-02  0.1226708E+00
        -11   -1    0    0    0    0  0.00000000000E+00  0.00000000000E+00  0.45593999997E+02  0.45594000000E+02  0.51100000000E-03 0. -1.
         11   -1    0    0    0    0 -0.00000000000E+00 -0.00000000000E+00 -0.45593999997E+02  0.45594000000E+02  0.51100000000E-03 0.  1.
    9900012    2    1    2    0    0 -0.54678856333E+01  0.39783909186E+01  0.17462914467E+02  0.72461581515E+02  0.70000014617E+02 0.  0.
        -12    1    1    2    0    0  0.54678856333E+01 -0.39783909186E+01 -0.17462914467E+02  0.18726418485E+02  0.00000000000E+00 0.  1.
         11    1    3    3    0    0  0.21177819271E+02 -0.15120589594E+02  0.18280088595E+02  0.31800847443E+02  0.51100000000E-03 0. -1.
        -11    1    3    3    0    0 -0.13083363471E+02  0.62435934306E+01  0.11307356732E+02  0.18385134624E+02  0.51100000000E-03 0.  1.
        -12    1    3    3    0    0 -0.13562341434E+02  0.12855387082E+02 -0.12124530860E+02  0.22275599448E+02  0.00000000000E+00 0.  1.
</event>
<event>
 7    1  0.2809593E-013  0.7246158E+02  0.7816164E-02  0.1226708E+00
        -11   -1    0    0    0    0  0.00000000000E+00  0.00000000000E+00  0.45593999997E+02  0.45594000000E+02  0.51100000000E-03 0.  1.
         11   -1    0    0    0    0 -0.00000000000E+00 -0.00000000000E+00 -0.45593999997E+02  0.45594000000E+02  0.51100000000E-03 0. -1.
    9900012    2    1    2    0    0  0.11696167856E+02  0.16394281389E+01 -0.14532404168E+02  0.72461579145E+02  0.70000011529E+02 0.  0.
        -12    1    1    2    0    0 -0.11696167856E+02 -0.16394281389E+01  0.14532404168E+02  0.18726420855E+02  0.00000000000E+00 0.  1.
         11    1    3    3    0    0  0.11232937088E+02  0.15345062102E+02 -0.42015417669E+01  0.19475696650E+02  0.51100000000E-03 0. -1.
        -11    1    3    3    0    0 -0.50232472784E+01 -0.40371980708E+01 -0.29842060089E+02  0.30529993975E+02  0.51100000000E-03 0.  1.
        -12    1    3    3    0    0  0.54864780470E+01 -0.96684358924E+01  0.19511197688E+02  0.22455888520E+02  0.00000000000E+00 0.  1.
</event>
<event>
 7    1  0.2809593E-013  0.7246156E+02  0.7816164E-02  0.1226708E+00
        -11   -1    0    0    0    0  0.00000000000E+00  0.00000000000E+00  0.45593999997E+02  0.45594000000E+02  0.51100000000E-03 0.  1.
         11   -1    0    0    0    0 -0.00000000000E+00 -0.00000000000E+00 -0.45593999997E+02  0.45594000000E+02  0.51100000000E-03 0. -1.
    9900012    2    1    2    0    0 -0.16885812797E+02  0.70120945050E+01 -0.40471598903E+01  0.72461557563E+02  0.69999983415E+02 0.  0.
        -12    1    1    2    0    0  0.16885812797E+02 -0.70120945050E+01  0.40471598903E+01  0.18726442437E+02  0.00000000000E+00 0.  1.
         11    1    3    3    0    0 -0.87207279959E+01  0.57967592999E+01  0.23356631901E+02  0.25596596828E+02  0.51100000000E-03 0. -1.
        -11    1    3    3    0    0 -0.10766972453E+02  0.75655744261E+01  0.47474894912E+01  0.13989434189E+02  0.51100000000E-03 0.  1.
        -12    1    3    3    0    0  0.26018876518E+01 -0.63502392211E+01 -0.32151281283E+02  0.32875526546E+02  0.00000000000E+00 0.  1.
</event>
<event>
 7    1  0.2809593E-013  0.7246167E+02  0.7816164E-02  0.1226708E+00
        -11   -1    0    0    0    0  0.00000000000E+00  0.00000000000E+00  0.45593999997E+02  0.45594000000E+02  0.51100000000E-03 0. -1.
         11   -1    0    0    0    0 -0.00000000000E+00 -0.00000000000E+00 -0.45593999997E+02  0.45594000000E+02  0.51100000000E-03 0.  1.
    9900012    2    1    2    0    0  0.74793714112E+01 -0.16547229502E+02  0.45742257244E+01  0.72461672494E+02  0.70000133134E+02 0.  0.
        -12    1    1    2    0    0 -0.74793714112E+01  0.16547229502E+02 -0.45742257244E+01  0.18726327506E+02  0.00000000000E+00 0.  1.
         11    1    3    3    0    0 -0.11313846475E+02  0.51227586168E+01  0.17610201306E+02  0.21549129175E+02  0.51100000000E-03 0. -1.
        -11    1    3    3    0    0 -0.36463669205E+01 -0.24656272351E+01  0.11628015799E+02  0.12433264297E+02  0.51100000000E-03 0.  1.
        -12    1    3    3    0    0  0.22439584807E+02 -0.19204360884E+02 -0.24663991380E+02  0.38479279022E+02  0.00000000000E+00 0.  1.
</event>
<event>
 7    1  0.2809593E-013  0.7246168E+02  0.7816164E-02  0.1226708E+00
        -11   -1    0    0    0    0  0.00000000000E+00  0.00000000000E+00  0.45593999997E+02  0.45594000000E+02  0.51100000000E-03 0.  1.
         11   -1    0    0    0    0 -0.00000000000E+00 -0.00000000000E+00 -0.45593999997E+02  0.45594000000E+02  0.51100000000E-03 0. -1.
    9900012    2    1    2    0    0  0.62365537141E+01  0.13636228858E+02 -0.11217569198E+02  0.72461676324E+02  0.70000138123E+02 0.  0.
        -12    1    1    2    0    0 -0.62365537141E+01 -0.13636228858E+02  0.11217569198E+02  0.18726323676E+02  0.00000000000E+00 0.  1.
         11    1    3    3    0    0  0.20020415567E+02 -0.16410376138E+02  0.26781695765E+01  0.26024797348E+02  0.51100000000E-03 0. -1.
        -11    1    3    3    0    0  0.73485487155E+01  0.49478082076E+01 -0.10057245734E+02  0.13402617890E+02  0.51100000000E-03 0.  1.
        -12    1    3    3    0    0 -0.21132410568E+02  0.25098796789E+02 -0.38384930410E+01  0.33034261086E+02  0.00000000000E+00 0.  1.
</event>
<event>
 7    1  0.2809593E-013  0.7246155E+02  0.7816164E-02  0.1226708E+00
        -11   -1    0    0    0    0  0.00000000000E+00  0.00000000000E+00  0.45593999997E+02  0.45594000000E+02  0.51100000000E-03 0. -1.
         11   -1    0    0    0    0 -0.00000000000E+00 -0.00000000000E+00 -0.45593999997E+02  0.45594000000E+02  0.51100000000E-03 0.  1.
    9900012    2    1    2    0    0 -0.35967610164E+01 -0.12872562221E+02  0.13116420897E+02  0.72461546916E+02  0.69999969546E+02 0.  0.
        -12    1    1    2    0    0  0.35967610164E+01  0.12872562221E+02 -0.13116420897E+02  0.18726453084E+02  0.00000000000E+00 0.  1.
         11    1    3    3    0    0  0.49179551054E+01 -0.84553374085E-01 -0.12697309468E+02  0.13616721327E+02  0.51100000000E-03 0. -1.
        -11    1    3    3    0    0  0.51702773180E+00  0.20609725430E+01 -0.14651657626E+02  0.14804931508E+02  0.51100000000E-03 0.  1.
         12    1    3    3    0    0 -0.90317438536E+01 -0.14848981390E+02  0.40465387992E+02  0.44039894081E+02  0.00000000000E+00 0. -1.
</event>
<event>
 7    1  0.2809593E-013  0.7246152E+02  0.7816164E-02  0.1226708E+00
        -11   -1    0    0    0    0  0.00000000000E+00  0.00000000000E+00  0.45593999997E+02  0.45594000000E+02  0.51100000000E-03 0. -1.
         11   -1    0    0    0    0 -0.00000000000E+00 -0.00000000000E+00 -0.45593999997E+02  0.45594000000E+02  0.51100000000E-03 0.  1.
    9900012    2    1    2    0    0 -0.16052018175E+02 -0.94715307511E+01  0.18176510744E+01  0.72461520414E+02  0.69999935021E+02 0.  0.
        -12    1    1    2    0    0  0.16052018175E+02  0.94715307511E+01 -0.18176510744E+01  0.18726479586E+02  0.00000000000E+00 0.  1.
         11    1    3    3    0    0 -0.94515612316E+01 -0.10769966971E+02 -0.14875752099E+02  0.20654592687E+02  0.51100000000E-03 0. -1.
        -11    1    3    3    0    0  0.11663807699E+02 -0.18483711345E+02  0.10154949509E+02  0.24100103629E+02  0.51100000000E-03 0.  1.
        -12    1    3    3    0    0 -0.18264264643E+02  0.19782147565E+02  0.65384536645E+01  0.27706824098E+02  0.00000000000E+00 0.  1.
</event>
<event>
 7    1  0.2809593E-013  0.7246162E+02  0.7816164E-02  0.1226708E+00
        -11   -1    0    0    0    0  0.00000000000E+00  0.00000000000E+00  0.45593999997E+02  0.45594000000E+02  0.51100000000E-03 0. -1.
         11   -1    0    0    0    0 -0.00000000000E+00 -0.00000000000E+00 -0.45593999997E+02  0.45594000000E+02  0.51100000000E-03 0.  1.
    9900012    2    1    2    0    0  0.16190266517E+02  0.75920669678E+01  0.55599669463E+01  0.72461616388E+02  0.70000060046E+02 0.  0.
        -12    1    1    2    0    0 -0.16190266517E+02 -0.75920669678E+01 -0.55599669463E+01  0.18726383612E+02  0.00000000000E+00 0.  1.
         11    1    3    3    0    0  0.80010333042E+01 -0.32100568007E+01 -0.29354055142E+01  0.91070085315E+01  0.51100000000E-03 0. -1.
        -11    1    3    3    0    0  0.16222894994E+02  0.31488601359E+02  0.17373174661E+02  0.39453029486E+02  0.51100000000E-03 0.  1.
         12    1    3    3    0    0 -0.80336617813E+01 -0.20686477591E+02 -0.88778022001E+01  0.23901578371E+02  0.00000000000E+00 0. -1.
</event>
<event>
 7    1  0.2809593E-013  0.7246161E+02  0.7816164E-02  0.1226708E+00
        -11   -1    0    0    0    0  0.00000000000E+00  0.00000000000E+00  0.45593999997E+02  0.45594000000E+02  0.51100000000E-03 0. -1.
         11   -1    0    0    0    0 -0.00000000000E+00 -0.00000000000E+00 -0.45593999997E+02  0.45594000000E+02  0.51100000000E-03 0.  1.
    9900012    2    1    2    0    0 -0.70758819038E+01 -0.13362759770E+02 -0.11047448891E+02  0.72461612725E+02  0.70000055273E+02 0.  0.
        -12    1    1    2    0    0  0.70758819038E+01  0.13362759770E+02  0.11047448891E+02  0.18726387275E+02  0.00000000000E+00 0.  1.
         11    1    3    3    0    0 -0.18810107641E+02 -0.26650309865E+02  0.40049454469E+01  0.32864855905E+02  0.51100000000E-03 0.  1.
        -11    1    3    3    0    0  0.15770912786E+02 -0.59750756455E+01 -0.82384334984E+01  0.18769523325E+02  0.51100000000E-03 0. -1.
        -12    1    3    3    0    0 -0.40366870490E+01  0.19262625740E+02 -0.68139608391E+01  0.20827233495E+02  0.00000000000E+00 0.  1.
</event>
<event>
 7    1  0.2809593E-013  0.7246156E+02  0.7816164E-02  0.1226708E+00
        -11   -1    0    0    0    0  0.00000000000E+00  0.00000000000E+00  0.45593999997E+02  0.45594000000E+02  0.51100000000E-03 0. -1.
         11   -1    0    0    0    0 -0.00000000000E+00 -0.00000000000E+00 -0.45593999997E+02  0.45594000000E+02  0.51100000000E-03 0.  1.
    9900012    2    1    2    0    0  0.23728087622E+01 -0.12383434499E+02  0.13845577618E+02  0.72461556371E+02  0.69999981862E+02 0.  0.
        -12    1    1    2    0    0 -0.23728087622E+01  0.12383434499E+02 -0.13845577618E+02  0.18726443629E+02  0.00000000000E+00 0.  1.
         11    1    3    3    0    0 -0.26664614411E+01 -0.34589791558E+01  0.28762670195E+02  0.29092365844E+02  0.51100000000E-03 0. -1.
        -11    1    3    3    0    0 -0.79627182072E+01  0.12991079102E+02 -0.53020488374E+01  0.16133342482E+02  0.51100000000E-03 0.  1.
         12    1    3    3    0    0  0.13001988411E+02 -0.21915534445E+02 -0.96150437392E+01  0.27235848045E+02  0.00000000000E+00 0. -1.
</event>
<event>
 7    1  0.2809593E-013  0.7246143E+02  0.7816164E-02  0.1226708E+00
        -11   -1    0    0    0    0  0.00000000000E+00  0.00000000000E+00  0.45593999997E+02  0.45594000000E+02  0.51100000000E-03 0.  1.
         11   -1    0    0    0    0 -0.00000000000E+00 -0.00000000000E+00 -0.45593999997E+02  0.45594000000E+02  0.51100000000E-03 0. -1.
    9900012    2    1    2    0    0 -0.10697248035E+02  0.12709910527E+02  0.86435820861E+01  0.72461429241E+02  0.69999816252E+02 0.  0.
        -12    1    1    2    0    0  0.10697248035E+02 -0.12709910527E+02 -0.86435820861E+01  0.18726570759E+02  0.00000000000E+00 0.  1.
         11    1    3    3    0    0  0.20105042508E+01  0.16507824826E+02  0.27448894951E+01  0.16854816119E+02  0.51100000000E-03 0. -1.
        -11    1    3    3    0    0 -0.27519058613E+02  0.92931384652E+01  0.16260981161E+02  0.33287843397E+02  0.51100000000E-03 0.  1.
         12    1    3    3    0    0  0.14811306327E+02 -0.13091052764E+02 -0.10362288570E+02  0.22318769724E+02  0.00000000000E+00 0. -1.
</event>
<event>
 7    1  0.2809593E-013  0.7246157E+02  0.7816164E-02  0.1226708E+00
        -11   -1    0    0    0    0  0.00000000000E+00  0.00000000000E+00  0.45593999997E+02  0.45594000000E+02  0.51100000000E-03 0.  1.
         11   -1    0    0    0    0 -0.00000000000E+00 -0.00000000000E+00 -0.45593999997E+02  0.45594000000E+02  0.51100000000E-03 0. -1.
    9900012    2    1    2    0    0  0.10661480757E+02  0.15191952128E+02 -0.24933229094E+01  0.72461568399E+02  0.69999997531E+02 0.  0.
        -12    1    1    2    0    0 -0.10661480757E+02 -0.15191952128E+02  0.24933229094E+01  0.18726431601E+02  0.00000000000E+00 0.  1.
         11    1    3    3    0    0 -0.41954292534E+01 -0.58328719727E+01  0.17452077134E+02  0.18873235510E+02  0.51100000000E-03 0. -1.
        -11    1    3    3    0    0  0.12405457301E+02  0.73564745888E+01  0.11995671533E+02  0.18759243722E+02  0.51100000000E-03 0.  1.
         12    1    3    3    0    0  0.24514527093E+01  0.13668349512E+02 -0.31941071577E+02  0.34829089167E+02  0.00000000000E+00 0. -1.
</event>
<event>
 7    1  0.2809593E-013  0.7246152E+02  0.7816164E-02  0.1226708E+00
        -11   -1    0    0    0    0  0.00000000000E+00  0.00000000000E+00  0.45593999997E+02  0.45594000000E+02  0.51100000000E-03 0.  1.
         11   -1    0    0    0    0 -0.00000000000E+00 -0.00000000000E+00 -0.45593999997E+02  0.45594000000E+02  0.51100000000E-03 0. -1.
    9900012    2    1    2    0    0 -0.10726177768E+02 -0.14400078608E+02 -0.53167641635E+01  0.72461517827E+02  0.69999931651E+02 0.  0.
        -12    1    1    2    0    0  0.10726177768E+02  0.14400078608E+02  0.53167641635E+01  0.18726482173E+02  0.00000000000E+00 0.  1.
         11    1    3    3    0    0 -0.50004259988E+01 -0.24714169376E+02  0.45790062015E+01  0.25627362841E+02  0.51100000000E-03 0. -1.
        -11    1    3    3    0    0  0.28218930782E+01 -0.13914833408E+02 -0.14984382589E+02  0.20642611055E+02  0.51100000000E-03 0.  1.
        -12    1    3    3    0    0 -0.85476448471E+01  0.24228924176E+02  0.50886122245E+01  0.26191543932E+02  0.00000000000E+00 0.  1.
</event>
<event>
 7    1  0.2809593E-013  0.7246144E+02  0.7816164E-02  0.1226708E+00
        -11   -1    0    0    0    0  0.00000000000E+00  0.00000000000E+00  0.45593999997E+02  0.45594000000E+02  0.51100000000E-03 0. -1.
         11   -1    0    0    0    0 -0.00000000000E+00 -0.00000000000E+00 -0.45593999997E+02  0.45594000000E+02  0.51100000000E-03 0.  1.
    9900012    2    1    2    0    0 -0.11952938240E+02  0.55377417773E+01  0.13309571398E+02  0.72461441123E+02  0.69999831730E+02 0.  0.
        -12    1    1    2    0    0  0.11952938240E+02 -0.55377417773E+01 -0.13309571398E+02  0.18726558877E+02  0.00000000000E+00 0.  1.
         11    1    3    3    0    0  0.12632589620E+02  0.12012469464E+01 -0.16312787138E+01  0.12793998016E+02  0.51100000000E-03 0. -1.
        -11    1    3    3    0    0 -0.58042650523E+01  0.13606745122E+01 -0.19464437627E+02  0.20356946243E+02  0.51100000000E-03 0.  1.
         12    1    3    3    0    0 -0.18781262808E+02  0.29758203188E+01  0.34405287739E+02  0.39310496864E+02  0.00000000000E+00 0. -1.
</event>
<event>
 7    1  0.2809593E-013  0.7246156E+02  0.7816164E-02  0.1226708E+00
        -11   -1    0    0    0    0  0.00000000000E+00  0.00000000000E+00  0.45593999997E+02  0.45594000000E+02  0.51100000000E-03 0.  1.
         11   -1    0    0    0    0 -0.00000000000E+00 -0.00000000000E+00 -0.45593999997E+02  0.45594000000E+02  0.51100000000E-03 0. -1.
    9900012    2    1    2    0    0  0.14627549958E+02 -0.24337214984E+01 -0.11436410874E+02  0.72461555816E+02  0.69999981139E+02 0.  0.
        -12    1    1    2    0    0 -0.14627549958E+02  0.24337214984E+01  0.11436410874E+02  0.18726444184E+02  0.00000000000E+00 0.  1.
         11    1    3    3    0    0 -0.78630922996E+01 -0.11155473205E+02 -0.35737820175E+01  0.14108320988E+02  0.51100000000E-03 0. -1.
        -11    1    3    3    0    0 -0.14742184190E+02  0.13462974490E+02  0.19080246389E+00  0.19965472262E+02  0.51100000000E-03 0.  1.
        -12    1    3    3    0    0  0.37232826447E+02 -0.47412227840E+01 -0.80534313206E+01  0.38387762565E+02  0.00000000000E+00 0.  1.
</event>
<event>
 7    1  0.2809593E-013  0.7246152E+02  0.7816164E-02  0.1226708E+00
        -11   -1    0    0    0    0  0.00000000000E+00  0.00000000000E+00  0.45593999997E+02  0.45594000000E+02  0.51100000000E-03 0. -1.
         11   -1    0    0    0    0 -0.00000000000E+00 -0.00000000000E+00 -0.45593999997E+02  0.45594000000E+02  0.51100000000E-03 0.  1.
    9900012    2    1    2    0    0  0.14975947436E+02  0.48541883722E+01  0.10140960773E+02  0.72461515232E+02  0.69999928271E+02 0.  0.
        -12    1    1    2    0    0 -0.14975947436E+02 -0.48541883722E+01 -0.10140960773E+02  0.18726484768E+02  0.00000000000E+00 0.  1.
         11    1    3    3    0    0 -0.40951200085E+01 -0.21595062114E+02  0.15580828355E+02  0.26942140376E+02  0.51100000000E-03 0. -1.
        -11    1    3    3    0    0  0.41293369929E+01 -0.31172915135E+01  0.81982401625E+01  0.96943319730E+01  0.51100000000E-03 0.  1.
        -12    1    3    3    0    0  0.14941730452E+02  0.29566541999E+02 -0.13638107744E+02  0.35825042883E+02  0.00000000000E+00 0.  1.
</event>
<event>
 7    1  0.2809593E-013  0.7246161E+02  0.7816164E-02  0.1226708E+00
        -11   -1    0    0    0    0  0.00000000000E+00  0.00000000000E+00  0.45593999997E+02  0.45594000000E+02  0.51100000000E-03 0. -1.
         11   -1    0    0    0    0 -0.00000000000E+00 -0.00000000000E+00 -0.45593999997E+02  0.45594000000E+02  0.51100000000E-03 0.  1.
    9900012    2    1    2    0    0  0.11774263601E+02  0.98974050669E+01  0.10681097368E+02  0.72461608159E+02  0.70000049326E+02 0.  0.
        -12    1    1    2    0    0 -0.11774263601E+02 -0.98974050669E+01 -0.10681097368E+02  0.18726391841E+02  0.00000000000E+00 0.  1.
         11    1    3    3    0    0 -0.11832902740E+02 -0.26438466293E+01  0.70976158310E+01  0.14049329628E+02  0.51100000000E-03 0. -1.
        -11    1    3    3    0    0 -0.70242214523E+01 -0.12788779869E+02 -0.84774730176E+01  0.16874837083E+02  0.51100000000E-03 0.  1.
         12    1    3    3    0    0  0.30631387794E+02  0.25330031565E+02  0.12060954554E+02  0.41537441448E+02  0.00000000000E+00 0. -1.
</event>
<event>
 7    1  0.2809593E-013  0.7246171E+02  0.7816164E-02  0.1226708E+00
        -11   -1    0    0    0    0  0.00000000000E+00  0.00000000000E+00  0.45593999997E+02  0.45594000000E+02  0.51100000000E-03 0. -1.
         11   -1    0    0    0    0 -0.00000000000E+00 -0.00000000000E+00 -0.45593999997E+02  0.45594000000E+02  0.51100000000E-03 0.  1.
    9900012    2    1    2    0    0 -0.90438835064E+01  0.15364152541E+02  0.57292989332E+01  0.72461711568E+02  0.70000184035E+02 0.  0.
        -12    1    1    2    0    0  0.90438835064E+01 -0.15364152541E+02 -0.57292989332E+01  0.18726288432E+02  0.00000000000E+00 0.  1.
         11    1    3    3    0    0 -0.57711162759E+01 -0.73107678928E+00 -0.54328099867E+00  0.58425517410E+01  0.51100000000E-03 0.  1.
        -11    1    3    3    0    0 -0.30801978290E+02  0.56968883249E+01  0.16576168608E+02  0.35439889520E+02  0.51100000000E-03 0. -1.
        -12    1    3    3    0    0  0.27529211060E+02  0.10398341005E+02 -0.10303588677E+02  0.31179270307E+02  0.00000000000E+00 0.  1.
</event>
<event>
 7    1  0.2809593E-013  0.7246151E+02  0.7816164E-02  0.1226708E+00
        -11   -1    0    0    0    0  0.00000000000E+00  0.00000000000E+00  0.45593999997E+02  0.45594000000E+02  0.51100000000E-03 0. -1.
         11   -1    0    0    0    0 -0.00000000000E+00 -0.00000000000E+00 -0.45593999997E+02  0.45594000000E+02  0.51100000000E-03 0.  1.
    9900012    2    1    2    0    0  0.12250815538E+02 -0.10014319452E+00  0.14162938508E+02  0.72461512418E+02  0.69999924605E+02 0.  0.
        -12    1    1    2    0    0 -0.12250815538E+02  0.10014319452E+00 -0.14162938508E+02  0.18726487582E+02  0.00000000000E+00 0.  1.
         11    1    3    3    0    0  0.55934311581E+01 -0.33153783422E+01 -0.11454228528E+02  0.13171087924E+02  0.51100000000E-03 0. -1.
        -11    1    3    3    0    0  0.70194626420E+01 -0.99246404809E+01 -0.13415520488E+02  0.18103798902E+02  0.51100000000E-03 0.  1.
         12    1    3    3    0    0 -0.36207826232E+00  0.13139875629E+02  0.39032687524E+02  0.41186625591E+02  0.00000000000E+00 0. -1.
</event>
<event>
 7    1  0.2809593E-013  0.7246158E+02  0.7816164E-02  0.1226708E+00
        -11   -1    0    0    0    0  0.00000000000E+00  0.00000000000E+00  0.45593999997E+02  0.45594000000E+02  0.51100000000E-03 0.  1.
         11   -1    0    0    0    0 -0.00000000000E+00 -0.00000000000E+00 -0.45593999997E+02  0.45594000000E+02  0.51100000000E-03 0. -1.
    9900012    2    1    2    0    0 -0.15275947540E+01 -0.18560335201E+02  0.19644702090E+01  0.72461581984E+02  0.70000015228E+02 0.  0.
        -12    1    1    2    0    0  0.15275947540E+01  0.18560335201E+02 -0.19644702090E+01  0.18726418016E+02  0.00000000000E+00 0.  1.
         11    1    3    3    0    0 -0.25615467866E+02 -0.15583601200E+02  0.14496829553E+02  0.33304037108E+02  0.51100000000E-03 0. -1.
        -11    1    3    3    0    0 -0.41321670132E+00  0.36675940076E+00  0.73849998762E+01  0.74056386580E+01  0.51100000000E-03 0.  1.
         12    1    3    3    0    0  0.24501089813E+02 -0.33434934019E+01 -0.19917359221E+02  0.31751906218E+02  0.00000000000E+00 0. -1.
</event>
<event>
 7    1  0.2809593E-013  0.7246194E+02  0.7816164E-02  0.1226707E+00
        -11   -1    0    0    0    0  0.00000000000E+00  0.00000000000E+00  0.45593999997E+02  0.45594000000E+02  0.51100000000E-03 0.  1.
         11   -1    0    0    0    0 -0.00000000000E+00 -0.00000000000E+00 -0.45593999997E+02  0.45594000000E+02  0.51100000000E-03 0. -1.
    9900012    2    1    2    0    0  0.75672682385E+01 -0.14853982978E+02 -0.85299997044E+01  0.72461941849E+02  0.70000484017E+02 0.  0.
        -12    1    1    2    0    0 -0.75672682385E+01  0.14853982978E+02  0.85299997044E+01  0.18726058151E+02  0.00000000000E+00 0.  1.
         11    1    3    3    0    0 -0.19589151252E+01 -0.36057359791E+01  0.12508032697E+02  0.13163949356E+02  0.51100000000E-03 0. -1.
        -11    1    3    3    0    0 -0.40020252277E+01  0.18421455852E+02  0.25911071010E+01  0.19028401875E+02  0.51100000000E-03 0.  1.
         12    1    3    3    0    0  0.13528208591E+02 -0.29669702851E+02 -0.23629139503E+02  0.40269590619E+02  0.00000000000E+00 0. -1.
</event>
<event>
 7    1  0.2809593E-013  0.7246154E+02  0.7816164E-02  0.1226708E+00
        -11   -1    0    0    0    0  0.00000000000E+00  0.00000000000E+00  0.45593999997E+02  0.45594000000E+02  0.51100000000E-03 0.  1.
         11   -1    0    0    0    0 -0.00000000000E+00 -0.00000000000E+00 -0.45593999997E+02  0.45594000000E+02  0.51100000000E-03 0. -1.
    9900012    2    1    2    0    0 -0.16193488138E+02  0.21527153601E+00 -0.94023795424E+01  0.72461544356E+02  0.69999966211E+02 0.  0.
        -12    1    1    2    0    0  0.16193488138E+02 -0.21527153601E+00  0.94023795424E+01  0.18726455644E+02  0.00000000000E+00 0.  1.
         11    1    3    3    0    0 -0.11718468772E+02  0.80658452436E+01 -0.30734499836E+01  0.14554259339E+02  0.51100000000E-03 0. -1.
        -11    1    3    3    0    0  0.13224482717E+02  0.20343361305E+02 -0.22146559319E+01  0.24364810556E+02  0.51100000000E-03 0.  1.
         12    1    3    3    0    0 -0.17699502083E+02 -0.28193935012E+02 -0.41142736269E+01  0.33542474461E+02  0.00000000000E+00 0. -1.
</event>
<event>
 7    1  0.2809593E-013  0.7246153E+02  0.7816164E-02  0.1226708E+00
        -11   -1    0    0    0    0  0.00000000000E+00  0.00000000000E+00  0.45593999997E+02  0.45594000000E+02  0.51100000000E-03 0.  1.
         11   -1    0    0    0    0 -0.00000000000E+00 -0.00000000000E+00 -0.45593999997E+02  0.45594000000E+02  0.51100000000E-03 0. -1.
    9900012    2    1    2    0    0  0.14268570783E+02  0.12048815030E+02 -0.13836576408E+01  0.72461533054E+02  0.69999951488E+02 0.  0.
        -12    1    1    2    0    0 -0.14268570783E+02 -0.12048815030E+02  0.13836576408E+01  0.18726466946E+02  0.00000000000E+00 0.  1.
         11    1    3    3    0    0  0.36208436580E+01 -0.31067262318E+01  0.11790228754E+02  0.12718952434E+02  0.51100000000E-03 0. -1.
        -11    1    3    3    0    0 -0.21391417194E+02  0.24240441080E+01  0.28653698667E+01  0.21718173592E+02  0.51100000000E-03 0.  1.
         12    1    3    3    0    0  0.32039144319E+02  0.12731497153E+02 -0.16039256261E+02  0.38024407029E+02  0.00000000000E+00 0. -1.
</event>
<event>
 7    1  0.2809593E-013  0.7246156E+02  0.7816164E-02  0.1226708E+00
        -11   -1    0    0    0    0  0.00000000000E+00  0.00000000000E+00  0.45593999997E+02  0.45594000000E+02  0.51100000000E-03 0.  1.
         11   -1    0    0    0    0 -0.00000000000E+00 -0.00000000000E+00 -0.45593999997E+02  0.45594000000E+02  0.51100000000E-03 0. -1.
    9900012    2    1    2    0    0  0.11935951139E+02 -0.10071126269E+02 -0.10333687166E+02  0.72461558684E+02  0.69999984876E+02 0.  0.
        -12    1    1    2    0    0 -0.11935951139E+02  0.10071126269E+02  0.10333687166E+02  0.18726441316E+02  0.00000000000E+00 0.  1.
         11    1    3    3    0    0  0.19450423227E+02  0.49098840768E+01 -0.90708555135E+01  0.22016047451E+02  0.51100000000E-03 0. -1.
        -11    1    3    3    0    0  0.18406195437E+02 -0.39322241451E+01  0.84634011627E+01  0.20636849970E+02  0.51100000000E-03 0.  1.
        -12    1    3    3    0    0 -0.25920667526E+02 -0.11048786200E+02 -0.97262328156E+01  0.29808661263E+02  0.00000000000E+00 0.  1.
</event>
<event>
 7    1  0.2809593E-013  0.7246158E+02  0.7816164E-02  0.1226708E+00
        -11   -1    0    0    0    0  0.00000000000E+00  0.00000000000E+00  0.45593999997E+02  0.45594000000E+02  0.51100000000E-03 0. -1.
         11   -1    0    0    0    0 -0.00000000000E+00 -0.00000000000E+00 -0.45593999997E+02  0.45594000000E+02  0.51100000000E-03 0.  1.
    9900012    2    1    2    0    0 -0.18409335477E+02  0.18597355918E+01  0.28838733369E+01  0.72461575499E+02  0.70000006780E+02 0.  0.
        -12    1    1    2    0    0  0.18409335477E+02 -0.18597355918E+01 -0.28838733369E+01  0.18726424501E+02  0.00000000000E+00 0.  1.
         11    1    3    3    0    0 -0.73720798294E+01 -0.86949292394E+01  0.30381661031E+02  0.32449879549E+02  0.51100000000E-03 0. -1.
        -11    1    3    3    0    0 -0.11520119793E+01 -0.69324245330E+01 -0.15489469830E+01  0.71961711015E+01  0.51100000000E-03 0.  1.
        -12    1    3    3    0    0 -0.98852436682E+01  0.17487089364E+02 -0.25948840711E+02  0.32815524848E+02  0.00000000000E+00 0.  1.
</event>
<event>
 7    1  0.2809593E-013  0.7246158E+02  0.7816164E-02  0.1226708E+00
        -11   -1    0    0    0    0  0.00000000000E+00  0.00000000000E+00  0.45593999997E+02  0.45594000000E+02  0.51100000000E-03 0. -1.
         11   -1    0    0    0    0 -0.00000000000E+00 -0.00000000000E+00 -0.45593999997E+02  0.45594000000E+02  0.51100000000E-03 0.  1.
    9900012    2    1    2    0    0  0.81430448014E+01 -0.79393550662E+01 -0.14877369385E+02  0.72461583970E+02  0.70000017815E+02 0.  0.
        -12    1    1    2    0    0 -0.81430448014E+01  0.79393550662E+01  0.14877369385E+02  0.18726416030E+02  0.00000000000E+00 0.  1.
         11    1    3    3    0    0 -0.66006390627E+01  0.52876250699E+01 -0.14731628274E+01  0.85847320222E+01  0.51100000000E-03 0. -1.
        -11    1    3    3    0    0 -0.20812358830E+01 -0.31453200639E+02 -0.21069042648E+02  0.37914903819E+02  0.51100000000E-03 0.  1.
         12    1    3    3    0    0  0.16824919747E+02  0.18226220503E+02  0.76648360903E+01  0.25961948128E+02  0.00000000000E+00 0. -1.
</event>
<event>
 7    1  0.2809593E-013  0.7246159E+02  0.7816164E-02  0.1226708E+00
        -11   -1    0    0    0    0  0.00000000000E+00  0.00000000000E+00  0.45593999997E+02  0.45594000000E+02  0.51100000000E-03 0.  1.
         11   -1    0    0    0    0 -0.00000000000E+00 -0.00000000000E+00 -0.45593999997E+02  0.45594000000E+02  0.51100000000E-03 0. -1.
    9900012    2    1    2    0    0  0.61794862440E+00  0.15396327491E+02  0.10641878774E+02  0.72461592321E+02  0.70000028694E+02 0.  0.
        -12    1    1    2    0    0 -0.61794862440E+00 -0.15396327491E+02 -0.10641878774E+02  0.18726407679E+02  0.00000000000E+00 0.  1.
         11    1    3    3    0    0 -0.10883779175E+00 -0.88636660631E+01 -0.13215522416E+02  0.15913090672E+02  0.51100000000E-03 0. -1.
        -11    1    3    3    0    0 -0.81663770821E+01 -0.11393433187E+02  0.10244043936E+02  0.17362041091E+02  0.51100000000E-03 0.  1.
        -12    1    3    3    0    0  0.88931634983E+01  0.35653426740E+02  0.13613357255E+02  0.39186460558E+02  0.00000000000E+00 0.  1.
</event>
<event>
 7    1  0.2809593E-013  0.7246160E+02  0.7816164E-02  0.1226708E+00
        -11   -1    0    0    0    0  0.00000000000E+00  0.00000000000E+00  0.45593999997E+02  0.45594000000E+02  0.51100000000E-03 0.  1.
         11   -1    0    0    0    0 -0.00000000000E+00 -0.00000000000E+00 -0.45593999997E+02  0.45594000000E+02  0.51100000000E-03 0. -1.
    9900012    2    1    2    0    0 -0.13328051415E+02  0.13111197879E+02 -0.10665205013E+01  0.72461603381E+02  0.70000043102E+02 0.  0.
        -12    1    1    2    0    0  0.13328051415E+02 -0.13111197879E+02  0.10665205013E+01  0.18726396619E+02  0.00000000000E+00 0.  1.
         11    1    3    3    0    0 -0.23650960234E+02 -0.57533003621E+00  0.53746215978E+01  0.24260780742E+02  0.51100000000E-03 0.  1.
        -11    1    3    3    0    0  0.81451849788E+01  0.51138036660E+01  0.18983968865E+02  0.21281120751E+02  0.51100000000E-03 0. -1.
         12    1    3    3    0    0  0.21777238403E+01  0.85727242492E+01 -0.25425110965E+02  0.26919701888E+02  0.00000000000E+00 0. -1.
</event>
<event>
 7    1  0.2809593E-013  0.7246155E+02  0.7816164E-02  0.1226708E+00
        -11   -1    0    0    0    0  0.00000000000E+00  0.00000000000E+00  0.45593999997E+02  0.45594000000E+02  0.51100000000E-03 0. -1.
         11   -1    0    0    0    0 -0.00000000000E+00 -0.00000000000E+00 -0.45593999997E+02  0.45594000000E+02  0.51100000000E-03 0.  1.
    9900012    2    1    2    0    0  0.12358559142E+01  0.17930195388E+02  0.52593497738E+01  0.72461547946E+02  0.69999970887E+02 0.  0.
        -12    1    1    2    0    0 -0.12358559142E+01 -0.17930195388E+02 -0.52593497738E+01  0.18726452054E+02  0.00000000000E+00 0.  1.
         11    1    3    3    0    0 -0.17086901369E+02  0.16866855192E+02  0.25670741835E+02  0.35148826283E+02  0.51100000000E-03 0. -1.
        -11    1    3    3    0    0  0.67274195017E+01  0.36768991959E+01  0.50727113160E+01  0.91929408355E+01  0.51100000000E-03 0.  1.
        -12    1    3    3    0    0  0.11595337781E+02 -0.26135590004E+01 -0.25484103377E+02  0.28119780828E+02  0.00000000000E+00 0.  1.
</event>
<event>
 7    1  0.2809593E-013  0.7246164E+02  0.7816164E-02  0.1226708E+00
        -11   -1    0    0    0    0  0.00000000000E+00  0.00000000000E+00  0.45593999997E+02  0.45594000000E+02  0.51100000000E-03 0.  1.
         11   -1    0    0    0    0 -0.00000000000E+00 -0.00000000000E+00 -0.45593999997E+02  0.45594000000E+02  0.51100000000E-03 0. -1.
    9900012    2    1    2    0    0  0.10669370222E+02  0.15378084147E+02 -0.59643054323E+00  0.72461637236E+02  0.70000087204E+02 0.  0.
        -12    1    1    2    0    0 -0.10669370222E+02 -0.15378084147E+02  0.59643054323E+00  0.18726362764E+02  0.00000000000E+00 0.  1.
         11    1    3    3    0    0  0.41658783362E+01 -0.25735583448E+01  0.37981706688E+01  0.61970836332E+01  0.51100000000E-03 0. -1.
        -11    1    3    3    0    0  0.23982471740E+02  0.28836937606E+01  0.20959327671E+02  0.31980745100E+02  0.51100000000E-03 0.  1.
         12    1    3    3    0    0 -0.17478979854E+02  0.15067948731E+02 -0.25353928883E+02  0.34283808503E+02  0.00000000000E+00 0. -1.
</event>
<event>
 7    1  0.2809593E-013  0.7246098E+02  0.7816164E-02  0.1226710E+00
        -11   -1    0    0    0    0  0.00000000000E+00  0.00000000000E+00  0.45593999997E+02  0.45594000000E+02  0.51100000000E-03 0.  1.
         11   -1    0    0    0    0 -0.00000000000E+00 -0.00000000000E+00 -0.45593999997E+02  0.45594000000E+02  0.51100000000E-03 0. -1.
    9900012    2    1    2    0    0 -0.14393923718E+02 -0.85451440207E+00 -0.11949308673E+02  0.72460981748E+02  0.69999233305E+02 0.  0.
        -12    1    1    2    0    0  0.14393923718E+02  0.85451440207E+00  0.11949308673E+02  0.18727018252E+02  0.00000000000E+00 0.  1.
         11    1    3    3    0    0 -0.10792169144E+02  0.73947668329E+01 -0.25625825596E+01  0.13331178529E+02  0.51100000000E-03 0. -1.
        -11    1    3    3    0    0  0.93676531284E+01  0.46378819175E+01  0.21119184300E+02  0.23564439725E+02  0.51100000000E-03 0.  1.
         12    1    3    3    0    0 -0.12969407702E+02 -0.12887163152E+02 -0.30505910413E+02  0.35565363493E+02  0.00000000000E+00 0. -1.
</event>
<event>
 7    1  0.2809593E-013  0.7246146E+02  0.7816164E-02  0.1226708E+00
        -11   -1    0    0    0    0  0.00000000000E+00  0.00000000000E+00  0.45593999997E+02  0.45594000000E+02  0.51100000000E-03 0. -1.
         11   -1    0    0    0    0 -0.00000000000E+00 -0.00000000000E+00 -0.45593999997E+02  0.45594000000E+02  0.51100000000E-03 0.  1.
    9900012    2    1    2    0    0 -0.47479966343E+01 -0.17864503531E+02  0.29999145564E+01  0.72461456117E+02  0.69999851263E+02 0.  0.
        -12    1    1    2    0    0  0.47479966343E+01  0.17864503531E+02 -0.29999145564E+01  0.18726543883E+02  0.00000000000E+00 0.  1.
         11    1    3    3    0    0  0.56540979191E+01  0.74934117302E+01 -0.20608149496E+01  0.96107752629E+01  0.51100000000E-03 0. -1.
        -11    1    3    3    0    0  0.22366402578E+02 -0.36619816680E+01 -0.25939943529E+01  0.22812165197E+02  0.51100000000E-03 0.  1.
        -12    1    3    3    0    0 -0.32768497131E+02 -0.21695933593E+02  0.76547238588E+01  0.40038515658E+02  0.00000000000E+00 0.  1.
</event>
<event>
 7    1  0.2809593E-013  0.7246151E+02  0.7816164E-02  0.1226708E+00
        -11   -1    0    0    0    0  0.00000000000E+00  0.00000000000E+00  0.45593999997E+02  0.45594000000E+02  0.51100000000E-03 0. -1.
         11   -1    0    0    0    0 -0.00000000000E+00 -0.00000000000E+00 -0.45593999997E+02  0.45594000000E+02  0.51100000000E-03 0.  1.
    9900012    2    1    2    0    0 -0.13526436305E+02  0.12887448641E+02 -0.12768997822E+01  0.72461513820E+02  0.69999926431E+02 0.  0.
        -12    1    1    2    0    0  0.13526436305E+02 -0.12887448641E+02  0.12768997822E+01  0.18726486180E+02  0.00000000000E+00 0.  1.
         11    1    3    3    0    0 -0.14696040772E+02 -0.22437103185E+02  0.91961745533E+01  0.28354309027E+02  0.51100000000E-03 0. -1.
        -11    1    3    3    0    0 -0.27426023580E+01  0.58247324876E+01  0.70706757003E+01  0.95626268027E+01  0.51100000000E-03 0.  1.
        -12    1    3    3    0    0  0.39122068250E+01  0.29499819338E+02 -0.17543750036E+02  0.34544577991E+02  0.00000000000E+00 0.  1.
</event>
<event>
 7    1  0.2809593E-013  0.7246143E+02  0.7816164E-02  0.1226708E+00
        -11   -1    0    0    0    0  0.00000000000E+00  0.00000000000E+00  0.45593999997E+02  0.45594000000E+02  0.51100000000E-03 0.  1.
         11   -1    0    0    0    0 -0.00000000000E+00 -0.00000000000E+00 -0.45593999997E+02  0.45594000000E+02  0.51100000000E-03 0. -1.
    9900012    2    1    2    0    0 -0.72483525704E+01  0.34593912391E+01 -0.16916812846E+02  0.72461426379E+02  0.69999812523E+02 0.  0.
        -12    1    1    2    0    0  0.72483525704E+01 -0.34593912391E+01  0.16916812846E+02  0.18726573621E+02  0.00000000000E+00 0.  1.
         11    1    3    3    0    0  0.18464133658E+02  0.68604366713E+01 -0.36222837933E+01  0.20027749829E+02  0.51100000000E-03 0. -1.
        -11    1    3    3    0    0  0.12079225821E+02 -0.15681750954E+00 -0.70658886423E+01  0.13994965907E+02  0.51100000000E-03 0.  1.
        -12    1    3    3    0    0 -0.37791712050E+02 -0.32442279227E+01 -0.62286404102E+01  0.38438710643E+02  0.00000000000E+00 0.  1.
</event>
<event>
 7    1  0.2809593E-013  0.7246152E+02  0.7816164E-02  0.1226708E+00
        -11   -1    0    0    0    0  0.00000000000E+00  0.00000000000E+00  0.45593999997E+02  0.45594000000E+02  0.51100000000E-03 0. -1.
         11   -1    0    0    0    0 -0.00000000000E+00 -0.00000000000E+00 -0.45593999997E+02  0.45594000000E+02  0.51100000000E-03 0.  1.
    9900012    2    1    2    0    0 -0.86962012149E+01  0.18753779606E+01  0.16478474658E+02  0.72461519148E+02  0.69999933372E+02 0.  0.
        -12    1    1    2    0    0  0.86962012149E+01 -0.18753779606E+01 -0.16478474658E+02  0.18726480852E+02  0.00000000000E+00 0.  1.
         11    1    3    3    0    0 -0.10413314485E+02  0.18818993591E+02  0.44082257408E+01  0.21955047091E+02  0.51100000000E-03 0. -1.
        -11    1    3    3    0    0  0.99904126019E+01  0.10864473587E+02 -0.64276965716E+01  0.16098459981E+02  0.51100000000E-03 0.  1.
         12    1    3    3    0    0 -0.82732993322E+01 -0.27808089217E+02  0.18497945489E+02  0.34408012076E+02  0.00000000000E+00 0. -1.
</event>
<event>
 7    1  0.2809593E-013  0.7246146E+02  0.7816164E-02  0.1226708E+00
        -11   -1    0    0    0    0  0.00000000000E+00  0.00000000000E+00  0.45593999997E+02  0.45594000000E+02  0.51100000000E-03 0. -1.
         11   -1    0    0    0    0 -0.00000000000E+00 -0.00000000000E+00 -0.45593999997E+02  0.45594000000E+02  0.51100000000E-03 0.  1.
    9900012    2    1    2    0    0 -0.98710170357E+01  0.13531953366E+02  0.83745225898E+01  0.72461458199E+02  0.69999853975E+02 0.  0.
        -12    1    1    2    0    0  0.98710170357E+01 -0.13531953366E+02 -0.83745225898E+01  0.18726541801E+02  0.00000000000E+00 0.  1.
         11    1    3    3    0    0  0.58338607587E+01  0.15190126425E+02  0.15223623593E+02  0.22283011190E+02  0.51100000000E-03 0. -1.
        -11    1    3    3    0    0 -0.17992459207E+02  0.14854106564E+02  0.10966019770E+02  0.25780354148E+02  0.51100000000E-03 0.  1.
        -12    1    3    3    0    0  0.22875814126E+01 -0.16512279623E+02 -0.17815120773E+02  0.24398092860E+02  0.00000000000E+00 0.  1.
</event>
<event>
 7    1  0.2809593E-013  0.7246155E+02  0.7816164E-02  0.1226708E+00
        -11   -1    0    0    0    0  0.00000000000E+00  0.00000000000E+00  0.45593999997E+02  0.45594000000E+02  0.51100000000E-03 0. -1.
         11   -1    0    0    0    0 -0.00000000000E+00 -0.00000000000E+00 -0.45593999997E+02  0.45594000000E+02  0.51100000000E-03 0.  1.
    9900012    2    1    2    0    0 -0.94891174070E+01 -0.10220407426E+02  0.12497199617E+02  0.72461546108E+02  0.69999968492E+02 0.  0.
        -12    1    1    2    0    0  0.94891174070E+01  0.10220407426E+02 -0.12497199617E+02  0.18726453892E+02  0.00000000000E+00 0.  1.
         11    1    3    3    0    0  0.20918857645E+02  0.51600957587E+01  0.42235451467E+01  0.21955945147E+02  0.51100000000E-03 0. -1.
        -11    1    3    3    0    0 -0.11029399836E+01  0.95720035276E+01 -0.35073408338E+01  0.10253836751E+02  0.51100000000E-03 0.  1.
        -12    1    3    3    0    0 -0.29305035069E+02 -0.24952506712E+02  0.11780995304E+02  0.40251764209E+02  0.00000000000E+00 0.  1.
</event>
<event>
 7    1  0.2809593E-013  0.7246146E+02  0.7816164E-02  0.1226708E+00
        -11   -1    0    0    0    0  0.00000000000E+00  0.00000000000E+00  0.45593999997E+02  0.45594000000E+02  0.51100000000E-03 0. -1.
         11   -1    0    0    0    0 -0.00000000000E+00 -0.00000000000E+00 -0.45593999997E+02  0.45594000000E+02  0.51100000000E-03 0.  1.
    9900012    2    1    2    0    0  0.21834727312E+01 -0.13433310296E+02  0.12863194103E+02  0.72461464250E+02  0.69999861857E+02 0.  0.
        -12    1    1    2    0    0 -0.21834727312E+01  0.13433310296E+02 -0.12863194103E+02  0.18726535750E+02  0.00000000000E+00 0.  1.
         11    1    3    3    0    0  0.83863391662E+01  0.17125900106E+02 -0.11059948091E+02  0.22044264358E+02  0.51100000000E-03 0. -1.
        -11    1    3    3    0    0  0.82714441159E+01 -0.19402236803E+02  0.10200707024E+01  0.21116442059E+02  0.51100000000E-03 0.  1.
        -12    1    3    3    0    0 -0.14474310551E+02 -0.11156973599E+02  0.22903071492E+02  0.29300757833E+02  0.00000000000E+00 0.  1.
</event>
<event>
 7    1  0.2809593E-013  0.7246160E+02  0.7816164E-02  0.1226708E+00
        -11   -1    0    0    0    0  0.00000000000E+00  0.00000000000E+00  0.45593999997E+02  0.45594000000E+02  0.51100000000E-03 0.  1.
         11   -1    0    0    0    0 -0.00000000000E+00 -0.00000000000E+00 -0.45593999997E+02  0.45594000000E+02  0.51100000000E-03 0. -1.
    9900012    2    1    2    0    0 -0.17949749878E+02  0.34422765130E+01  0.40786296705E+01  0.72461601300E+02  0.70000040390E+02 0.  0.
        -12    1    1    2    0    0  0.17949749878E+02 -0.34422765130E+01 -0.40786296705E+01  0.18726398700E+02  0.00000000000E+00 0.  1.
         11    1    3    3    0    0 -0.16600777615E+02 -0.16888017933E+02  0.25128654517E+02  0.34528832086E+02  0.51100000000E-03 0. -1.
        -11    1    3    3    0    0  0.33256375450E-01 -0.40722515475E+01  0.18193822080E+01  0.44603240390E+01  0.51100000000E-03 0.  1.
        -12    1    3    3    0    0 -0.13822286390E+01  0.24402545993E+02 -0.22869407054E+02  0.33472445175E+02  0.00000000000E+00 0.  1.
</event>
<event>
 7    1  0.2809593E-013  0.7246163E+02  0.7816164E-02  0.1226708E+00
        -11   -1    0    0    0    0  0.00000000000E+00  0.00000000000E+00  0.45593999997E+02  0.45594000000E+02  0.51100000000E-03 0.  1.
         11   -1    0    0    0    0 -0.00000000000E+00 -0.00000000000E+00 -0.45593999997E+02  0.45594000000E+02  0.51100000000E-03 0. -1.
    9900012    2    1    2    0    0 -0.25921440966E+01  0.17468124475E+02 -0.62307505270E+01  0.72461632605E+02  0.70000081171E+02 0.  0.
        -12    1    1    2    0    0  0.25921440966E+01 -0.17468124475E+02  0.62307505270E+01  0.18726367395E+02  0.00000000000E+00 0.  1.
         11    1    3    3    0    0 -0.17957133677E+02  0.86739107916E+01  0.65844068749E+00  0.19953168238E+02  0.51100000000E-03 0. -1.
        -11    1    3    3    0    0 -0.12280666069E+02 -0.10723844747E+01  0.12319884063E+02  0.17428261851E+02  0.51100000000E-03 0.  1.
        -12    1    3    3    0    0  0.27645655650E+02  0.98665981576E+01 -0.19209075278E+02  0.35080202516E+02  0.00000000000E+00 0.  1.
</event>
<event>
 7    1  0.2809593E-013  0.7246126E+02  0.7816164E-02  0.1226709E+00
        -11   -1    0    0    0    0  0.00000000000E+00  0.00000000000E+00  0.45593999997E+02  0.45594000000E+02  0.51100000000E-03 0.  1.
         11   -1    0    0    0    0 -0.00000000000E+00 -0.00000000000E+00 -0.45593999997E+02  0.45594000000E+02  0.51100000000E-03 0. -1.
    9900012    2    1    2    0    0 -0.12924682317E+02  0.13545586277E+02 -0.40043196709E+00  0.72461263329E+02  0.69999600119E+02 0.  0.
        -12    1    1    2    0    0  0.12924682317E+02 -0.13545586277E+02  0.40043196709E+00  0.18726736671E+02  0.00000000000E+00 0.  1.
         11    1    3    3    0    0 -0.37084028822E+01 -0.43106864954E+01  0.98011057254E+01  0.11331193393E+02  0.51100000000E-03 0. -1.
        -11    1    3    3    0    0  0.97734544736E+01 -0.16043505322E+02 -0.11898015670E+02  0.22236844481E+02  0.51100000000E-03 0.  1.
         12    1    3    3    0    0 -0.18989733908E+02  0.33899778094E+02  0.16964779771E+01  0.38893225455E+02  0.00000000000E+00 0. -1.
</event>
<event>
 7    1  0.2809593E-013  0.7246156E+02  0.7816164E-02  0.1226708E+00
        -11   -1    0    0    0    0  0.00000000000E+00  0.00000000000E+00  0.45593999997E+02  0.45594000000E+02  0.51100000000E-03 0. -1.
         11   -1    0    0    0    0 -0.00000000000E+00 -0.00000000000E+00 -0.45593999997E+02  0.45594000000E+02  0.51100000000E-03 0.  1.
    9900012    2    1    2    0    0 -0.59605834968E+01  0.16772804972E+02  0.58158276743E+01  0.72461564306E+02  0.69999992200E+02 0.  0.
        -12    1    1    2    0    0  0.59605834968E+01 -0.16772804972E+02 -0.58158276743E+01  0.18726435694E+02  0.00000000000E+00 0.  1.
         11    1    3    3    0    0 -0.31472273419E+01  0.58725804431E+01 -0.10524301943E+02  0.12456049640E+02  0.51100000000E-03 0. -1.
        -11    1    3    3    0    0 -0.23096751549E+02 -0.11070786778E+02  0.15808311505E+02  0.30098587424E+02  0.51100000000E-03 0.  1.
         12    1    3    3    0    0  0.20283395395E+02  0.21971011307E+02  0.53181811214E+00  0.29906927242E+02  0.00000000000E+00 0. -1.
</event>
<event>
 7    1  0.2809593E-013  0.7246158E+02  0.7816164E-02  0.1226708E+00
        -11   -1    0    0    0    0  0.00000000000E+00  0.00000000000E+00  0.45593999997E+02  0.45594000000E+02  0.51100000000E-03 0.  1.
         11   -1    0    0    0    0 -0.00000000000E+00 -0.00000000000E+00 -0.45593999997E+02  0.45594000000E+02  0.51100000000E-03 0. -1.
    9900012    2    1    2    0    0 -0.13566800251E+02  0.67490787860E+01 -0.11003207455E+02  0.72461582623E+02  0.70000016060E+02 0.  0.
        -12    1    1    2    0    0  0.13566800251E+02 -0.67490787860E+01  0.11003207455E+02  0.18726417377E+02  0.00000000000E+00 0.  1.
         11    1    3    3    0    0 -0.30916144209E+00  0.47649417810E+00 -0.10985763055E+02  0.11000437158E+02  0.51100000000E-03 0. -1.
        -11    1    3    3    0    0  0.18762553590E+02 -0.13853799925E+02  0.30273185281E+01  0.23518627666E+02  0.51100000000E-03 0.  1.
         12    1    3    3    0    0 -0.32020192398E+02  0.20126384533E+02 -0.30447629284E+01  0.37942517799E+02  0.00000000000E+00 0. -1.
</event>
<event>
 7    1  0.2809593E-013  0.7246156E+02  0.7816164E-02  0.1226708E+00
        -11   -1    0    0    0    0  0.00000000000E+00  0.00000000000E+00  0.45593999997E+02  0.45594000000E+02  0.51100000000E-03 0. -1.
         11   -1    0    0    0    0 -0.00000000000E+00 -0.00000000000E+00 -0.45593999997E+02  0.45594000000E+02  0.51100000000E-03 0.  1.
    9900012    2    1    2    0    0  0.37460001302E+01  0.18225269812E+02 -0.21181675168E+01  0.72461558525E+02  0.69999984668E+02 0.  0.
        -12    1    1    2    0    0 -0.37460001302E+01 -0.18225269812E+02  0.21181675168E+01  0.18726441475E+02  0.00000000000E+00 0.  1.
         11    1    3    3    0    0  0.17730169438E+02 -0.10598448718E+02  0.19234831724E+02  0.28225250668E+02  0.51100000000E-03 0. -1.
        -11    1    3    3    0    0 -0.70373825457E+00  0.42186570973E+01  0.44622988762E+01  0.61809729620E+01  0.51100000000E-03 0.  1.
        -12    1    3    3    0    0 -0.13280431053E+02  0.24605061433E+02 -0.25815298117E+02  0.38055334895E+02  0.00000000000E+00 0.  1.
</event>
<event>
 7    1  0.2809593E-013  0.7246160E+02  0.7816164E-02  0.1226708E+00
        -11   -1    0    0    0    0  0.00000000000E+00  0.00000000000E+00  0.45593999997E+02  0.45594000000E+02  0.51100000000E-03 0.  1.
         11   -1    0    0    0    0 -0.00000000000E+00 -0.00000000000E+00 -0.45593999997E+02  0.45594000000E+02  0.51100000000E-03 0. -1.
    9900012    2    1    2    0    0 -0.13010817179E+01  0.15735837356E+00 -0.18680480887E+02  0.72461603084E+02  0.70000042715E+02 0.  0.
        -12    1    1    2    0    0  0.13010817179E+01 -0.15735837356E+00  0.18680480887E+02  0.18726396916E+02  0.00000000000E+00 0.  1.
         11    1    3    3    0    0  0.25319307018E+02 -0.24376022861E+01 -0.96805181536E+01  0.27216201879E+02  0.51100000000E-03 0. -1.
        -11    1    3    3    0    0  0.35394794195E+01  0.10100807871E+02 -0.92776203611E+01  0.14164338108E+02  0.51100000000E-03 0.  1.
        -12    1    3    3    0    0 -0.30159868155E+02 -0.75058472110E+01  0.27765762779E+00  0.31081063097E+02  0.00000000000E+00 0.  1.
</event>
<event>
 7    1  0.2809593E-013  0.7246146E+02  0.7816164E-02  0.1226708E+00
        -11   -1    0    0    0    0  0.00000000000E+00  0.00000000000E+00  0.45593999997E+02  0.45594000000E+02  0.51100000000E-03 0.  1.
         11   -1    0    0    0    0 -0.00000000000E+00 -0.00000000000E+00 -0.45593999997E+02  0.45594000000E+02  0.51100000000E-03 0. -1.
    9900012    2    1    2    0    0  0.91408230388E+01 -0.21657492883E+01 -0.16199946605E+02  0.72461457719E+02  0.69999853349E+02 0.  0.
        -12    1    1    2    0    0 -0.91408230388E+01  0.21657492883E+01  0.16199946605E+02  0.18726542281E+02  0.00000000000E+00 0.  1.
         11    1    3    3    0    0  0.19557613274E+00 -0.51895685760E+01 -0.30417835123E+02  0.30857974105E+02  0.51100000000E-03 0. -1.
        -11    1    3    3    0    0 -0.20220353115E+01 -0.34267106081E+01 -0.11901980927E+02  0.12549427184E+02  0.51100000000E-03 0.  1.
        -12    1    3    3    0    0  0.10967282218E+02  0.64505298958E+01  0.26119869446E+02  0.29054056430E+02  0.00000000000E+00 0.  1.
</event>
<event>
 7    1  0.2809593E-013  0.7246156E+02  0.7816164E-02  0.1226708E+00
        -11   -1    0    0    0    0  0.00000000000E+00  0.00000000000E+00  0.45593999997E+02  0.45594000000E+02  0.51100000000E-03 0.  1.
         11   -1    0    0    0    0 -0.00000000000E+00 -0.00000000000E+00 -0.45593999997E+02  0.45594000000E+02  0.51100000000E-03 0. -1.
    9900012    2    1    2    0    0 -0.16694549670E+02 -0.81690104140E+01 -0.22888605100E+01  0.72461558740E+02  0.69999984949E+02 0.  0.
        -12    1    1    2    0    0  0.16694549670E+02  0.81690104140E+01  0.22888605100E+01  0.18726441260E+02  0.00000000000E+00 0.  1.
         11    1    3    3    0    0 -0.31410090437E+02  0.82864313561E+01 -0.18355240405E+02  0.37311842309E+02  0.51100000000E-03 0. -1.
        -11    1    3    3    0    0  0.22517127360E+01  0.53631075699E+01  0.50903682510E+01  0.77294878383E+01  0.51100000000E-03 0.  1.
        -12    1    3    3    0    0  0.12463828032E+02 -0.21818549340E+02  0.10976011644E+02  0.27420228593E+02  0.00000000000E+00 0.  1.
</event>
<event>
 7    1  0.2809593E-013  0.7246157E+02  0.7816164E-02  0.1226708E+00
        -11   -1    0    0    0    0  0.00000000000E+00  0.00000000000E+00  0.45593999997E+02  0.45594000000E+02  0.51100000000E-03 0.  1.
         11   -1    0    0    0    0 -0.00000000000E+00 -0.00000000000E+00 -0.45593999997E+02  0.45594000000E+02  0.51100000000E-03 0. -1.
    9900012    2    1    2    0    0 -0.13704562392E+02  0.13219436709E+01 -0.12693177754E+02  0.72461566092E+02  0.69999994526E+02 0.  0.
        -12    1    1    2    0    0  0.13704562392E+02 -0.13219436709E+01  0.12693177754E+02  0.18726433908E+02  0.00000000000E+00 0.  1.
         11    1    3    3    0    0 -0.26920236642E+01  0.23806029647E+02 -0.42814085079E+01  0.24337306713E+02  0.51100000000E-03 0. -1.
        -11    1    3    3    0    0 -0.18881318760E+02  0.39926419505E+01 -0.67787579286E+01  0.20454753657E+02  0.51100000000E-03 0.  1.
         12    1    3    3    0    0  0.78687800323E+01 -0.26476727927E+02 -0.16330113176E+01  0.27669505722E+02  0.00000000000E+00 0. -1.
</event>
<event>
 7    1  0.2809593E-013  0.7246154E+02  0.7816164E-02  0.1226708E+00
        -11   -1    0    0    0    0  0.00000000000E+00  0.00000000000E+00  0.45593999997E+02  0.45594000000E+02  0.51100000000E-03 0. -1.
         11   -1    0    0    0    0 -0.00000000000E+00 -0.00000000000E+00 -0.45593999997E+02  0.45594000000E+02  0.51100000000E-03 0.  1.
    9900012    2    1    2    0    0 -0.88778104166E+01 -0.52347000897E-01  0.16488235057E+02  0.72461544028E+02  0.69999965783E+02 0.  0.
        -12    1    1    2    0    0  0.88778104166E+01  0.52347000897E-01 -0.16488235057E+02  0.18726455972E+02  0.00000000000E+00 0.  1.
         11    1    3    3    0    0  0.12177471521E+02 -0.58622245313E+01 -0.58415612255E+01  0.14723461785E+02  0.51100000000E-03 0. -1.
        -11    1    3    3    0    0 -0.59965238363E+01 -0.18998796733E+02 -0.17889385940E+01  0.20002821726E+02  0.51100000000E-03 0.  1.
         12    1    3    3    0    0 -0.15058758102E+02  0.24808674264E+02  0.24118734876E+02  0.37735260517E+02  0.00000000000E+00 0. -1.
</event>
<event>
 7    1  0.2809593E-013  0.7246155E+02  0.7816164E-02  0.1226708E+00
        -11   -1    0    0    0    0  0.00000000000E+00  0.00000000000E+00  0.45593999997E+02  0.45594000000E+02  0.51100000000E-03 0. -1.
         11   -1    0    0    0    0 -0.00000000000E+00 -0.00000000000E+00 -0.45593999997E+02  0.45594000000E+02  0.51100000000E-03 0.  1.
    9900012    2    1    2    0    0  0.86663603890E+01 -0.67799835798E+01  0.15152757573E+02  0.72461547005E+02  0.69999969661E+02 0.  0.
        -12    1    1    2    0    0 -0.86663603890E+01  0.67799835798E+01 -0.15152757573E+02  0.18726452995E+02  0.00000000000E+00 0.  1.
         11    1    3    3    0    0 -0.27937341599E+01 -0.13058727657E+02  0.15014963123E+02  0.20094388183E+02  0.51100000000E-03 0. -1.
        -11    1    3    3    0    0  0.27589551014E+02  0.11403695055E+02  0.11490084438E+02  0.31988273269E+02  0.51100000000E-03 0.  1.
         12    1    3    3    0    0 -0.16129456465E+02 -0.51249509777E+01 -0.11352289989E+02  0.20378885553E+02  0.00000000000E+00 0. -1.
</event>
<event>
 7    1  0.2809593E-013  0.7246157E+02  0.7816164E-02  0.1226708E+00
        -11   -1    0    0    0    0  0.00000000000E+00  0.00000000000E+00  0.45593999997E+02  0.45594000000E+02  0.51100000000E-03 0.  1.
         11   -1    0    0    0    0 -0.00000000000E+00 -0.00000000000E+00 -0.45593999997E+02  0.45594000000E+02  0.51100000000E-03 0. -1.
    9900012    2    1    2    0    0 -0.18221354126E+02 -0.32521868415E+01 -0.28433600403E+01  0.72461570501E+02  0.70000000270E+02 0.  0.
        -12    1    1    2    0    0  0.18221354126E+02  0.32521868415E+01  0.28433600403E+01  0.18726429499E+02  0.00000000000E+00 0.  1.
         11    1    3    3    0    0  0.57058331316E+00 -0.20737275874E+02 -0.20469010234E+01  0.20845862420E+02  0.51100000000E-03 0. -1.
        -11    1    3    3    0    0 -0.55456559516E+01 -0.15254331037E+02  0.91284303005E+00  0.16256758532E+02  0.51100000000E-03 0.  1.
        -12    1    3    3    0    0 -0.13246281488E+02  0.32739420069E+02 -0.17093020469E+01  0.35358949549E+02  0.00000000000E+00 0.  1.
</event>
<event>
 7    1  0.2809593E-013  0.7246144E+02  0.7816164E-02  0.1226708E+00
        -11   -1    0    0    0    0  0.00000000000E+00  0.00000000000E+00  0.45593999997E+02  0.45594000000E+02  0.51100000000E-03 0.  1.
         11   -1    0    0    0    0 -0.00000000000E+00 -0.00000000000E+00 -0.45593999997E+02  0.45594000000E+02  0.51100000000E-03 0. -1.
    9900012    2    1    2    0    0 -0.11099596205E+02  0.10495559205E+02  0.10831718350E+02  0.72461443420E+02  0.69999834723E+02 0.  0.
        -12    1    1    2    0    0  0.11099596205E+02 -0.10495559205E+02 -0.10831718350E+02  0.18726556580E+02  0.00000000000E+00 0.  1.
         11    1    3    3    0    0 -0.94421517825E+00  0.49039569239E+01 -0.23103311340E+02  0.23636906121E+02  0.51100000000E-03 0. -1.
        -11    1    3    3    0    0  0.24173219713E+01 -0.10388553387E+02  0.18294893358E+01  0.10821853745E+02  0.51100000000E-03 0.  1.
        -12    1    3    3    0    0 -0.12572702998E+02  0.15980155668E+02  0.32105540354E+02  0.38002683554E+02  0.00000000000E+00 0.  1.
</event>
<event>
 7    1  0.2809593E-013  0.7246157E+02  0.7816164E-02  0.1226708E+00
        -11   -1    0    0    0    0  0.00000000000E+00  0.00000000000E+00  0.45593999997E+02  0.45594000000E+02  0.51100000000E-03 0. -1.
         11   -1    0    0    0    0 -0.00000000000E+00 -0.00000000000E+00 -0.45593999997E+02  0.45594000000E+02  0.51100000000E-03 0.  1.
    9900012    2    1    2    0    0 -0.13983950402E+02 -0.53895578888E+00  0.12443387903E+02  0.72461568287E+02  0.69999997385E+02 0.  0.
        -12    1    1    2    0    0  0.13983950402E+02  0.53895578888E+00 -0.12443387903E+02  0.18726431713E+02  0.00000000000E+00 0.  1.
         11    1    3    3    0    0 -0.11560587347E+02  0.30938982059E+02 -0.26798669420E+00  0.33029374923E+02  0.51100000000E-03 0. -1.
        -11    1    3    3    0    0 -0.10590535808E+02 -0.11613304211E+02  0.37414118845E+01  0.16156312901E+02  0.51100000000E-03 0.  1.
        -12    1    3    3    0    0  0.81671727522E+01 -0.19864633637E+02  0.89699627129E+01  0.23275880464E+02  0.00000000000E+00 0.  1.
</event>
<event>
 7    1  0.2809593E-013  0.7246150E+02  0.7816164E-02  0.1226708E+00
        -11   -1    0    0    0    0  0.00000000000E+00  0.00000000000E+00  0.45593999997E+02  0.45594000000E+02  0.51100000000E-03 0. -1.
         11   -1    0    0    0    0 -0.00000000000E+00 -0.00000000000E+00 -0.45593999997E+02  0.45594000000E+02  0.51100000000E-03 0.  1.
    9900012    2    1    2    0    0 -0.73447109132E+01  0.15216862846E+02  0.80736740158E+01  0.72461497246E+02  0.69999904841E+02 0.  0.
        -12    1    1    2    0    0  0.73447109132E+01 -0.15216862846E+02 -0.80736740158E+01  0.18726502754E+02  0.00000000000E+00 0.  1.
         11    1    3    3    0    0 -0.18249829509E+02  0.15686323289E+02  0.23864215805E+02  0.33891264534E+02  0.51100000000E-03 0. -1.
        -11    1    3    3    0    0 -0.13548336689E+01 -0.44097509853E+01  0.92925316797E+01  0.10374614369E+02  0.51100000000E-03 0.  1.
        -12    1    3    3    0    0  0.12259952265E+02  0.39402905430E+01 -0.25083073469E+02  0.28195618343E+02  0.00000000000E+00 0.  1.
</event>
<event>
 7    1  0.2809593E-013  0.7246146E+02  0.7816164E-02  0.1226708E+00
        -11   -1    0    0    0    0  0.00000000000E+00  0.00000000000E+00  0.45593999997E+02  0.45594000000E+02  0.51100000000E-03 0.  1.
         11   -1    0    0    0    0 -0.00000000000E+00 -0.00000000000E+00 -0.45593999997E+02  0.45594000000E+02  0.51100000000E-03 0. -1.
    9900012    2    1    2    0    0  0.32433485213E+01  0.18145981665E+02 -0.32995782344E+01  0.72461463301E+02  0.69999860621E+02 0.  0.
        -12    1    1    2    0    0 -0.32433485213E+01 -0.18145981665E+02  0.32995782344E+01  0.18726536699E+02  0.00000000000E+00 0.  1.
         11    1    3    3    0    0  0.58322935844E+01  0.26221184868E+02 -0.96199854138E+01  0.28532618246E+02  0.51100000000E-03 0. -1.
        -11    1    3    3    0    0 -0.23083766078E+01  0.16686714812E+02 -0.36448772213E+01  0.17235433966E+02  0.51100000000E-03 0.  1.
        -12    1    3    3    0    0 -0.28056845528E+00 -0.24761918014E+02  0.99652844007E+01  0.26693411089E+02  0.00000000000E+00 0.  1.
</event>
<event>
 7    1  0.2809593E-013  0.7246163E+02  0.7816164E-02  0.1226708E+00
        -11   -1    0    0    0    0  0.00000000000E+00  0.00000000000E+00  0.45593999997E+02  0.45594000000E+02  0.51100000000E-03 0. -1.
         11   -1    0    0    0    0 -0.00000000000E+00 -0.00000000000E+00 -0.45593999997E+02  0.45594000000E+02  0.51100000000E-03 0.  1.
    9900012    2    1    2    0    0 -0.27052603225E+01  0.74433657106E+01  0.16969226096E+02  0.72461634607E+02  0.70000083779E+02 0.  0.
        -12    1    1    2    0    0  0.27052603225E+01 -0.74433657106E+01 -0.16969226096E+02  0.18726365393E+02  0.00000000000E+00 0.  1.
         11    1    3    3    0    0  0.11215318376E+01  0.10502170503E+02 -0.37931225297E+01  0.11222352593E+02  0.51100000000E-03 0. -1.
        -11    1    3    3    0    0 -0.12344084533E+02  0.81011021434E+01  0.36962602580E+02  0.39802490734E+02  0.51100000000E-03 0.  1.
         12    1    3    3    0    0  0.85172923726E+01 -0.11159906936E+02 -0.16200253954E+02  0.21436791280E+02  0.00000000000E+00 0. -1.
</event>
<event>
 7    1  0.2809593E-013  0.7246150E+02  0.7816164E-02  0.1226708E+00
        -11   -1    0    0    0    0  0.00000000000E+00  0.00000000000E+00  0.45593999997E+02  0.45594000000E+02  0.51100000000E-03 0. -1.
         11   -1    0    0    0    0 -0.00000000000E+00 -0.00000000000E+00 -0.45593999997E+02  0.45594000000E+02  0.51100000000E-03 0.  1.
    9900012    2    1    2    0    0  0.51330362214E+01 -0.18009233779E+02 -0.34674608651E-01  0.72461501009E+02  0.69999909742E+02 0.  0.
        -12    1    1    2    0    0 -0.51330362214E+01  0.18009233779E+02  0.34674608651E-01  0.18726498991E+02  0.00000000000E+00 0.  1.
         11    1    3    3    0    0  0.15745907676E+02 -0.21950062660E+02  0.53758224866E+00  0.27019027633E+02  0.51100000000E-03 0. -1.
        -11    1    3    3    0    0 -0.37579088865E+01 -0.30450087099E+01  0.21108167845E+02  0.21655223557E+02  0.51100000000E-03 0.  1.
         12    1    3    3    0    0 -0.68549625683E+01  0.69858375908E+01 -0.21680424703E+02  0.23787249819E+02  0.00000000000E+00 0. -1.
</event>
<event>
 7    1  0.2809593E-013  0.7246159E+02  0.7816164E-02  0.1226708E+00
        -11   -1    0    0    0    0  0.00000000000E+00  0.00000000000E+00  0.45593999997E+02  0.45594000000E+02  0.51100000000E-03 0.  1.
         11   -1    0    0    0    0 -0.00000000000E+00 -0.00000000000E+00 -0.45593999997E+02  0.45594000000E+02  0.51100000000E-03 0. -1.
    9900012    2    1    2    0    0 -0.17801423180E+02 -0.21578888366E+01 -0.53973462394E+01  0.72461588227E+02  0.70000023360E+02 0.  0.
        -12    1    1    2    0    0  0.17801423180E+02  0.21578888366E+01  0.53973462394E+01  0.18726411773E+02  0.00000000000E+00 0.  1.
         11    1    3    3    0    0 -0.11132353598E+02 -0.23328344541E+02 -0.16977771270E+02  0.30925485820E+02  0.51100000000E-03 0. -1.
        -11    1    3    3    0    0  0.15840051166E+01 -0.86973054506E+01  0.35408346898E+01  0.95231142423E+01  0.51100000000E-03 0.  1.
        -12    1    3    3    0    0 -0.82530746984E+01  0.29867761155E+02  0.80395903403E+01  0.32012988164E+02  0.00000000000E+00 0.  1.
</event>
<event>
 7    1  0.2809593E-013  0.7246159E+02  0.7816164E-02  0.1226708E+00
        -11   -1    0    0    0    0  0.00000000000E+00  0.00000000000E+00  0.45593999997E+02  0.45594000000E+02  0.51100000000E-03 0. -1.
         11   -1    0    0    0    0 -0.00000000000E+00 -0.00000000000E+00 -0.45593999997E+02  0.45594000000E+02  0.51100000000E-03 0.  1.
    9900012    2    1    2    0    0 -0.12573837513E+02  0.74779403271E+01 -0.11690058006E+02  0.72461589839E+02  0.70000025460E+02 0.  0.
        -12    1    1    2    0    0  0.12573837513E+02 -0.74779403271E+01  0.11690058006E+02  0.18726410161E+02  0.00000000000E+00 0.  1.
         11    1    3    3    0    0  0.74158929142E+01  0.13022013375E+02 -0.10760995736E+02  0.18449046847E+02  0.51100000000E-03 0. -1.
        -11    1    3    3    0    0  0.15335697364E+02 -0.64074271636E+01 -0.72200648951E+01  0.18120929167E+02  0.51100000000E-03 0.  1.
         12    1    3    3    0    0 -0.35325427792E+02  0.86335411599E+00  0.62910026255E+01  0.35891613826E+02  0.00000000000E+00 0. -1.
</event>
<event>
 7    1  0.2809593E-013  0.7246152E+02  0.7816164E-02  0.1226708E+00
        -11   -1    0    0    0    0  0.00000000000E+00  0.00000000000E+00  0.45593999997E+02  0.45594000000E+02  0.51100000000E-03 0.  1.
         11   -1    0    0    0    0 -0.00000000000E+00 -0.00000000000E+00 -0.45593999997E+02  0.45594000000E+02  0.51100000000E-03 0. -1.
    9900012    2    1    2    0    0 -0.12557819349E+00  0.14492418702E+02 -0.11858965509E+02  0.72461520548E+02  0.69999935197E+02 0.  0.
        -12    1    1    2    0    0  0.12557819349E+00 -0.14492418702E+02  0.11858965509E+02  0.18726479452E+02  0.00000000000E+00 0.  1.
         11    1    3    3    0    0 -0.88238263721E+01  0.28449551566E+02 -0.29798127616E+01  0.29935199690E+02  0.51100000000E-03 0. -1.
        -11    1    3    3    0    0 -0.73175801087E+01  0.93045682514E+01 -0.79686508562E+01  0.14269595850E+02  0.51100000000E-03 0.  1.
        -12    1    3    3    0    0  0.16015828287E+02 -0.23261701115E+02 -0.91050189080E+00  0.28256725008E+02  0.00000000000E+00 0.  1.
</event>
<event>
 7    1  0.2809593E-013  0.7246157E+02  0.7816164E-02  0.1226708E+00
        -11   -1    0    0    0    0  0.00000000000E+00  0.00000000000E+00  0.45593999997E+02  0.45594000000E+02  0.51100000000E-03 0.  1.
         11   -1    0    0    0    0 -0.00000000000E+00 -0.00000000000E+00 -0.45593999997E+02  0.45594000000E+02  0.51100000000E-03 0. -1.
    9900012    2    1    2    0    0  0.69501790333E+01  0.17130060880E+02  0.29891862646E+01  0.72461569244E+02  0.69999998632E+02 0.  0.
        -12    1    1    2    0    0 -0.69501790333E+01 -0.17130060880E+02 -0.29891862646E+01  0.18726430756E+02  0.00000000000E+00 0.  1.
         11    1    3    3    0    0  0.26697064402E+02 -0.14531948741E+02  0.70733442039E+01  0.31208059543E+02  0.51100000000E-03 0. -1.
        -11    1    3    3    0    0  0.17943382795E+01  0.35238516881E+01  0.31863336670E+01  0.50783760278E+01  0.51100000000E-03 0.  1.
        -12    1    3    3    0    0 -0.21541223649E+02  0.28138157933E+02 -0.72704916063E+01  0.36175133674E+02  0.00000000000E+00 0.  1.
</event>
<event>
 7    1  0.2809593E-013  0.7246156E+02  0.7816164E-02  0.1226708E+00
        -11   -1    0    0    0    0  0.00000000000E+00  0.00000000000E+00  0.45593999997E+02  0.45594000000E+02  0.51100000000E-03 0. -1.
         11   -1    0    0    0    0 -0.00000000000E+00 -0.00000000000E+00 -0.45593999997E+02  0.45594000000E+02  0.51100000000E-03 0.  1.
    9900012    2    1    2    0    0 -0.79735452131E+01  0.16831233258E+02 -0.19523269094E+01  0.72461563697E+02  0.69999991406E+02 0.  0.
        -12    1    1    2    0    0  0.79735452131E+01 -0.16831233258E+02  0.19523269094E+01  0.18726436303E+02  0.00000000000E+00 0.  1.
         11    1    3    3    0    0  0.19648054810E+02  0.20179066853E+02  0.17346421155E+02  0.33077773867E+02  0.51100000000E-03 0. -1.
        -11    1    3    3    0    0 -0.44962861017E+00  0.27797369436E+01  0.26914949984E+01  0.38952854774E+01  0.51100000000E-03 0.  1.
        -12    1    3    3    0    0 -0.27171971413E+02 -0.61275705383E+01 -0.21990243063E+02  0.35488504352E+02  0.00000000000E+00 0.  1.
</event>
<event>
 7    1  0.2809593E-013  0.7246155E+02  0.7816164E-02  0.1226708E+00
        -11   -1    0    0    0    0  0.00000000000E+00  0.00000000000E+00  0.45593999997E+02  0.45594000000E+02  0.51100000000E-03 0. -1.
         11   -1    0    0    0    0 -0.00000000000E+00 -0.00000000000E+00 -0.45593999997E+02  0.45594000000E+02  0.51100000000E-03 0.  1.
    9900012    2    1    2    0    0  0.36016042106E+01 -0.11351452508E+02  0.14451738704E+02  0.72461554035E+02  0.69999978819E+02 0.  0.
        -12    1    1    2    0    0 -0.36016042106E+01  0.11351452508E+02 -0.14451738704E+02  0.18726445965E+02  0.00000000000E+00 0.  1.
         11    1    3    3    0    0 -0.15252219566E+01  0.82922842703E+01 -0.15171824757E+02  0.17357204474E+02  0.51100000000E-03 0. -1.
        -11    1    3    3    0    0 -0.58464639318E+00  0.40660079886E+01 -0.87331185431E+01  0.96509891782E+01  0.51100000000E-03 0.  1.
         12    1    3    3    0    0  0.57114725604E+01 -0.23709744767E+02  0.38356682004E+02  0.45453360382E+02  0.00000000000E+00 0. -1.
</event>
<event>
 7    1  0.2809593E-013  0.7246159E+02  0.7816164E-02  0.1226708E+00
        -11   -1    0    0    0    0  0.00000000000E+00  0.00000000000E+00  0.45593999997E+02  0.45594000000E+02  0.51100000000E-03 0. -1.
         11   -1    0    0    0    0 -0.00000000000E+00 -0.00000000000E+00 -0.45593999997E+02  0.45594000000E+02  0.51100000000E-03 0.  1.
    9900012    2    1    2    0    0  0.87855427787E+01 -0.84067258584E+01  0.14241469727E+02  0.72461594537E+02  0.70000031581E+02 0.  0.
        -12    1    1    2    0    0 -0.87855427787E+01  0.84067258584E+01 -0.14241469727E+02  0.18726405463E+02  0.00000000000E+00 0.  1.
         11    1    3    3    0    0 -0.21588958082E+02  0.11039799642E+02  0.84802570359E+01  0.25688033145E+02  0.51100000000E-03 0. -1.
        -11    1    3    3    0    0  0.18243083185E+00  0.30128496763E+01  0.85240745884E+01  0.90426982715E+01  0.51100000000E-03 0.  1.
        -12    1    3    3    0    0  0.30192070029E+02 -0.22459375177E+02 -0.27628618973E+01  0.37730863121E+02  0.00000000000E+00 0.  1.
</event>
<event>
 7    1  0.2809593E-013  0.7246160E+02  0.7816164E-02  0.1226708E+00
        -11   -1    0    0    0    0  0.00000000000E+00  0.00000000000E+00  0.45593999997E+02  0.45594000000E+02  0.51100000000E-03 0. -1.
         11   -1    0    0    0    0 -0.00000000000E+00 -0.00000000000E+00 -0.45593999997E+02  0.45594000000E+02  0.51100000000E-03 0.  1.
    9900012    2    1    2    0    0  0.11961157192E+01 -0.14281814208E+02  0.12053097737E+02  0.72461599520E+02  0.70000038071E+02 0.  0.
        -12    1    1    2    0    0 -0.11961157192E+01  0.14281814208E+02 -0.12053097737E+02  0.18726400480E+02  0.00000000000E+00 0.  1.
         11    1    3    3    0    0  0.56870371451E+00 -0.14077856106E+02  0.15831351288E+02  0.21192950251E+02  0.51100000000E-03 0. -1.
        -11    1    3    3    0    0  0.62773929034E+01  0.24248456866E+02  0.31194804328E+01  0.25241324856E+02  0.51100000000E-03 0.  1.
        -12    1    3    3    0    0 -0.56499808987E+01 -0.24452414969E+02 -0.68977339843E+01  0.26027324413E+02  0.00000000000E+00 0.  1.
</event>
<event>
 7    1  0.2809593E-013  0.7246156E+02  0.7816164E-02  0.1226708E+00
        -11   -1    0    0    0    0  0.00000000000E+00  0.00000000000E+00  0.45593999997E+02  0.45594000000E+02  0.51100000000E-03 0. -1.
         11   -1    0    0    0    0 -0.00000000000E+00 -0.00000000000E+00 -0.45593999997E+02  0.45594000000E+02  0.51100000000E-03 0.  1.
    9900012    2    1    2    0    0  0.15369085177E+01  0.13707416924E+01  0.18612854906E+02  0.72461564453E+02  0.69999992390E+02 0.  0.
        -12    1    1    2    0    0 -0.15369085177E+01 -0.13707416924E+01 -0.18612854906E+02  0.18726435547E+02  0.00000000000E+00 0.  1.
         11    1    3    3    0    0  0.11987954930E+01 -0.11578957608E+01  0.39727705321E+02  0.39762650862E+02  0.51100000000E-03 0. -1.
        -11    1    3    3    0    0  0.11242370713E+01 -0.51210323278E+00  0.56332177237E+01  0.57670877310E+01  0.51100000000E-03 0.  1.
        -12    1    3    3    0    0 -0.78612404659E+00  0.30407406860E+01 -0.26748068139E+02  0.26931825859E+02  0.00000000000E+00 0.  1.
</event>
<event>
 7    1  0.2809593E-013  0.7246159E+02  0.7816164E-02  0.1226708E+00
        -11   -1    0    0    0    0  0.00000000000E+00  0.00000000000E+00  0.45593999997E+02  0.45594000000E+02  0.51100000000E-03 0.  1.
         11   -1    0    0    0    0 -0.00000000000E+00 -0.00000000000E+00 -0.45593999997E+02  0.45594000000E+02  0.51100000000E-03 0. -1.
    9900012    2    1    2    0    0  0.13573505676E+02 -0.23616464593E+01 -0.12683101678E+02  0.72461588210E+02  0.70000023339E+02 0.  0.
        -12    1    1    2    0    0 -0.13573505676E+02  0.23616464593E+01  0.12683101678E+02  0.18726411790E+02  0.00000000000E+00 0.  1.
         11    1    3    3    0    0  0.21807883096E+02 -0.22771790068E+02  0.94705585939E+01  0.32921568437E+02  0.51100000000E-03 0. -1.
        -11    1    3    3    0    0 -0.40636828984E+01 -0.53117204255E+01 -0.48139297832E+01  0.82402556269E+01  0.51100000000E-03 0.  1.
        -12    1    3    3    0    0 -0.41706945220E+01  0.25721864034E+02 -0.17339730489E+02  0.31299764146E+02  0.00000000000E+00 0.  1.
</event>
<event>
 7    1  0.2809593E-013  0.7246175E+02  0.7816164E-02  0.1226708E+00
        -11   -1    0    0    0    0  0.00000000000E+00  0.00000000000E+00  0.45593999997E+02  0.45594000000E+02  0.51100000000E-03 0. -1.
         11   -1    0    0    0    0 -0.00000000000E+00 -0.00000000000E+00 -0.45593999997E+02  0.45594000000E+02  0.51100000000E-03 0.  1.
    9900012    2    1    2    0    0  0.13977433202E+02  0.82882366897E+01  0.93063977229E+01  0.72461747173E+02  0.70000230417E+02 0.  0.
        -12    1    1    2    0    0 -0.13977433202E+02 -0.82882366897E+01 -0.93063977229E+01  0.18726252827E+02  0.00000000000E+00 0.  1.
         11    1    3    3    0    0  0.10529904574E+02 -0.94521731099E+00  0.16586545117E+02  0.19669412937E+02  0.51100000000E-03 0. -1.
        -11    1    3    3    0    0  0.96201694839E+01  0.36715252879E+01  0.20961359518E+02  0.23353936541E+02  0.51100000000E-03 0.  1.
        -12    1    3    3    0    0 -0.61726408557E+01  0.55619287128E+01 -0.28241506913E+02  0.29438397695E+02  0.00000000000E+00 0.  1.
</event>
<event>
 7    1  0.2809593E-013  0.7246158E+02  0.7816164E-02  0.1226708E+00
        -11   -1    0    0    0    0  0.00000000000E+00  0.00000000000E+00  0.45593999997E+02  0.45594000000E+02  0.51100000000E-03 0.  1.
         11   -1    0    0    0    0 -0.00000000000E+00 -0.00000000000E+00 -0.45593999997E+02  0.45594000000E+02  0.51100000000E-03 0. -1.
    9900012    2    1    2    0    0 -0.11570078235E+02  0.27398272694E+01 -0.14467390260E+02  0.72461581635E+02  0.70000014774E+02 0.  0.
        -12    1    1    2    0    0  0.11570078235E+02 -0.27398272694E+01  0.14467390260E+02  0.18726418365E+02  0.00000000000E+00 0.  1.
         11    1    3    3    0    0 -0.18897665565E+02  0.19387393251E+02 -0.55844773854E+01  0.27643790782E+02  0.51100000000E-03 0.  1.
        -11    1    3    3    0    0  0.13242832943E+02 -0.41075229072E+01 -0.21821166820E+02  0.25853581772E+02  0.51100000000E-03 0. -1.
        -12    1    3    3    0    0 -0.59152456124E+01 -0.12540043074E+02  0.12938253945E+02  0.18964209082E+02  0.00000000000E+00 0.  1.
</event>
<event>
 7    1  0.2809593E-013  0.7246156E+02  0.7816164E-02  0.1226708E+00
        -11   -1    0    0    0    0  0.00000000000E+00  0.00000000000E+00  0.45593999997E+02  0.45594000000E+02  0.51100000000E-03 0.  1.
         11   -1    0    0    0    0 -0.00000000000E+00 -0.00000000000E+00 -0.45593999997E+02  0.45594000000E+02  0.51100000000E-03 0. -1.
    9900012    2    1    2    0    0  0.92250247791E+01 -0.12358598002E+02 -0.10622788661E+02  0.72461557046E+02  0.69999982742E+02 0.  0.
        -12    1    1    2    0    0 -0.92250247791E+01  0.12358598002E+02  0.10622788661E+02  0.18726442954E+02  0.00000000000E+00 0.  1.
         11    1    3    3    0    0  0.85922898235E+01  0.49536806678E+01  0.11620974052E+02  0.15277874026E+02  0.51100000000E-03 0. -1.
        -11    1    3    3    0    0  0.72420997047E+01  0.16502130037E+02 -0.10056933742E+02  0.20637592409E+02  0.51100000000E-03 0.  1.
         12    1    3    3    0    0 -0.66093647490E+01 -0.33814408707E+02 -0.12186828971E+02  0.36546090611E+02  0.00000000000E+00 0. -1.
</event>
<event>
 7    1  0.2809593E-013  0.7246147E+02  0.7816164E-02  0.1226708E+00
        -11   -1    0    0    0    0  0.00000000000E+00  0.00000000000E+00  0.45593999997E+02  0.45594000000E+02  0.51100000000E-03 0.  1.
         11   -1    0    0    0    0 -0.00000000000E+00 -0.00000000000E+00 -0.45593999997E+02  0.45594000000E+02  0.51100000000E-03 0. -1.
    9900012    2    1    2    0    0 -0.16271858911E+02 -0.81165820397E+01  0.44755697784E+01  0.72461467452E+02  0.69999866028E+02 0.  0.
        -12    1    1    2    0    0  0.16271858911E+02  0.81165820397E+01 -0.44755697784E+01  0.18726532548E+02  0.00000000000E+00 0.  1.
         11    1    3    3    0    0  0.10124446031E+02 -0.38660645729E+01  0.88505868882E+01  0.13992274699E+02  0.51100000000E-03 0. -1.
        -11    1    3    3    0    0  0.21619007511E+01  0.20412716206E+02 -0.45114776649E+00  0.20531837043E+02  0.51100000000E-03 0.  1.
         12    1    3    3    0    0 -0.28558205694E+02 -0.24663233673E+02 -0.39238693433E+01  0.37937355710E+02  0.00000000000E+00 0. -1.
</event>
<event>
 7    1  0.2809593E-013  0.7246157E+02  0.7816164E-02  0.1226708E+00
        -11   -1    0    0    0    0  0.00000000000E+00  0.00000000000E+00  0.45593999997E+02  0.45594000000E+02  0.51100000000E-03 0.  1.
         11   -1    0    0    0    0 -0.00000000000E+00 -0.00000000000E+00 -0.45593999997E+02  0.45594000000E+02  0.51100000000E-03 0. -1.
    9900012    2    1    2    0    0 -0.79080543681E+01 -0.14875663722E+01 -0.16909435478E+02  0.72461569860E+02  0.69999999435E+02 0.  0.
        -12    1    1    2    0    0  0.79080543681E+01  0.14875663722E+01  0.16909435478E+02  0.18726430140E+02  0.00000000000E+00 0.  1.
         11    1    3    3    0    0  0.21593577003E+02 -0.14111243306E+02 -0.11415755570E+02  0.28208672974E+02  0.51100000000E-03 0. -1.
        -11    1    3    3    0    0  0.18253326032E+01 -0.57543754064E+01 -0.51441107236E+01  0.79313650041E+01  0.51100000000E-03 0.  1.
        -12    1    3    3    0    0 -0.31326963975E+02  0.18378052340E+02 -0.34956918394E+00  0.36321531883E+02  0.00000000000E+00 0.  1.
</event>
<event>
 7    1  0.2809593E-013  0.7246160E+02  0.7816164E-02  0.1226708E+00
        -11   -1    0    0    0    0  0.00000000000E+00  0.00000000000E+00  0.45593999997E+02  0.45594000000E+02  0.51100000000E-03 0.  1.
         11   -1    0    0    0    0 -0.00000000000E+00 -0.00000000000E+00 -0.45593999997E+02  0.45594000000E+02  0.51100000000E-03 0. -1.
    9900012    2    1    2    0    0  0.15617015568E+02 -0.10028110762E+02 -0.24947837207E+01  0.72461598142E+02  0.70000036277E+02 0.  0.
        -12    1    1    2    0    0 -0.15617015568E+02  0.10028110762E+02  0.24947837207E+01  0.18726401858E+02  0.00000000000E+00 0.  1.
         11    1    3    3    0    0 -0.49123621322E+01 -0.35237190186E+01 -0.44930603282E+01  0.75322963838E+01  0.51100000000E-03 0. -1.
        -11    1    3    3    0    0  0.75765186830E+01  0.27003743517E+02  0.63082115925E+01  0.28747162174E+02  0.51100000000E-03 0.  1.
         12    1    3    3    0    0  0.12952859017E+02 -0.33508135261E+02 -0.43099349850E+01  0.36182139585E+02  0.00000000000E+00 0. -1.
</event>
<event>
 7    1  0.2809593E-013  0.7246157E+02  0.7816164E-02  0.1226708E+00
        -11   -1    0    0    0    0  0.00000000000E+00  0.00000000000E+00  0.45593999997E+02  0.45594000000E+02  0.51100000000E-03 0.  1.
         11   -1    0    0    0    0 -0.00000000000E+00 -0.00000000000E+00 -0.45593999997E+02  0.45594000000E+02  0.51100000000E-03 0. -1.
    9900012    2    1    2    0    0  0.13697216778E+02 -0.41093569038E+01  0.12090431321E+02  0.72461572386E+02  0.70000002725E+02 0.  0.
        -12    1    1    2    0    0 -0.13697216778E+02  0.41093569038E+01 -0.12090431321E+02  0.18726427614E+02  0.00000000000E+00 0.  1.
         11    1    3    3    0    0  0.59658980181E+01 -0.30855860847E+00  0.10371921930E+01  0.60632429840E+01  0.51100000000E-03 0. -1.
        -11    1    3    3    0    0  0.32413334167E+02 -0.19644039269E+01  0.22115507069E+02  0.39288405005E+02  0.51100000000E-03 0.  1.
         12    1    3    3    0    0 -0.24682015407E+02 -0.18363943685E+01 -0.11062267941E+02  0.27109924397E+02  0.00000000000E+00 0. -1.
</event>
<event>
 7    1  0.2809593E-013  0.7246160E+02  0.7816164E-02  0.1226708E+00
        -11   -1    0    0    0    0  0.00000000000E+00  0.00000000000E+00  0.45593999997E+02  0.45594000000E+02  0.51100000000E-03 0. -1.
         11   -1    0    0    0    0 -0.00000000000E+00 -0.00000000000E+00 -0.45593999997E+02  0.45594000000E+02  0.51100000000E-03 0.  1.
    9900012    2    1    2    0    0  0.15827580424E+02 -0.88105364988E+01  0.47476380003E+01  0.72461603602E+02  0.70000043389E+02 0.  0.
        -12    1    1    2    0    0 -0.15827580424E+02  0.88105364988E+01 -0.47476380003E+01  0.18726396398E+02  0.00000000000E+00 0.  1.
         11    1    3    3    0    0 -0.46558578968E+00  0.37089401666E+01  0.78220917123E+01  0.86693786573E+01  0.51100000000E-03 0. -1.
        -11    1    3    3    0    0  0.30961848604E+02 -0.26789131561E+02 -0.10074220708E+02  0.42163770726E+02  0.51100000000E-03 0.  1.
         12    1    3    3    0    0 -0.14668682390E+02  0.14269654895E+02  0.69997669959E+01  0.21628454218E+02  0.00000000000E+00 0. -1.
</event>
<event>
 7    1  0.2809593E-013  0.7246159E+02  0.7816164E-02  0.1226708E+00
        -11   -1    0    0    0    0  0.00000000000E+00  0.00000000000E+00  0.45593999997E+02  0.45594000000E+02  0.51100000000E-03 0. -1.
         11   -1    0    0    0    0 -0.00000000000E+00 -0.00000000000E+00 -0.45593999997E+02  0.45594000000E+02  0.51100000000E-03 0.  1.
    9900012    2    1    2    0    0  0.10110992502E+02 -0.98317219651E-01  0.15761872335E+02  0.72461589368E+02  0.70000024847E+02 0.  0.
        -12    1    1    2    0    0 -0.10110992502E+02  0.98317219651E-01 -0.15761872335E+02  0.18726410632E+02  0.00000000000E+00 0.  1.
         11    1    3    3    0    0  0.23301527504E+01  0.78687011394E+01 -0.13946219727E+02  0.16181567118E+02  0.51100000000E-03 0. -1.
        -11    1    3    3    0    0 -0.12549821271E+02 -0.16986180680E+02  0.26979090585E+01  0.21291008938E+02  0.51100000000E-03 0.  1.
         12    1    3    3    0    0  0.20330661023E+02  0.90191623213E+01  0.27010183004E+02  0.34989013312E+02  0.00000000000E+00 0. -1.
</event>
<event>
 7    1  0.2809593E-013  0.7246172E+02  0.7816164E-02  0.1226708E+00
        -11   -1    0    0    0    0  0.00000000000E+00  0.00000000000E+00  0.45593999997E+02  0.45594000000E+02  0.51100000000E-03 0.  1.
         11   -1    0    0    0    0 -0.00000000000E+00 -0.00000000000E+00 -0.45593999997E+02  0.45594000000E+02  0.51100000000E-03 0. -1.
    9900012    2    1    2    0    0  0.16935692654E+02 -0.46153123653E+01  0.65233965072E+01  0.72461721782E+02  0.70000197341E+02 0.  0.
        -12    1    1    2    0    0 -0.16935692654E+02  0.46153123653E+01 -0.65233965072E+01  0.18726278218E+02  0.00000000000E+00 0.  1.
         11    1    3    3    0    0  0.61825388372E+01  0.18014580489E+02 -0.11681378685E+02  0.22342862505E+02  0.51100000000E-03 0. -1.
        -11    1    3    3    0    0  0.14770487172E+01  0.18477495956E+01  0.23326512848E+02  0.23446152209E+02  0.51100000000E-03 0.  1.
        -12    1    3    3    0    0  0.92761050996E+01 -0.24477642450E+02 -0.51217376565E+01  0.26672707068E+02  0.00000000000E+00 0.  1.
</event>
<event>
 7    1  0.2809593E-013  0.7246161E+02  0.7816164E-02  0.1226708E+00
        -11   -1    0    0    0    0  0.00000000000E+00  0.00000000000E+00  0.45593999997E+02  0.45594000000E+02  0.51100000000E-03 0.  1.
         11   -1    0    0    0    0 -0.00000000000E+00 -0.00000000000E+00 -0.45593999997E+02  0.45594000000E+02  0.51100000000E-03 0. -1.
    9900012    2    1    2    0    0 -0.14049569764E+02 -0.10635445491E+02 -0.63383453209E+01  0.72461608657E+02  0.70000049974E+02 0.  0.
        -12    1    1    2    0    0  0.14049569764E+02  0.10635445491E+02  0.63383453209E+01  0.18726391343E+02  0.00000000000E+00 0.  1.
         11    1    3    3    0    0 -0.17397981025E+02 -0.19871724704E+02 -0.12052644682E+02  0.29031731443E+02  0.51100000000E-03 0. -1.
        -11    1    3    3    0    0 -0.17907907345E+02 -0.64048823906E+00  0.84869771543E+01  0.19827560418E+02  0.51100000000E-03 0.  1.
        -12    1    3    3    0    0  0.21256318606E+02  0.98767674524E+01 -0.27726777928E+01  0.23602316796E+02  0.00000000000E+00 0.  1.
</event>
<event>
 7    1  0.2809593E-013  0.7246158E+02  0.7816164E-02  0.1226708E+00
        -11   -1    0    0    0    0  0.00000000000E+00  0.00000000000E+00  0.45593999997E+02  0.45594000000E+02  0.51100000000E-03 0.  1.
         11   -1    0    0    0    0 -0.00000000000E+00 -0.00000000000E+00 -0.45593999997E+02  0.45594000000E+02  0.51100000000E-03 0. -1.
    9900012    2    1    2    0    0  0.95877811743E+01  0.92736455669E+00 -0.16059059534E+02  0.72461576263E+02  0.70000007775E+02 0.  0.
        -12    1    1    2    0    0 -0.95877811743E+01 -0.92736455669E+00  0.16059059534E+02  0.18726423737E+02  0.00000000000E+00 0.  1.
         11    1    3    3    0    0  0.20337094070E+02  0.18426884120E+02 -0.27455262584E+02  0.38819310883E+02  0.51100000000E-03 0. -1.
        -11    1    3    3    0    0 -0.75317701659E+01 -0.47193704014E+01 -0.67885260728E+01  0.11184100559E+02  0.51100000000E-03 0.  1.
        -12    1    3    3    0    0 -0.32175427298E+01 -0.12780149162E+02  0.18184729124E+02  0.22458164821E+02  0.00000000000E+00 0.  1.
</event>
<event>
 7    1  0.2809593E-013  0.7246158E+02  0.7816164E-02  0.1226708E+00
        -11   -1    0    0    0    0  0.00000000000E+00  0.00000000000E+00  0.45593999997E+02  0.45594000000E+02  0.51100000000E-03 0. -1.
         11   -1    0    0    0    0 -0.00000000000E+00 -0.00000000000E+00 -0.45593999997E+02  0.45594000000E+02  0.51100000000E-03 0.  1.
    9900012    2    1    2    0    0  0.24369153325E+01  0.16087596341E+02 -0.92698233477E+01  0.72461576496E+02  0.70000008079E+02 0.  0.
        -12    1    1    2    0    0 -0.24369153325E+01 -0.16087596341E+02  0.92698233477E+01  0.18726423504E+02  0.00000000000E+00 0.  1.
         11    1    3    3    0    0  0.24424224780E+01  0.91554948372E+01  0.10096820707E+02  0.13846815588E+02  0.51100000000E-03 0. -1.
        -11    1    3    3    0    0 -0.11185968924E+02  0.25039743660E+02 -0.24442918820E+02  0.36736506966E+02  0.51100000000E-03 0.  1.
         12    1    3    3    0    0  0.11180461779E+02 -0.18107642157E+02  0.50762747648E+01  0.21878253942E+02  0.00000000000E+00 0. -1.
</event>
<event>
 7    1  0.2809593E-013  0.7246161E+02  0.7816164E-02  0.1226708E+00
        -11   -1    0    0    0    0  0.00000000000E+00  0.00000000000E+00  0.45593999997E+02  0.45594000000E+02  0.51100000000E-03 0.  1.
         11   -1    0    0    0    0 -0.00000000000E+00 -0.00000000000E+00 -0.45593999997E+02  0.45594000000E+02  0.51100000000E-03 0. -1.
    9900012    2    1    2    0    0 -0.53459948802E+00  0.10766355308E+02 -0.15312661153E+02  0.72461607000E+02  0.70000047815E+02 0.  0.
        -12    1    1    2    0    0  0.53459948802E+00 -0.10766355308E+02  0.15312661153E+02  0.18726393000E+02  0.00000000000E+00 0.  1.
         11    1    3    3    0    0  0.31629987216E+01  0.36488896418E+01 -0.91331784890E+01  0.10331210292E+02  0.51100000000E-03 0. -1.
        -11    1    3    3    0    0  0.21151189980E+02 -0.14724049335E+02  0.67002659802E+01  0.26628256249E+02  0.51100000000E-03 0.  1.
         12    1    3    3    0    0 -0.24848788190E+02  0.21841515001E+02 -0.12879748644E+02  0.35502140459E+02  0.00000000000E+00 0. -1.
</event>
<event>
 7    1  0.2809593E-013  0.7246156E+02  0.7816164E-02  0.1226708E+00
        -11   -1    0    0    0    0  0.00000000000E+00  0.00000000000E+00  0.45593999997E+02  0.45594000000E+02  0.51100000000E-03 0.  1.
         11   -1    0    0    0    0 -0.00000000000E+00 -0.00000000000E+00 -0.45593999997E+02  0.45594000000E+02  0.51100000000E-03 0. -1.
    9900012    2    1    2    0    0 -0.34856225666E+01  0.17123948475E+02 -0.67305599607E+01  0.72461558442E+02  0.69999984560E+02 0.  0.
        -12    1    1    2    0    0  0.34856225666E+01 -0.17123948475E+02  0.67305599607E+01  0.18726441558E+02  0.00000000000E+00 0.  1.
         11    1    3    3    0    0 -0.10294256991E+02  0.35505293405E+02 -0.19636607171E+02  0.41859215572E+02  0.51100000000E-03 0. -1.
        -11    1    3    3    0    0 -0.36490412217E+01 -0.63949170092E+01 -0.31431095619E+01  0.80055982520E+01  0.51100000000E-03 0.  1.
        -12    1    3    3    0    0  0.10457675646E+02 -0.11986427922E+02  0.16049156773E+02  0.22596744618E+02  0.00000000000E+00 0.  1.
</event>
<event>
 7    1  0.2809593E-013  0.7246156E+02  0.7816164E-02  0.1226708E+00
        -11   -1    0    0    0    0  0.00000000000E+00  0.00000000000E+00  0.45593999997E+02  0.45594000000E+02  0.51100000000E-03 0.  1.
         11   -1    0    0    0    0 -0.00000000000E+00 -0.00000000000E+00 -0.45593999997E+02  0.45594000000E+02  0.51100000000E-03 0. -1.
    9900012    2    1    2    0    0  0.11510754165E+02  0.51351223560E+01 -0.13849637743E+02  0.72461563909E+02  0.69999991682E+02 0.  0.
        -12    1    1    2    0    0 -0.11510754165E+02 -0.51351223560E+01  0.13849637743E+02  0.18726436091E+02  0.00000000000E+00 0.  1.
         11    1    3    3    0    0  0.22042873051E+01  0.35638868171E+02  0.93077537926E+00  0.35719100634E+02  0.51100000000E-03 0. -1.
        -11    1    3    3    0    0  0.25506026390E+01 -0.19495022022E+01 -0.47494836340E+01  0.57326893959E+01  0.51100000000E-03 0.  1.
        -12    1    3    3    0    0  0.67558642209E+01 -0.28554243612E+02 -0.10030929488E+02  0.31009773879E+02  0.00000000000E+00 0.  1.
</event>
<event>
 7    1  0.2809593E-013  0.7246154E+02  0.7816164E-02  0.1226708E+00
        -11   -1    0    0    0    0  0.00000000000E+00  0.00000000000E+00  0.45593999997E+02  0.45594000000E+02  0.51100000000E-03 0. -1.
         11   -1    0    0    0    0 -0.00000000000E+00 -0.00000000000E+00 -0.45593999997E+02  0.45594000000E+02  0.51100000000E-03 0.  1.
    9900012    2    1    2    0    0  0.54726020355E+01  0.13124532794E+02  0.12185134035E+02  0.72461542098E+02  0.69999963269E+02 0.  0.
        -12    1    1    2    0    0 -0.54726020355E+01 -0.13124532794E+02 -0.12185134035E+02  0.18726457902E+02  0.00000000000E+00 0.  1.
         11    1    3    3    0    0  0.13576583298E+02 -0.75916286584E+01  0.21133273885E+02  0.26240649861E+02  0.51100000000E-03 0. -1.
        -11    1    3    3    0    0 -0.91869406811E+01 -0.60209790328E+01  0.88309596367E+01  0.14093896408E+02  0.51100000000E-03 0.  1.
        -12    1    3    3    0    0  0.10829594185E+01  0.26737140486E+02 -0.17779099487E+02  0.32126995829E+02  0.00000000000E+00 0.  1.
</event>
<event>
 7    1  0.2809593E-013  0.7246156E+02  0.7816164E-02  0.1226708E+00
        -11   -1    0    0    0    0  0.00000000000E+00  0.00000000000E+00  0.45593999997E+02  0.45594000000E+02  0.51100000000E-03 0.  1.
         11   -1    0    0    0    0 -0.00000000000E+00 -0.00000000000E+00 -0.45593999997E+02  0.45594000000E+02  0.51100000000E-03 0. -1.
    9900012    2    1    2    0    0 -0.16287357604E+01  0.14470377119E+02 -0.11774332603E+02  0.72461561407E+02  0.69999988422E+02 0.  0.
        -12    1    1    2    0    0  0.16287357604E+01 -0.14470377119E+02  0.11774332603E+02  0.18726438593E+02  0.00000000000E+00 0.  1.
         11    1    3    3    0    0  0.12235777216E+02  0.12910781759E+02  0.11817001622E+01  0.17826916314E+02  0.51100000000E-03 0. -1.
        -11    1    3    3    0    0  0.17168261490E+02  0.10859388976E+02 -0.81299998865E+01  0.21880869040E+02  0.51100000000E-03 0.  1.
         12    1    3    3    0    0 -0.31032774467E+02 -0.92997936160E+01 -0.48260328787E+01  0.32753776053E+02  0.00000000000E+00 0. -1.
</event>
<event>
 7    1  0.2809593E-013  0.7246152E+02  0.7816164E-02  0.1226708E+00
        -11   -1    0    0    0    0  0.00000000000E+00  0.00000000000E+00  0.45593999997E+02  0.45594000000E+02  0.51100000000E-03 0. -1.
         11   -1    0    0    0    0 -0.00000000000E+00 -0.00000000000E+00 -0.45593999997E+02  0.45594000000E+02  0.51100000000E-03 0.  1.
    9900012    2    1    2    0    0 -0.14053365824E+02  0.12367519377E+02 -0.47801096377E+00  0.72461518189E+02  0.69999932123E+02 0.  0.
        -12    1    1    2    0    0  0.14053365824E+02 -0.12367519377E+02  0.47801096377E+00  0.18726481811E+02  0.00000000000E+00 0.  1.
         11    1    3    3    0    0 -0.65869923909E+01 -0.58505078283E+01  0.54486052120E+01  0.10358774523E+02  0.51100000000E-03 0. -1.
        -11    1    3    3    0    0  0.82004007184E+01  0.17067145181E+02  0.22632270843E+02  0.29508536059E+02  0.51100000000E-03 0.  1.
        -12    1    3    3    0    0 -0.15666774152E+02  0.11508820244E+01 -0.28558887019E+02  0.32594207607E+02  0.00000000000E+00 0.  1.
</event>
<event>
 7    1  0.2809593E-013  0.7246159E+02  0.7816164E-02  0.1226708E+00
        -11   -1    0    0    0    0  0.00000000000E+00  0.00000000000E+00  0.45593999997E+02  0.45594000000E+02  0.51100000000E-03 0.  1.
         11   -1    0    0    0    0 -0.00000000000E+00 -0.00000000000E+00 -0.45593999997E+02  0.45594000000E+02  0.51100000000E-03 0. -1.
    9900012    2    1    2    0    0 -0.13437063638E+02  0.96281596317E+01 -0.87989991594E+01  0.72461587548E+02  0.70000022477E+02 0.  0.
        -12    1    1    2    0    0  0.13437063638E+02 -0.96281596317E+01  0.87989991594E+01  0.18726412452E+02  0.00000000000E+00 0.  1.
         11    1    3    3    0    0 -0.86306293562E+00  0.74278257805E+00  0.34519288054E+01  0.36348887642E+01  0.51100000000E-03 0. -1.
        -11    1    3    3    0    0  0.23831503918E+01 -0.89658300167E+01  0.24004964596E+02  0.25735264506E+02  0.51100000000E-03 0.  1.
         12    1    3    3    0    0 -0.14957151094E+02  0.17851207070E+02 -0.36255892561E+02  0.43091434278E+02  0.00000000000E+00 0. -1.
</event>
<event>
 7    1  0.2809593E-013  0.7246151E+02  0.7816164E-02  0.1226708E+00
        -11   -1    0    0    0    0  0.00000000000E+00  0.00000000000E+00  0.45593999997E+02  0.45594000000E+02  0.51100000000E-03 0.  1.
         11   -1    0    0    0    0 -0.00000000000E+00 -0.00000000000E+00 -0.45593999997E+02  0.45594000000E+02  0.51100000000E-03 0. -1.
    9900012    2    1    2    0    0 -0.59776103123E+01 -0.15802631186E+02 -0.80762795583E+01  0.72461514239E+02  0.69999926978E+02 0.  0.
        -12    1    1    2    0    0  0.59776103123E+01  0.15802631186E+02  0.80762795583E+01  0.18726485761E+02  0.00000000000E+00 0.  1.
         11    1    3    3    0    0 -0.98018285849E+01  0.12635008975E+01 -0.17767081073E+02  0.20330800482E+02  0.51100000000E-03 0. -1.
        -11    1    3    3    0    0 -0.15416230995E+02  0.24352375729E+01 -0.98721782436E+01  0.18467551642E+02  0.51100000000E-03 0.  1.
         12    1    3    3    0    0  0.19240449268E+02 -0.19501369656E+02  0.19562979759E+02  0.33663162114E+02  0.00000000000E+00 0. -1.
</event>
<event>
 7    1  0.2809593E-013  0.7246161E+02  0.7816164E-02  0.1226708E+00
        -11   -1    0    0    0    0  0.00000000000E+00  0.00000000000E+00  0.45593999997E+02  0.45594000000E+02  0.51100000000E-03 0.  1.
         11   -1    0    0    0    0 -0.00000000000E+00 -0.00000000000E+00 -0.45593999997E+02  0.45594000000E+02  0.51100000000E-03 0. -1.
    9900012    2    1    2    0    0 -0.10594530641E+02  0.51632710656E+00 -0.15432664550E+02  0.72461606639E+02  0.70000047346E+02 0.  0.
        -12    1    1    2    0    0  0.10594530641E+02 -0.51632710656E+00  0.15432664550E+02  0.18726393361E+02  0.00000000000E+00 0.  1.
         11    1    3    3    0    0  0.13864687654E+02 -0.59523663188E+01  0.73955783959E+01  0.16803416576E+02  0.51100000000E-03 0. -1.
        -11    1    3    3    0    0  0.77520738343E+01 -0.73410029380E+01  0.41250611617E+01  0.11445571315E+02  0.51100000000E-03 0.  1.
         12    1    3    3    0    0 -0.32211292129E+02  0.13809696363E+02 -0.26953304108E+02  0.44212618749E+02  0.00000000000E+00 0. -1.
</event>
<event>
 7    1  0.2809593E-013  0.7246162E+02  0.7816164E-02  0.1226708E+00
        -11   -1    0    0    0    0  0.00000000000E+00  0.00000000000E+00  0.45593999997E+02  0.45594000000E+02  0.51100000000E-03 0. -1.
         11   -1    0    0    0    0 -0.00000000000E+00 -0.00000000000E+00 -0.45593999997E+02  0.45594000000E+02  0.51100000000E-03 0.  1.
    9900012    2    1    2    0    0  0.14012533060E+02 -0.12375287928E+02  0.10855641254E+01  0.72461620651E+02  0.70000065599E+02 0.  0.
        -12    1    1    2    0    0 -0.14012533060E+02  0.12375287928E+02 -0.10855641254E+01  0.18726379349E+02  0.00000000000E+00 0.  1.
         11    1    3    3    0    0  0.10373356004E+01  0.12916218488E+02  0.19824738984E+02  0.23683856131E+02  0.51100000000E-03 0. -1.
        -11    1    3    3    0    0 -0.37940054914E+01 -0.28017864391E+01  0.84713072229E+01  0.96957481013E+01  0.51100000000E-03 0.  1.
        -12    1    3    3    0    0  0.16769202951E+02 -0.22489719977E+02 -0.27210482082E+02  0.39082016419E+02  0.00000000000E+00 0.  1.
</event>
<event>
 7    1  0.2809593E-013  0.7246141E+02  0.7816164E-02  0.1226708E+00
        -11   -1    0    0    0    0  0.00000000000E+00  0.00000000000E+00  0.45593999997E+02  0.45594000000E+02  0.51100000000E-03 0.  1.
         11   -1    0    0    0    0 -0.00000000000E+00 -0.00000000000E+00 -0.45593999997E+02  0.45594000000E+02  0.51100000000E-03 0. -1.
    9900012    2    1    2    0    0  0.23485772873E+01  0.35508312075E+01 -0.18236251401E+02  0.72461412412E+02  0.69999794328E+02 0.  0.
        -12    1    1    2    0    0 -0.23485772873E+01 -0.35508312075E+01  0.18236251401E+02  0.18726587588E+02  0.00000000000E+00 0.  1.
         11    1    3    3    0    0  0.56445042014E+01  0.17148593340E+02  0.18877177208E+02  0.26120537912E+02  0.51100000000E-03 0. -1.
        -11    1    3    3    0    0 -0.10814180201E+02  0.13793976862E+01 -0.16476493374E+02  0.19756620804E+02  0.51100000000E-03 0.  1.
        -12    1    3    3    0    0  0.75182532871E+01 -0.14977159819E+02 -0.20636935234E+02  0.26584253696E+02  0.00000000000E+00 0.  1.
</event>
<event>
 7    1  0.2809593E-013  0.7246154E+02  0.7816164E-02  0.1226708E+00
        -11   -1    0    0    0    0  0.00000000000E+00  0.00000000000E+00  0.45593999997E+02  0.45594000000E+02  0.51100000000E-03 0. -1.
         11   -1    0    0    0    0 -0.00000000000E+00 -0.00000000000E+00 -0.45593999997E+02  0.45594000000E+02  0.51100000000E-03 0.  1.
    9900012    2    1    2    0    0  0.17569175413E+02  0.26900108665E+01  0.58964577990E+01  0.72461540171E+02  0.69999960759E+02 0.  0.
        -12    1    1    2    0    0 -0.17569175413E+02 -0.26900108665E+01 -0.58964577990E+01  0.18726459829E+02  0.00000000000E+00 0.  1.
         11    1    3    3    0    0 -0.15647880481E+01  0.35030891576E+01 -0.43983827356E+01  0.58366057116E+01  0.51100000000E-03 0. -1.
        -11    1    3    3    0    0  0.28107774099E+02 -0.35951131956E+01 -0.20145313128E+02  0.34767879501E+02  0.51100000000E-03 0.  1.
         12    1    3    3    0    0 -0.89738106387E+01  0.27820349045E+01  0.30440153663E+02  0.31857054958E+02  0.00000000000E+00 0. -1.
</event>
<event>
 7    1  0.2809593E-013  0.7246161E+02  0.7816164E-02  0.1226708E+00
        -11   -1    0    0    0    0  0.00000000000E+00  0.00000000000E+00  0.45593999997E+02  0.45594000000E+02  0.51100000000E-03 0.  1.
         11   -1    0    0    0    0 -0.00000000000E+00 -0.00000000000E+00 -0.45593999997E+02  0.45594000000E+02  0.51100000000E-03 0. -1.
    9900012    2    1    2    0    0  0.17542167016E+02 -0.64930442528E+01  0.88898280852E+00  0.72461613864E+02  0.70000056758E+02 0.  0.
        -12    1    1    2    0    0 -0.17542167016E+02  0.64930442528E+01 -0.88898280852E+00  0.18726386136E+02  0.00000000000E+00 0.  1.
         11    1    3    3    0    0  0.24697479908E+02 -0.84329028058E+01 -0.24467256910E+02  0.35773258511E+02  0.51100000000E-03 0. -1.
        -11    1    3    3    0    0 -0.30914517296E+01 -0.92158592145E+01  0.12288583915E+01  0.97979195785E+01  0.51100000000E-03 0.  1.
        -12    1    3    3    0    0 -0.40638611623E+01  0.11155717767E+02  0.24127381327E+02  0.26890435775E+02  0.00000000000E+00 0.  1.
</event>
<event>
 7    1  0.2809593E-013  0.7246162E+02  0.7816164E-02  0.1226708E+00
        -11   -1    0    0    0    0  0.00000000000E+00  0.00000000000E+00  0.45593999997E+02  0.45594000000E+02  0.51100000000E-03 0.  1.
         11   -1    0    0    0    0 -0.00000000000E+00 -0.00000000000E+00 -0.45593999997E+02  0.45594000000E+02  0.51100000000E-03 0. -1.
    9900012    2    1    2    0    0  0.98450284738E+01  0.11743353340E+02 -0.10763190093E+02  0.72461623033E+02  0.70000068702E+02 0.  0.
        -12    1    1    2    0    0 -0.98450284738E+01 -0.11743353340E+02  0.10763190093E+02  0.18726376967E+02  0.00000000000E+00 0.  1.
         11    1    3    3    0    0  0.66800643676E+01  0.95924689425E+01 -0.15684685339E+02  0.19561392456E+02  0.51100000000E-03 0.  1.
        -11    1    3    3    0    0  0.20672836014E+02 -0.10265312405E+02 -0.11583091396E+02  0.25824616051E+02  0.51100000000E-03 0. -1.
        -12    1    3    3    0    0 -0.17507871907E+02  0.12416196802E+02  0.16504586642E+02  0.27075614526E+02  0.00000000000E+00 0.  1.
</event>
<event>
 7    1  0.2834340E-013  0.7246153E+02  0.7816164E-02  0.1226708E+00
        -11   -1    0    0    0    0  0.00000000000E+00  0.00000000000E+00  0.45593999997E+02  0.45594000000E+02  0.51100000000E-03 0. -1.
         11   -1    0    0    0    0 -0.00000000000E+00 -0.00000000000E+00 -0.45593999997E+02  0.45594000000E+02  0.51100000000E-03 0.  1.
    9900012    2    1    2    0    0 -0.57113792762E+01 -0.46585712356E+01  0.17215070383E+02  0.72461527094E+02  0.69999943724E+02 0.  0.
        -12    1    1    2    0    0  0.57113792762E+01  0.46585712356E+01 -0.17215070383E+02  0.18726472906E+02  0.00000000000E+00 0.  1.
         11    1    3    3    0    0 -0.66203784772E+01 -0.22560086389E+02  0.21821041063E+02  0.32077168553E+02  0.51100000000E-03 0.  1.
        -11    1    3    3    0    0  0.16596310262E+02  0.13478628820E+01  0.16591774883E+01  0.16733413245E+02  0.51100000000E-03 0. -1.
        -12    1    3    3    0    0 -0.15687311061E+02  0.16553652271E+02 -0.62651481682E+01  0.23650945296E+02  0.00000000000E+00 0.  1.
</event>
<event>
 7    1  0.2809593E-013  0.7246158E+02  0.7816164E-02  0.1226708E+00
        -11   -1    0    0    0    0  0.00000000000E+00  0.00000000000E+00  0.45593999997E+02  0.45594000000E+02  0.51100000000E-03 0.  1.
         11   -1    0    0    0    0 -0.00000000000E+00 -0.00000000000E+00 -0.45593999997E+02  0.45594000000E+02  0.51100000000E-03 0. -1.
    9900012    2    1    2    0    0  0.94887824540E+01 -0.14575513574E+02  0.69423621058E+01  0.72461575354E+02  0.70000006592E+02 0.  0.
        -12    1    1    2    0    0 -0.94887824540E+01  0.14575513574E+02 -0.69423621058E+01  0.18726424646E+02  0.00000000000E+00 0.  1.
         11    1    3    3    0    0  0.17629029183E+02 -0.13389379034E+01 -0.13230009599E+02  0.22081860857E+02  0.51100000000E-03 0. -1.
        -11    1    3    3    0    0  0.15524176732E+01  0.64575853224E+01 -0.10643398642E+02  0.12545610537E+02  0.51100000000E-03 0.  1.
        -12    1    3    3    0    0 -0.96926644021E+01 -0.19694160993E+02  0.30815770347E+02  0.37834103961E+02  0.00000000000E+00 0.  1.
</event>
<event>
 7    1  0.2809593E-013  0.7246155E+02  0.7816164E-02  0.1226708E+00
        -11   -1    0    0    0    0  0.00000000000E+00  0.00000000000E+00  0.45593999997E+02  0.45594000000E+02  0.51100000000E-03 0. -1.
         11   -1    0    0    0    0 -0.00000000000E+00 -0.00000000000E+00 -0.45593999997E+02  0.45594000000E+02  0.51100000000E-03 0.  1.
    9900012    2    1    2    0    0 -0.54215438983E+01 -0.23170592929E+01  0.17774084882E+02  0.72461548243E+02  0.69999971274E+02 0.  0.
        -12    1    1    2    0    0  0.54215438983E+01  0.23170592929E+01 -0.17774084882E+02  0.18726451757E+02  0.00000000000E+00 0.  1.
         11    1    3    3    0    0  0.37437434401E+01 -0.13060293271E+02  0.26820790211E+02  0.30065622613E+02  0.51100000000E-03 0. -1.
        -11    1    3    3    0    0  0.67796318345E+01 -0.46046240027E+01  0.10187202010E+02  0.13074595790E+02  0.51100000000E-03 0.  1.
        -12    1    3    3    0    0 -0.15944919173E+02  0.15347857981E+02 -0.19233907340E+02  0.29321329840E+02  0.00000000000E+00 0.  1.
</event>
<event>
 7    1  0.2809593E-013  0.7246156E+02  0.7816164E-02  0.1226708E+00
        -11   -1    0    0    0    0  0.00000000000E+00  0.00000000000E+00  0.45593999997E+02  0.45594000000E+02  0.51100000000E-03 0. -1.
         11   -1    0    0    0    0 -0.00000000000E+00 -0.00000000000E+00 -0.45593999997E+02  0.45594000000E+02  0.51100000000E-03 0.  1.
    9900012    2    1    2    0    0 -0.31324992965E+01 -0.77761521809E+01  0.16745100963E+02  0.72461561448E+02  0.69999988475E+02 0.  0.
        -12    1    1    2    0    0  0.31324992965E+01  0.77761521809E+01 -0.16745100963E+02  0.18726438552E+02  0.00000000000E+00 0.  1.
         11    1    3    3    0    0 -0.17677538039E+02 -0.18658720411E+02  0.60101471423E+01  0.26396307837E+02  0.51100000000E-03 0. -1.
        -11    1    3    3    0    0 -0.51904512094E+01  0.91643363616E+01 -0.11962733000E+02  0.15938407254E+02  0.51100000000E-03 0.  1.
        -12    1    3    3    0    0  0.19735489951E+02  0.17182318690E+01  0.22697686821E+02  0.30126846357E+02  0.00000000000E+00 0.  1.
</event>
<event>
 7    1  0.2809593E-013  0.7246154E+02  0.7816164E-02  0.1226708E+00
        -11   -1    0    0    0    0  0.00000000000E+00  0.00000000000E+00  0.45593999997E+02  0.45594000000E+02  0.51100000000E-03 0. -1.
         11   -1    0    0    0    0 -0.00000000000E+00 -0.00000000000E+00 -0.45593999997E+02  0.45594000000E+02  0.51100000000E-03 0.  1.
    9900012    2    1    2    0    0 -0.99930110875E+01 -0.10585935242E+02  0.11779552428E+02  0.72461544090E+02  0.69999965864E+02 0.  0.
        -12    1    1    2    0    0  0.99930110875E+01  0.10585935242E+02 -0.11779552428E+02  0.18726455910E+02  0.00000000000E+00 0.  1.
         11    1    3    3    0    0 -0.31531775904E+02 -0.12809992335E+01 -0.55713873118E+01  0.32045814197E+02  0.51100000000E-03 0. -1.
        -11    1    3    3    0    0  0.91873457744E+00  0.61119427705E+01 -0.36611702647E+01  0.71835983756E+01  0.51100000000E-03 0.  1.
         12    1    3    3    0    0  0.20620030239E+02 -0.15416878779E+02  0.21012110005E+02  0.33232131518E+02  0.00000000000E+00 0. -1.
</event>
<event>
 7    1  0.2809593E-013  0.7246160E+02  0.7816164E-02  0.1226708E+00
        -11   -1    0    0    0    0  0.00000000000E+00  0.00000000000E+00  0.45593999997E+02  0.45594000000E+02  0.51100000000E-03 0. -1.
         11   -1    0    0    0    0 -0.00000000000E+00 -0.00000000000E+00 -0.45593999997E+02  0.45594000000E+02  0.51100000000E-03 0.  1.
    9900012    2    1    2    0    0 -0.10821757562E+02 -0.13162890683E+02  0.77656932227E+01  0.72461598341E+02  0.70000036536E+02 0.  0.
        -12    1    1    2    0    0  0.10821757562E+02  0.13162890683E+02 -0.77656932227E+01  0.18726401659E+02  0.00000000000E+00 0.  1.
         11    1    3    3    0    0 -0.11248671596E+02  0.20534741768E+02  0.90417815634E+01  0.25099044728E+02  0.51100000000E-03 0. -1.
        -11    1    3    3    0    0  0.13919545496E+02 -0.38463923684E+01  0.13170865432E+01  0.14501144724E+02  0.51100000000E-03 0.  1.
        -12    1    3    3    0    0 -0.13492631462E+02 -0.29851240082E+02 -0.25931748839E+01  0.32861408890E+02  0.00000000000E+00 0.  1.
</event>
<event>
 7    1  0.2809593E-013  0.7246158E+02  0.7816164E-02  0.1226708E+00
        -11   -1    0    0    0    0  0.00000000000E+00  0.00000000000E+00  0.45593999997E+02  0.45594000000E+02  0.51100000000E-03 0.  1.
         11   -1    0    0    0    0 -0.00000000000E+00 -0.00000000000E+00 -0.45593999997E+02  0.45594000000E+02  0.51100000000E-03 0. -1.
    9900012    2    1    2    0    0  0.40994685891E+01 -0.14328225048E+02 -0.11339096493E+02  0.72461580561E+02  0.70000013374E+02 0.  0.
        -12    1    1    2    0    0 -0.40994685891E+01  0.14328225048E+02  0.11339096493E+02  0.18726419439E+02  0.00000000000E+00 0.  1.
         11    1    3    3    0    0 -0.33266305934E+01 -0.33381471961E+02  0.67912098051E+01  0.34227323475E+02  0.51100000000E-03 0. -1.
        -11    1    3    3    0    0  0.10432267357E+02  0.49964243514E+01 -0.20622676002E+02  0.23645109943E+02  0.51100000000E-03 0.  1.
         12    1    3    3    0    0 -0.30061681742E+01  0.14056822561E+02  0.24923697040E+01  0.14589147142E+02  0.00000000000E+00 0. -1.
</event>
<event>
 7    1  0.2809593E-013  0.7246153E+02  0.7816164E-02  0.1226708E+00
        -11   -1    0    0    0    0  0.00000000000E+00  0.00000000000E+00  0.45593999997E+02  0.45594000000E+02  0.51100000000E-03 0.  1.
         11   -1    0    0    0    0 -0.00000000000E+00 -0.00000000000E+00 -0.45593999997E+02  0.45594000000E+02  0.51100000000E-03 0. -1.
    9900012    2    1    2    0    0  0.98266268863E+01  0.15324674688E+02  0.43900458258E+01  0.72461528025E+02  0.69999944937E+02 0.  0.
        -12    1    1    2    0    0 -0.98266268863E+01 -0.15324674688E+02 -0.43900458258E+01  0.18726471975E+02  0.00000000000E+00 0.  1.
         11    1    3    3    0    0 -0.56326828918E+01  0.19252963997E+00  0.50073571083E+01  0.75390854680E+01  0.51100000000E-03 0. -1.
        -11    1    3    3    0    0  0.79414003549E+00  0.36550008528E+02  0.82760953481E+01  0.37483696939E+02  0.51100000000E-03 0.  1.
         12    1    3    3    0    0  0.14665169743E+02 -0.21417863479E+02 -0.88934066307E+01  0.27438745618E+02  0.00000000000E+00 0. -1.
</event>
<event>
 7    1  0.2809593E-013  0.7246150E+02  0.7816164E-02  0.1226708E+00
        -11   -1    0    0    0    0  0.00000000000E+00  0.00000000000E+00  0.45593999997E+02  0.45594000000E+02  0.51100000000E-03 0.  1.
         11   -1    0    0    0    0 -0.00000000000E+00 -0.00000000000E+00 -0.45593999997E+02  0.45594000000E+02  0.51100000000E-03 0. -1.
    9900012    2    1    2    0    0 -0.12344891188E+02  0.39883317507E+01 -0.13504769594E+02  0.72461496579E+02  0.69999903972E+02 0.  0.
        -12    1    1    2    0    0  0.12344891188E+02 -0.39883317507E+01  0.13504769594E+02  0.18726503421E+02  0.00000000000E+00 0.  1.
         11    1    3    3    0    0 -0.33983500646E+02  0.13984488912E+02 -0.24368991571E+02  0.44094126556E+02  0.51100000000E-03 0. -1.
        -11    1    3    3    0    0  0.45205968502E+01  0.17262420283E+01 -0.22201796349E+00  0.48440685028E+01  0.51100000000E-03 0.  1.
        -12    1    3    3    0    0  0.17118012608E+02 -0.11722399189E+02  0.11086239941E+02  0.23523301521E+02  0.00000000000E+00 0.  1.
</event>
<event>
 7    1  0.2809593E-013  0.7246157E+02  0.7816164E-02  0.1226708E+00
        -11   -1    0    0    0    0  0.00000000000E+00  0.00000000000E+00  0.45593999997E+02  0.45594000000E+02  0.51100000000E-03 0.  1.
         11   -1    0    0    0    0 -0.00000000000E+00 -0.00000000000E+00 -0.45593999997E+02  0.45594000000E+02  0.51100000000E-03 0. -1.
    9900012    2    1    2    0    0  0.11680500669E+02  0.74096032646E+01 -0.12623104811E+02  0.72461572378E+02  0.70000002714E+02 0.  0.
        -12    1    1    2    0    0 -0.11680500669E+02 -0.74096032646E+01  0.12623104811E+02  0.18726427622E+02  0.00000000000E+00 0.  1.
         11    1    3    3    0    0 -0.72656434360E+01  0.19612445729E+02 -0.62699207237E+01  0.21834594298E+02  0.51100000000E-03 0. -1.
        -11    1    3    3    0    0  0.12660109624E+02  0.16380428954E+02 -0.11352685857E+00  0.20702891514E+02  0.51100000000E-03 0.  1.
        -12    1    3    3    0    0  0.62860344813E+01 -0.28583271419E+02 -0.62396572286E+01  0.29924086566E+02  0.00000000000E+00 0.  1.
</event>
<event>
 7    1  0.2809593E-013  0.7246165E+02  0.7816164E-02  0.1226708E+00
        -11   -1    0    0    0    0  0.00000000000E+00  0.00000000000E+00  0.45593999997E+02  0.45594000000E+02  0.51100000000E-03 0.  1.
         11   -1    0    0    0    0 -0.00000000000E+00 -0.00000000000E+00 -0.45593999997E+02  0.45594000000E+02  0.51100000000E-03 0. -1.
    9900012    2    1    2    0    0 -0.31257031955E+01  0.76586187076E+01 -0.16800344578E+02  0.72461653883E+02  0.70000108889E+02 0.  0.
        -12    1    1    2    0    0  0.31257031955E+01 -0.76586187076E+01  0.16800344578E+02  0.18726346117E+02  0.00000000000E+00 0.  1.
         11    1    3    3    0    0 -0.82753391271E+01  0.33857585710E+02 -0.88062534225E+01  0.35949512478E+02  0.51100000000E-03 0. -1.
        -11    1    3    3    0    0 -0.58161040837E+01 -0.72634793394E+01 -0.11019241491E+02  0.14422513031E+02  0.51100000000E-03 0.  1.
        -12    1    3    3    0    0  0.10965740015E+02 -0.18935487663E+02  0.30251503361E+01  0.22089628374E+02  0.00000000000E+00 0.  1.
</event>
<event>
 7    1  0.2809593E-013  0.7246145E+02  0.7816164E-02  0.1226708E+00
        -11   -1    0    0    0    0  0.00000000000E+00  0.00000000000E+00  0.45593999997E+02  0.45594000000E+02  0.51100000000E-03 0.  1.
         11   -1    0    0    0    0 -0.00000000000E+00 -0.00000000000E+00 -0.45593999997E+02  0.45594000000E+02  0.51100000000E-03 0. -1.
    9900012    2    1    2    0    0 -0.30936952396E+01  0.12533962507E+02 -0.13565122500E+02  0.72461448935E+02  0.69999841906E+02 0.  0.
        -12    1    1    2    0    0  0.30936952396E+01 -0.12533962507E+02  0.13565122500E+02  0.18726551065E+02  0.00000000000E+00 0.  1.
         11    1    3    3    0    0 -0.43975783289E+01  0.89510979173E+01 -0.12426103166E+02  0.15933263609E+02  0.51100000000E-03 0. -1.
        -11    1    3    3    0    0  0.12184439540E+02 -0.17805197037E+02 -0.17251339758E+02  0.27624162107E+02  0.51100000000E-03 0.  1.
         12    1    3    3    0    0 -0.10880556451E+02  0.21388061626E+02  0.16112320423E+02  0.28904023219E+02  0.00000000000E+00 0. -1.
</event>
<event>
 7    1  0.2809593E-013  0.7246160E+02  0.7816164E-02  0.1226708E+00
        -11   -1    0    0    0    0  0.00000000000E+00  0.00000000000E+00  0.45593999997E+02  0.45594000000E+02  0.51100000000E-03 0.  1.
         11   -1    0    0    0    0 -0.00000000000E+00 -0.00000000000E+00 -0.45593999997E+02  0.45594000000E+02  0.51100000000E-03 0. -1.
    9900012    2    1    2    0    0 -0.30878673778E+01 -0.25978328294E+01 -0.18286451709E+02  0.72461602149E+02  0.70000041497E+02 0.  0.
        -12    1    1    2    0    0  0.30878673778E+01  0.25978328294E+01  0.18286451709E+02  0.18726397851E+02  0.00000000000E+00 0.  1.
         11    1    3    3    0    0  0.27188992893E+00 -0.11337954941E+02  0.23058757663E+01  0.11573254066E+02  0.51100000000E-03 0. -1.
        -11    1    3    3    0    0  0.14831677601E+02 -0.11874241337E+02 -0.26656269010E+02  0.32734277838E+02  0.51100000000E-03 0.  1.
        -12    1    3    3    0    0 -0.18191434908E+02  0.20614363448E+02  0.60639415346E+01  0.28154070244E+02  0.00000000000E+00 0.  1.
</event>
<event>
 7    1  0.2809593E-013  0.7246158E+02  0.7816164E-02  0.1226708E+00
        -11   -1    0    0    0    0  0.00000000000E+00  0.00000000000E+00  0.45593999997E+02  0.45594000000E+02  0.51100000000E-03 0. -1.
         11   -1    0    0    0    0 -0.00000000000E+00 -0.00000000000E+00 -0.45593999997E+02  0.45594000000E+02  0.51100000000E-03 0.  1.
    9900012    2    1    2    0    0  0.13030285007E+01 -0.11454943128E+02  0.14756875938E+02  0.72461575014E+02  0.70000006148E+02 0.  0.
        -12    1    1    2    0    0 -0.13030285007E+01  0.11454943128E+02 -0.14756875938E+02  0.18726424986E+02  0.00000000000E+00 0.  1.
         11    1    3    3    0    0  0.12635373295E+02  0.20913069705E+02  0.11467317938E+02  0.26990897054E+02  0.51100000000E-03 0. -1.
        -11    1    3    3    0    0  0.90775485573E+01 -0.43207277700E+01 -0.23588898419E+01  0.10326419409E+02  0.51100000000E-03 0.  1.
         12    1    3    3    0    0 -0.20409893352E+02 -0.28047285063E+02  0.56484478413E+01  0.35144258550E+02  0.00000000000E+00 0. -1.
</event>
<event>
 7    1  0.2809593E-013  0.7246155E+02  0.7816164E-02  0.1226708E+00
        -11   -1    0    0    0    0  0.00000000000E+00  0.00000000000E+00  0.45593999997E+02  0.45594000000E+02  0.51100000000E-03 0. -1.
         11   -1    0    0    0    0 -0.00000000000E+00 -0.00000000000E+00 -0.45593999997E+02  0.45594000000E+02  0.51100000000E-03 0.  1.
    9900012    2    1    2    0    0 -0.92774397735E+01  0.10592305367E+02  0.12345536226E+02  0.72461545812E+02  0.69999968108E+02 0.  0.
        -12    1    1    2    0    0  0.92774397735E+01 -0.10592305367E+02 -0.12345536226E+02  0.18726454188E+02  0.00000000000E+00 0.  1.
         11    1    3    3    0    0  0.79684963369E+00  0.52567382325E+01 -0.50131441963E+01  0.73075222325E+01  0.51100000000E-03 0. -1.
        -11    1    3    3    0    0  0.21488769702E+01  0.70581654584E+01 -0.22368185201E+02  0.23553578949E+02  0.51100000000E-03 0.  1.
         12    1    3    3    0    0 -0.12223166377E+02 -0.17225983241E+01  0.39726865623E+02  0.41600444631E+02  0.00000000000E+00 0. -1.
</event>
<event>
 7    1  0.2809593E-013  0.7246148E+02  0.7816164E-02  0.1226708E+00
        -11   -1    0    0    0    0  0.00000000000E+00  0.00000000000E+00  0.45593999997E+02  0.45594000000E+02  0.51100000000E-03 0.  1.
         11   -1    0    0    0    0 -0.00000000000E+00 -0.00000000000E+00 -0.45593999997E+02  0.45594000000E+02  0.51100000000E-03 0. -1.
    9900012    2    1    2    0    0  0.11133326066E+02  0.24627710536E+01 -0.14854843037E+02  0.72461479976E+02  0.69999882344E+02 0.  0.
        -12    1    1    2    0    0 -0.11133326066E+02 -0.24627710536E+01  0.14854843037E+02  0.18726520024E+02  0.00000000000E+00 0.  1.
         11    1    3    3    0    0  0.71196071256E+01 -0.69412519479E+01  0.12793168389E+02  0.16202930041E+02  0.51100000000E-03 0. -1.
        -11    1    3    3    0    0  0.65642074349E+00  0.86451706553E+01  0.12911974378E+02  0.15552779380E+02  0.51100000000E-03 0.  1.
         12    1    3    3    0    0  0.33572981970E+01  0.75885234627E+00 -0.40559985804E+02  0.40705770555E+02  0.00000000000E+00 0. -1.
</event>
<event>
 7    1  0.2809593E-013  0.7246158E+02  0.7816164E-02  0.1226708E+00
        -11   -1    0    0    0    0  0.00000000000E+00  0.00000000000E+00  0.45593999997E+02  0.45594000000E+02  0.51100000000E-03 0.  1.
         11   -1    0    0    0    0 -0.00000000000E+00 -0.00000000000E+00 -0.45593999997E+02  0.45594000000E+02  0.51100000000E-03 0. -1.
    9900012    2    1    2    0    0  0.82664664532E+01 -0.15189732821E+02  0.71844620001E+01  0.72461576288E+02  0.70000007808E+02 0.  0.
        -12    1    1    2    0    0 -0.82664664532E+01  0.15189732821E+02 -0.71844620001E+01  0.18726423712E+02  0.00000000000E+00 0.  1.
         11    1    3    3    0    0 -0.10403376949E+02  0.86367449106E+01 -0.18148251832E+01  0.13642477975E+02  0.51100000000E-03 0. -1.
        -11    1    3    3    0    0  0.10063655232E+02  0.11702535459E+02  0.15289415116E+02  0.21725393153E+02  0.51100000000E-03 0.  1.
        -12    1    3    3    0    0  0.86061881705E+01 -0.35529013191E+02 -0.62901279329E+01  0.37093705160E+02  0.00000000000E+00 0.  1.
</event>
<event>
 7    1  0.2809593E-013  0.7246156E+02  0.7816164E-02  0.1226708E+00
        -11   -1    0    0    0    0  0.00000000000E+00  0.00000000000E+00  0.45593999997E+02  0.45594000000E+02  0.51100000000E-03 0.  1.
         11   -1    0    0    0    0 -0.00000000000E+00 -0.00000000000E+00 -0.45593999997E+02  0.45594000000E+02  0.51100000000E-03 0. -1.
    9900012    2    1    2    0    0 -0.82762455758E+01  0.33263354483E+01 -0.16465690590E+02  0.72461555731E+02  0.69999981028E+02 0.  0.
        -12    1    1    2    0    0  0.82762455758E+01 -0.33263354483E+01  0.16465690590E+02  0.18726444269E+02  0.00000000000E+00 0.  1.
         11    1    3    3    0    0  0.50260870841E+01  0.67875047292E+00  0.16149743792E+02  0.16927388410E+02  0.51100000000E-03 0. -1.
        -11    1    3    3    0    0 -0.17828571786E+02 -0.15968653448E+02 -0.25817982821E+02  0.35205455572E+02  0.51100000000E-03 0.  1.
         12    1    3    3    0    0  0.45262391259E+01  0.18616238423E+02 -0.67974515611E+01  0.20328711749E+02  0.00000000000E+00 0. -1.
</event>
<event>
 7    1  0.2809593E-013  0.7246155E+02  0.7816164E-02  0.1226708E+00
        -11   -1    0    0    0    0  0.00000000000E+00  0.00000000000E+00  0.45593999997E+02  0.45594000000E+02  0.51100000000E-03 0.  1.
         11   -1    0    0    0    0 -0.00000000000E+00 -0.00000000000E+00 -0.45593999997E+02  0.45594000000E+02  0.51100000000E-03 0. -1.
    9900012    2    1    2    0    0  0.78257518080E+01  0.38527566903E+01 -0.16570871410E+02  0.72461550663E+02  0.69999974427E+02 0.  0.
        -12    1    1    2    0    0 -0.78257518080E+01 -0.38527566903E+01  0.16570871410E+02  0.18726449337E+02  0.00000000000E+00 0.  1.
         11    1    3    3    0    0 -0.51567548157E+01  0.71508399812E+01  0.13745415603E+01  0.89227796918E+01  0.51100000000E-03 0. -1.
        -11    1    3    3    0    0 -0.17860098246E+01  0.53789835271E+00  0.21325897817E+02  0.21407313790E+02  0.51100000000E-03 0.  1.
         12    1    3    3    0    0  0.14768516448E+02 -0.38359816436E+01 -0.39271310788E+02  0.42131457181E+02  0.00000000000E+00 0. -1.
</event>
<event>
 7    1  0.2809593E-013  0.7246155E+02  0.7816164E-02  0.1226708E+00
        -11   -1    0    0    0    0  0.00000000000E+00  0.00000000000E+00  0.45593999997E+02  0.45594000000E+02  0.51100000000E-03 0. -1.
         11   -1    0    0    0    0 -0.00000000000E+00 -0.00000000000E+00 -0.45593999997E+02  0.45594000000E+02  0.51100000000E-03 0.  1.
    9900012    2    1    2    0    0  0.17009645657E+01  0.30442699963E+01  0.18398890272E+02  0.72461547493E+02  0.69999970296E+02 0.  0.
        -12    1    1    2    0    0 -0.17009645657E+01 -0.30442699963E+01 -0.18398890272E+02  0.18726452507E+02  0.00000000000E+00 0.  1.
         11    1    3    3    0    0  0.18525404316E+02  0.10587762198E+02  0.20979530769E+02  0.29923770233E+02  0.51100000000E-03 0. -1.
        -11    1    3    3    0    0  0.96282193154E+01 -0.76463338938E+01 -0.90964419515E+01  0.15294256623E+02  0.51100000000E-03 0.  1.
        -12    1    3    3    0    0 -0.26452659066E+02  0.10284169213E+00  0.65158014549E+01  0.27243520636E+02  0.00000000000E+00 0.  1.
</event>
<event>
 7    1  0.2809593E-013  0.7246157E+02  0.7816164E-02  0.1226708E+00
        -11   -1    0    0    0    0  0.00000000000E+00  0.00000000000E+00  0.45593999997E+02  0.45594000000E+02  0.51100000000E-03 0. -1.
         11   -1    0    0    0    0 -0.00000000000E+00 -0.00000000000E+00 -0.45593999997E+02  0.45594000000E+02  0.51100000000E-03 0.  1.
    9900012    2    1    2    0    0  0.14825678597E+02  0.32525818060E+01  0.10968104369E+02  0.72461565537E+02  0.69999993802E+02 0.  0.
        -12    1    1    2    0    0 -0.14825678597E+02 -0.32525818060E+01 -0.10968104369E+02  0.18726434463E+02  0.00000000000E+00 0.  1.
         11    1    3    3    0    0  0.15208091376E+02  0.10056973729E+02  0.21794895093E+01  0.18362432809E+02  0.51100000000E-03 0.  1.
        -11    1    3    3    0    0  0.11736671875E+02  0.19971527326E+02  0.85939518473E+01  0.24707638071E+02  0.51100000000E-03 0. -1.
         12    1    3    3    0    0 -0.12119084654E+02 -0.26775919249E+02  0.19466301211E+00  0.29391494657E+02  0.00000000000E+00 0. -1.
</event>
<event>
 7    1  0.2809593E-013  0.7246161E+02  0.7816164E-02  0.1226708E+00
        -11   -1    0    0    0    0  0.00000000000E+00  0.00000000000E+00  0.45593999997E+02  0.45594000000E+02  0.51100000000E-03 0. -1.
         11   -1    0    0    0    0 -0.00000000000E+00 -0.00000000000E+00 -0.45593999997E+02  0.45594000000E+02  0.51100000000E-03 0.  1.
    9900012    2    1    2    0    0 -0.14846160924E+02  0.56421504763E+01  0.99214534030E+01  0.72461612366E+02  0.70000054807E+02 0.  0.
        -12    1    1    2    0    0  0.14846160924E+02 -0.56421504763E+01 -0.99214534030E+01  0.18726387634E+02  0.00000000000E+00 0.  1.
         11    1    3    3    0    0 -0.20248330801E+02  0.71162491667E+01  0.11192775607E+02  0.24205663149E+02  0.51100000000E-03 0. -1.
        -11    1    3    3    0    0  0.23867184363E+02 -0.89013567132E+01  0.74295234874E+01  0.26534401449E+02  0.51100000000E-03 0.  1.
         12    1    3    3    0    0 -0.18465014486E+02  0.74272580228E+01 -0.87008456918E+01  0.21721547768E+02  0.00000000000E+00 0. -1.
</event>
<event>
 7    1  0.2809593E-013  0.7246195E+02  0.7816164E-02  0.1226707E+00
        -11   -1    0    0    0    0  0.00000000000E+00  0.00000000000E+00  0.45593999997E+02  0.45594000000E+02  0.51100000000E-03 0. -1.
         11   -1    0    0    0    0 -0.00000000000E+00 -0.00000000000E+00 -0.45593999997E+02  0.45594000000E+02  0.51100000000E-03 0.  1.
    9900012    2    1    2    0    0 -0.75170411452E+01 -0.16434645559E+02  0.49052319267E+01  0.72461954435E+02  0.70000500413E+02 0.  0.
        -12    1    1    2    0    0  0.75170411452E+01  0.16434645559E+02 -0.49052319267E+01  0.18726045565E+02  0.00000000000E+00 0.  1.
         11    1    3    3    0    0  0.83776781104E+01  0.10331135732E+02  0.20501080728E+02  0.24437924775E+02  0.51100000000E-03 0. -1.
        -11    1    3    3    0    0  0.53084728316E+01 -0.15148728759E+02  0.44059876658E+01  0.16645617873E+02  0.51100000000E-03 0.  1.
        -12    1    3    3    0    0 -0.21203192087E+02 -0.11617052533E+02 -0.20001836467E+02  0.31378411787E+02  0.00000000000E+00 0.  1.
</event>
<event>
 7    1  0.2809593E-013  0.7246158E+02  0.7816164E-02  0.1226708E+00
        -11   -1    0    0    0    0  0.00000000000E+00  0.00000000000E+00  0.45593999997E+02  0.45594000000E+02  0.51100000000E-03 0. -1.
         11   -1    0    0    0    0 -0.00000000000E+00 -0.00000000000E+00 -0.45593999997E+02  0.45594000000E+02  0.51100000000E-03 0.  1.
    9900012    2    1    2    0    0  0.82592164041E+01 -0.12974924946E+02  0.10682476642E+02  0.72461584428E+02  0.70000018411E+02 0.  0.
        -12    1    1    2    0    0 -0.82592164041E+01  0.12974924946E+02 -0.10682476642E+02  0.18726415572E+02  0.00000000000E+00 0.  1.
         11    1    3    3    0    0  0.18932827786E+01 -0.47890935840E+01 -0.30648274017E+01  0.59927543166E+01  0.51100000000E-03 0. -1.
        -11    1    3    3    0    0  0.29409615557E+02 -0.22321334361E+02  0.13854287121E+02  0.39434866891E+02  0.51100000000E-03 0.  1.
         12    1    3    3    0    0 -0.23043681932E+02  0.14135502999E+02 -0.10698307638E+00  0.27033963220E+02  0.00000000000E+00 0. -1.
</event>
<event>
 7    1  0.2809593E-013  0.7246157E+02  0.7816164E-02  0.1226708E+00
        -11   -1    0    0    0    0  0.00000000000E+00  0.00000000000E+00  0.45593999997E+02  0.45594000000E+02  0.51100000000E-03 0. -1.
         11   -1    0    0    0    0 -0.00000000000E+00 -0.00000000000E+00 -0.45593999997E+02  0.45594000000E+02  0.51100000000E-03 0.  1.
    9900012    2    1    2    0    0  0.12679641998E+02  0.14904868158E+01  0.13699787955E+02  0.72461573161E+02  0.70000003734E+02 0.  0.
        -12    1    1    2    0    0 -0.12679641998E+02 -0.14904868158E+01 -0.13699787955E+02  0.18726426839E+02  0.00000000000E+00 0.  1.
         11    1    3    3    0    0  0.52669330169E+01  0.15666368612E+02  0.34051229248E+02  0.37850520504E+02  0.51100000000E-03 0. -1.
        -11    1    3    3    0    0  0.54361566292E+01 -0.51162784183E+01  0.40600419373E+01  0.84977670329E+01  0.51100000000E-03 0.  1.
        -12    1    3    3    0    0  0.19765523522E+01 -0.90596033779E+01 -0.24411483230E+02  0.26113285624E+02  0.00000000000E+00 0.  1.
</event>
<event>
 7    1  0.2809593E-013  0.7246153E+02  0.7816164E-02  0.1226708E+00
        -11   -1    0    0    0    0  0.00000000000E+00  0.00000000000E+00  0.45593999997E+02  0.45594000000E+02  0.51100000000E-03 0. -1.
         11   -1    0    0    0    0 -0.00000000000E+00 -0.00000000000E+00 -0.45593999997E+02  0.45594000000E+02  0.51100000000E-03 0.  1.
    9900012    2    1    2    0    0 -0.15685388484E+02 -0.10229520448E+02 -0.78568630628E-01  0.72461530137E+02  0.69999947688E+02 0.  0.
        -12    1    1    2    0    0  0.15685388484E+02  0.10229520448E+02  0.78568630628E-01  0.18726469863E+02  0.00000000000E+00 0.  1.
         11    1    3    3    0    0 -0.10585418239E+02  0.80397011669E+01 -0.10140486038E+02  0.16718771830E+02  0.51100000000E-03 0. -1.
        -11    1    3    3    0    0  0.21801238728E+02  0.74562261821E+00  0.26308371246E+01  0.21972056513E+02  0.51100000000E-03 0.  1.
         12    1    3    3    0    0 -0.26901208974E+02 -0.19014844233E+02  0.74310802833E+01  0.33770701794E+02  0.00000000000E+00 0. -1.
</event>
<event>
 7    1  0.2809593E-013  0.7246118E+02  0.7816164E-02  0.1226709E+00
        -11   -1    0    0    0    0  0.00000000000E+00  0.00000000000E+00  0.45593999997E+02  0.45594000000E+02  0.51100000000E-03 0. -1.
         11   -1    0    0    0    0 -0.00000000000E+00 -0.00000000000E+00 -0.45593999997E+02  0.45594000000E+02  0.51100000000E-03 0.  1.
    9900012    2    1    2    0    0 -0.13084893228E+02  0.94074169201E+01 -0.95383384786E+01  0.72461178998E+02  0.69999490262E+02 0.  0.
        -12    1    1    2    0    0  0.13084893228E+02 -0.94074169201E+01  0.95383384786E+01  0.18726821002E+02  0.00000000000E+00 0.  1.
         11    1    3    3    0    0 -0.19181616516E+01 -0.64630020470E+01 -0.13518506397E+02  0.15106281973E+02  0.51100000000E-03 0. -1.
        -11    1    3    3    0    0  0.77331449242E+00 -0.10410694522E+02 -0.18179593524E+02  0.20963735275E+02  0.51100000000E-03 0.  1.
         12    1    3    3    0    0 -0.11940046069E+02  0.26281113490E+02  0.22159761442E+02  0.36391161750E+02  0.00000000000E+00 0. -1.
</event>
<event>
 7    1  0.2809593E-013  0.7246162E+02  0.7816164E-02  0.1226708E+00
        -11   -1    0    0    0    0  0.00000000000E+00  0.00000000000E+00  0.45593999997E+02  0.45594000000E+02  0.51100000000E-03 0. -1.
         11   -1    0    0    0    0 -0.00000000000E+00 -0.00000000000E+00 -0.45593999997E+02  0.45594000000E+02  0.51100000000E-03 0.  1.
    9900012    2    1    2    0    0 -0.90077536281E+01 -0.33836809838E+01  0.16065128930E+02  0.72461620479E+02  0.70000065375E+02 0.  0.
        -12    1    1    2    0    0  0.90077536281E+01  0.33836809838E+01 -0.16065128930E+02  0.18726379521E+02  0.00000000000E+00 0.  1.
         11    1    3    3    0    0  0.28387589634E+01 -0.11613262247E+02  0.35344717378E+02  0.37311867539E+02  0.51100000000E-03 0. -1.
        -11    1    3    3    0    0  0.78669871819E+00 -0.22028927602E+01  0.51950461974E+01  0.56973798048E+01  0.51100000000E-03 0.  1.
        -12    1    3    3    0    0 -0.12633211310E+02  0.10432474024E+02 -0.24474634646E+02  0.29452373135E+02  0.00000000000E+00 0.  1.
</event>
<event>
 7    1  0.2809593E-013  0.7246163E+02  0.7816164E-02  0.1226708E+00
        -11   -1    0    0    0    0  0.00000000000E+00  0.00000000000E+00  0.45593999997E+02  0.45594000000E+02  0.51100000000E-03 0.  1.
         11   -1    0    0    0    0 -0.00000000000E+00 -0.00000000000E+00 -0.45593999997E+02  0.45594000000E+02  0.51100000000E-03 0. -1.
    9900012    2    1    2    0    0 -0.45351484776E+00 -0.18536351336E+02 -0.26220316142E+01  0.72461626983E+02  0.70000073848E+02 0.  0.
        -12    1    1    2    0    0  0.45351484776E+00  0.18536351336E+02  0.26220316142E+01  0.18726373017E+02  0.00000000000E+00 0.  1.
         11    1    3    3    0    0 -0.45664759894E+00  0.13250897348E+02 -0.10331325668E+02  0.16808661395E+02  0.51100000000E-03 0. -1.
        -11    1    3    3    0    0 -0.55369423003E+01  0.52423212335E+01  0.15622692099E+02  0.17384135602E+02  0.51100000000E-03 0.  1.
        -12    1    3    3    0    0  0.55400750515E+01 -0.37029569918E+02 -0.79133980451E+01  0.38268829986E+02  0.00000000000E+00 0.  1.
</event>
<event>
 7    1  0.2809593E-013  0.7246150E+02  0.7816164E-02  0.1226708E+00
        -11   -1    0    0    0    0  0.00000000000E+00  0.00000000000E+00  0.45593999997E+02  0.45594000000E+02  0.51100000000E-03 0. -1.
         11   -1    0    0    0    0 -0.00000000000E+00 -0.00000000000E+00 -0.45593999997E+02  0.45594000000E+02  0.51100000000E-03 0.  1.
    9900012    2    1    2    0    0  0.21834829735E+01  0.21035345930E+01  0.18479434070E+02  0.72461496343E+02  0.69999903665E+02 0.  0.
        -12    1    1    2    0    0 -0.21834829735E+01 -0.21035345930E+01 -0.18479434070E+02  0.18726503657E+02  0.00000000000E+00 0.  1.
         11    1    3    3    0    0  0.18421999097E+02 -0.96400677800E+00  0.86617889306E+01  0.20379547285E+02  0.51100000000E-03 0. -1.
        -11    1    3    3    0    0  0.10578774281E+02 -0.10888708170E+02 -0.78246033925E+01  0.17079193465E+02  0.51100000000E-03 0.  1.
         12    1    3    3    0    0 -0.26817290405E+02  0.13956249541E+02  0.17642248531E+02  0.35002755593E+02  0.00000000000E+00 0. -1.
</event>
<event>
 7    1  0.2809593E-013  0.7246156E+02  0.7816164E-02  0.1226708E+00
        -11   -1    0    0    0    0  0.00000000000E+00  0.00000000000E+00  0.45593999997E+02  0.45594000000E+02  0.51100000000E-03 0.  1.
         11   -1    0    0    0    0 -0.00000000000E+00 -0.00000000000E+00 -0.45593999997E+02  0.45594000000E+02  0.51100000000E-03 0. -1.
    9900012    2    1    2    0    0 -0.32010693862E+01  0.18444045807E+02 -0.49987491542E+00  0.72461560246E+02  0.69999986910E+02 0.  0.
        -12    1    1    2    0    0  0.32010693862E+01 -0.18444045807E+02  0.49987491542E+00  0.18726439754E+02  0.00000000000E+00 0.  1.
         11    1    3    3    0    0  0.16418574149E+01  0.30451328308E+02 -0.11513058835E+02  0.32596466304E+02  0.51100000000E-03 0. -1.
        -11    1    3    3    0    0 -0.17529497069E+01  0.11875291112E+02 -0.24849551317E+01  0.12258481714E+02  0.51100000000E-03 0.  1.
        -12    1    3    3    0    0 -0.30899770942E+01 -0.23882573613E+02  0.13498139051E+02  0.27606612228E+02  0.00000000000E+00 0.  1.
</event>
<event>
 7    1  0.2809593E-013  0.7246155E+02  0.7816164E-02  0.1226708E+00
        -11   -1    0    0    0    0  0.00000000000E+00  0.00000000000E+00  0.45593999997E+02  0.45594000000E+02  0.51100000000E-03 0.  1.
         11   -1    0    0    0    0 -0.00000000000E+00 -0.00000000000E+00 -0.45593999997E+02  0.45594000000E+02  0.51100000000E-03 0. -1.
    9900012    2    1    2    0    0 -0.31160938526E+01  0.15157606894E+02 -0.10545934403E+02  0.72461552925E+02  0.69999977373E+02 0.  0.
        -12    1    1    2    0    0  0.31160938526E+01 -0.15157606894E+02  0.10545934403E+02  0.18726447075E+02  0.00000000000E+00 0.  1.
         11    1    3    3    0    0 -0.69470135261E+01 -0.45175341503E+01 -0.43019697385E+01  0.93368118554E+01  0.51100000000E-03 0. -1.
        -11    1    3    3    0    0 -0.15150985714E+02  0.12471419877E+02  0.21264281034E+02  0.28935416534E+02  0.51100000000E-03 0.  1.
         12    1    3    3    0    0  0.18981905387E+02  0.72037211674E+01 -0.27508245698E+02  0.34189324535E+02  0.00000000000E+00 0. -1.
</event>
<event>
 7    1  0.2809593E-013  0.7246158E+02  0.7816164E-02  0.1226708E+00
        -11   -1    0    0    0    0  0.00000000000E+00  0.00000000000E+00  0.45593999997E+02  0.45594000000E+02  0.51100000000E-03 0.  1.
         11   -1    0    0    0    0 -0.00000000000E+00 -0.00000000000E+00 -0.45593999997E+02  0.45594000000E+02  0.51100000000E-03 0. -1.
    9900012    2    1    2    0    0  0.48872891225E+00 -0.13275755919E+02 -0.13198271224E+02  0.72461577104E+02  0.70000008871E+02 0.  0.
        -12    1    1    2    0    0 -0.48872891225E+00  0.13275755919E+02  0.13198271224E+02  0.18726422896E+02  0.00000000000E+00 0.  1.
         11    1    3    3    0    0 -0.80715598682E+01 -0.73952807328E+01 -0.96313577251E-01  0.10947581120E+02  0.51100000000E-03 0. -1.
        -11    1    3    3    0    0  0.35154948950E+01  0.26802631948E+02 -0.59591104938E+01  0.27681235193E+02  0.51100000000E-03 0.  1.
         12    1    3    3    0    0  0.50447938854E+01 -0.32683107134E+02 -0.71428471534E+01  0.33832760790E+02  0.00000000000E+00 0. -1.
</event>
<event>
 7    1  0.2809593E-013  0.7246159E+02  0.7816164E-02  0.1226708E+00
        -11   -1    0    0    0    0  0.00000000000E+00  0.00000000000E+00  0.45593999997E+02  0.45594000000E+02  0.51100000000E-03 0.  1.
         11   -1    0    0    0    0 -0.00000000000E+00 -0.00000000000E+00 -0.45593999997E+02  0.45594000000E+02  0.51100000000E-03 0. -1.
    9900012    2    1    2    0    0 -0.48757996842E+01  0.39463287438E+01 -0.17644589520E+02  0.72461588906E+02  0.70000024245E+02 0.  0.
        -12    1    1    2    0    0  0.48757996842E+01 -0.39463287438E+01  0.17644589520E+02  0.18726411094E+02  0.00000000000E+00 0.  1.
         11    1    3    3    0    0 -0.22825013301E+02  0.64536851367E+01 -0.87859984340E+01  0.25294763347E+02  0.51100000000E-03 0. -1.
        -11    1    3    3    0    0 -0.12246612884E+02 -0.67308312029E+01  0.32723490169E+01  0.14352417363E+02  0.51100000000E-03 0.  1.
         12    1    3    3    0    0  0.30195826500E+02  0.42234748100E+01 -0.12130940103E+02  0.32814408197E+02  0.00000000000E+00 0. -1.
</event>
<event>
 7    1  0.2809593E-013  0.7246157E+02  0.7816164E-02  0.1226708E+00
        -11   -1    0    0    0    0  0.00000000000E+00  0.00000000000E+00  0.45593999997E+02  0.45594000000E+02  0.51100000000E-03 0.  1.
         11   -1    0    0    0    0 -0.00000000000E+00 -0.00000000000E+00 -0.45593999997E+02  0.45594000000E+02  0.51100000000E-03 0. -1.
    9900012    2    1    2    0    0  0.48511446444E+01  0.23002598335E+00 -0.18085704728E+02  0.72461568631E+02  0.69999997833E+02 0.  0.
        -12    1    1    2    0    0 -0.48511446444E+01 -0.23002598335E+00  0.18085704728E+02  0.18726431369E+02  0.00000000000E+00 0.  1.
         11    1    3    3    0    0  0.16610588546E+01  0.56750616296E+01 -0.24448932622E+02  0.25153841608E+02  0.51100000000E-03 0. -1.
        -11    1    3    3    0    0  0.12289339360E+02  0.12662029258E+02  0.16929831717E+02  0.24453507909E+02  0.51100000000E-03 0.  1.
         12    1    3    3    0    0 -0.90992535704E+01 -0.18107064904E+02 -0.10566603822E+02  0.22854219114E+02  0.00000000000E+00 0. -1.
</event>
<event>
 7    1  0.2809593E-013  0.7246158E+02  0.7816164E-02  0.1226708E+00
        -11   -1    0    0    0    0  0.00000000000E+00  0.00000000000E+00  0.45593999997E+02  0.45594000000E+02  0.51100000000E-03 0. -1.
         11   -1    0    0    0    0 -0.00000000000E+00 -0.00000000000E+00 -0.45593999997E+02  0.45594000000E+02  0.51100000000E-03 0.  1.
    9900012    2    1    2    0    0  0.12460890028E+02 -0.72619936580E+01  0.11944394997E+02  0.72461577383E+02  0.70000009235E+02 0.  0.
        -12    1    1    2    0    0 -0.12460890028E+02  0.72619936580E+01 -0.11944394997E+02  0.18726422617E+02  0.00000000000E+00 0.  1.
         11    1    3    3    0    0  0.17469705419E+02  0.80009555604E+01 -0.13211023442E+02  0.23318169696E+02  0.51100000000E-03 0. -1.
        -11    1    3    3    0    0 -0.15290831445E+02 -0.10322661639E+02 -0.30675145132E+01  0.18702313096E+02  0.51100000000E-03 0.  1.
         12    1    3    3    0    0  0.10282016054E+02 -0.49402875797E+01  0.28222932952E+02  0.30441094592E+02  0.00000000000E+00 0. -1.
</event>
<event>
 7    1  0.2809593E-013  0.7246160E+02  0.7816164E-02  0.1226708E+00
        -11   -1    0    0    0    0  0.00000000000E+00  0.00000000000E+00  0.45593999997E+02  0.45594000000E+02  0.51100000000E-03 0. -1.
         11   -1    0    0    0    0 -0.00000000000E+00 -0.00000000000E+00 -0.45593999997E+02  0.45594000000E+02  0.51100000000E-03 0.  1.
    9900012    2    1    2    0    0 -0.13940570622E+02 -0.10410309169E+02  0.69256030190E+01  0.72461600896E+02  0.70000039864E+02 0.  0.
        -12    1    1    2    0    0  0.13940570622E+02  0.10410309169E+02 -0.69256030190E+01  0.18726399104E+02  0.00000000000E+00 0.  1.
         11    1    3    3    0    0  0.12503241632E+02  0.14541330001E+02  0.23123241994E+02  0.30041066061E+02  0.51100000000E-03 0. -1.
        -11    1    3    3    0    0 -0.30649292815E+01  0.18017153374E+01 -0.24822586611E+01  0.43360786408E+01  0.51100000000E-03 0.  1.
        -12    1    3    3    0    0 -0.23378882972E+02 -0.26753354508E+02 -0.13715380314E+02  0.38084456194E+02  0.00000000000E+00 0.  1.
</event>
<event>
 7    1  0.2809593E-013  0.7246159E+02  0.7816164E-02  0.1226708E+00
        -11   -1    0    0    0    0  0.00000000000E+00  0.00000000000E+00  0.45593999997E+02  0.45594000000E+02  0.51100000000E-03 0.  1.
         11   -1    0    0    0    0 -0.00000000000E+00 -0.00000000000E+00 -0.45593999997E+02  0.45594000000E+02  0.51100000000E-03 0. -1.
    9900012    2    1    2    0    0  0.16581852733E+02  0.81679597733E+01  0.30008612246E+01  0.72461586168E+02  0.70000020679E+02 0.  0.
        -12    1    1    2    0    0 -0.16581852733E+02 -0.81679597733E+01 -0.30008612246E+01  0.18726413832E+02  0.00000000000E+00 0.  1.
         11    1    3    3    0    0 -0.80269249522E+01  0.11823891133E+02 -0.15819555278E+02  0.21318870870E+02  0.51100000000E-03 0. -1.
        -11    1    3    3    0    0 -0.10003007853E+02 -0.64585751956E+01  0.93786303104E+01  0.15156914806E+02  0.51100000000E-03 0.  1.
        -12    1    3    3    0    0  0.34611785538E+02  0.28026438363E+01  0.94417861922E+01  0.35985800493E+02  0.00000000000E+00 0.  1.
</event>
<event>
 7    1  0.3634698E-013  0.7246170E+02  0.7816164E-02  0.1226708E+00
        -11   -1    0    0    0    0  0.00000000000E+00  0.00000000000E+00  0.45593999997E+02  0.45594000000E+02  0.51100000000E-03 0. -1.
         11   -1    0    0    0    0 -0.00000000000E+00 -0.00000000000E+00 -0.45593999997E+02  0.45594000000E+02  0.51100000000E-03 0.  1.
    9900012    2    1    2    0    0  0.14657108877E+02 -0.45606536674E+01  0.10725858027E+02  0.72461696763E+02  0.70000164749E+02 0.  0.
        -12    1    1    2    0    0 -0.14657108877E+02  0.45606536674E+01 -0.10725858027E+02  0.18726303237E+02  0.00000000000E+00 0.  1.
         11    1    3    3    0    0  0.13863034654E+02 -0.75859703675E+01  0.23666053666E+02  0.28457209502E+02  0.51100000000E-03 0. -1.
        -11    1    3    3    0    0 -0.98482254029E+01 -0.15940346641E+02 -0.76541010785E-01  0.18737343820E+02  0.51100000000E-03 0.  1.
        -12    1    3    3    0    0  0.10642299626E+02  0.18965663341E+02 -0.12863654628E+02  0.25267143442E+02  0.00000000000E+00 0.  1.
</event>
<event>
 7    1  0.2809593E-013  0.7246165E+02  0.7816164E-02  0.1226708E+00
        -11   -1    0    0    0    0  0.00000000000E+00  0.00000000000E+00  0.45593999997E+02  0.45594000000E+02  0.51100000000E-03 0. -1.
         11   -1    0    0    0    0 -0.00000000000E+00 -0.00000000000E+00 -0.45593999997E+02  0.45594000000E+02  0.51100000000E-03 0.  1.
    9900012    2    1    2    0    0 -0.35924306939E+00  0.48379867875E+01  0.18087044093E+02  0.72461645956E+02  0.70000098564E+02 0.  0.
        -12    1    1    2    0    0  0.35924306939E+00 -0.48379867875E+01 -0.18087044093E+02  0.18726354044E+02  0.00000000000E+00 0.  1.
         11    1    3    3    0    0  0.11235444733E+02 -0.17648509765E+02  0.28002195971E+02  0.34954657697E+02  0.51100000000E-03 0. -1.
        -11    1    3    3    0    0 -0.83969058773E+01  0.20422356200E+02  0.45537145249E+01  0.22545886040E+02  0.51100000000E-03 0.  1.
        -12    1    3    3    0    0 -0.31977819249E+01  0.20641403526E+01 -0.14468866403E+02  0.14961102219E+02  0.00000000000E+00 0.  1.
</event>
<event>
 7    1  0.2809593E-013  0.7246159E+02  0.7816164E-02  0.1226708E+00
        -11   -1    0    0    0    0  0.00000000000E+00  0.00000000000E+00  0.45593999997E+02  0.45594000000E+02  0.51100000000E-03 0. -1.
         11   -1    0    0    0    0 -0.00000000000E+00 -0.00000000000E+00 -0.45593999997E+02  0.45594000000E+02  0.51100000000E-03 0.  1.
    9900012    2    1    2    0    0 -0.10433920619E+01  0.11790099656E+01  0.18660111142E+02  0.72461588723E+02  0.70000024006E+02 0.  0.
        -12    1    1    2    0    0  0.10433920619E+01 -0.11790099656E+01 -0.18660111142E+02  0.18726411277E+02  0.00000000000E+00 0.  1.
         11    1    3    3    0    0  0.25030617102E+01 -0.14170816758E+02  0.31708593819E+02  0.34821147134E+02  0.51100000000E-03 0. -1.
        -11    1    3    3    0    0 -0.20105223917E+01 -0.90523082274E+01  0.11858411347E+01  0.93484064946E+01  0.51100000000E-03 0.  1.
        -12    1    3    3    0    0 -0.15359313804E+01  0.24402134951E+02 -0.14234323811E+02  0.28292035094E+02  0.00000000000E+00 0.  1.
</event>
<event>
 7    1  0.2809593E-013  0.7246155E+02  0.7816164E-02  0.1226708E+00
        -11   -1    0    0    0    0  0.00000000000E+00  0.00000000000E+00  0.45593999997E+02  0.45594000000E+02  0.51100000000E-03 0. -1.
         11   -1    0    0    0    0 -0.00000000000E+00 -0.00000000000E+00 -0.45593999997E+02  0.45594000000E+02  0.51100000000E-03 0.  1.
    9900012    2    1    2    0    0  0.20168745896E+00 -0.96969143022E+01  0.16019028264E+02  0.72461545682E+02  0.69999967937E+02 0.  0.
        -12    1    1    2    0    0 -0.20168745896E+00  0.96969143022E+01 -0.16019028264E+02  0.18726454318E+02  0.00000000000E+00 0.  1.
         11    1    3    3    0    0 -0.11944010783E+02  0.81271750568E+00  0.16608935582E+02  0.20473803866E+02  0.51100000000E-03 0. -1.
        -11    1    3    3    0    0 -0.72486063186E+01 -0.53643051761E+01 -0.21313047727E+02  0.23142257178E+02  0.51100000000E-03 0.  1.
         12    1    3    3    0    0  0.19394304561E+02 -0.51453266318E+01  0.20723140409E+02  0.28845484638E+02  0.00000000000E+00 0. -1.
</event>
<event>
 7    1  0.2809593E-013  0.7246158E+02  0.7816164E-02  0.1226708E+00
        -11   -1    0    0    0    0  0.00000000000E+00  0.00000000000E+00  0.45593999997E+02  0.45594000000E+02  0.51100000000E-03 0.  1.
         11   -1    0    0    0    0 -0.00000000000E+00 -0.00000000000E+00 -0.45593999997E+02  0.45594000000E+02  0.51100000000E-03 0. -1.
    9900012    2    1    2    0    0  0.17371446926E+01 -0.14099236053E+02 -0.12201335506E+02  0.72461582374E+02  0.70000015736E+02 0.  0.
        -12    1    1    2    0    0 -0.17371446926E+01  0.14099236053E+02  0.12201335506E+02  0.18726417626E+02  0.00000000000E+00 0.  1.
         11    1    3    3    0    0 -0.11294528301E+02  0.20622350886E+02 -0.82687922379E+01  0.24924298404E+02  0.51100000000E-03 0. -1.
        -11    1    3    3    0    0 -0.54116559287E+01 -0.21650214188E+02  0.55931869808E+01  0.23006554178E+02  0.51100000000E-03 0.  1.
        -12    1    3    3    0    0  0.18443328922E+02 -0.13071372751E+02 -0.95257302493E+01  0.24530729792E+02  0.00000000000E+00 0.  1.
</event>
<event>
 7    1  0.2809593E-013  0.7246161E+02  0.7816164E-02  0.1226708E+00
        -11   -1    0    0    0    0  0.00000000000E+00  0.00000000000E+00  0.45593999997E+02  0.45594000000E+02  0.51100000000E-03 0. -1.
         11   -1    0    0    0    0 -0.00000000000E+00 -0.00000000000E+00 -0.45593999997E+02  0.45594000000E+02  0.51100000000E-03 0.  1.
    9900012    2    1    2    0    0 -0.42805921394E+00 -0.18136209418E+02  0.46446068898E+01  0.72461609533E+02  0.70000051116E+02 0.  0.
        -12    1    1    2    0    0  0.42805921394E+00  0.18136209418E+02 -0.46446068898E+01  0.18726390467E+02  0.00000000000E+00 0.  1.
         11    1    3    3    0    0  0.19898692869E+02 -0.12836006928E+02  0.10433689172E+02  0.25876300387E+02  0.51100000000E-03 0. -1.
        -11    1    3    3    0    0 -0.21037236335E+02 -0.20060398806E+02 -0.10757258092E+02  0.30995217612E+02  0.51100000000E-03 0.  1.
        -12    1    3    3    0    0  0.71048425234E+00  0.14760196316E+02  0.49681758102E+01  0.15590091534E+02  0.00000000000E+00 0.  1.
</event>
<event>
 7    1  0.2809593E-013  0.7246159E+02  0.7816164E-02  0.1226708E+00
        -11   -1    0    0    0    0  0.00000000000E+00  0.00000000000E+00  0.45593999997E+02  0.45594000000E+02  0.51100000000E-03 0. -1.
         11   -1    0    0    0    0 -0.00000000000E+00 -0.00000000000E+00 -0.45593999997E+02  0.45594000000E+02  0.51100000000E-03 0.  1.
    9900012    2    1    2    0    0  0.28222481700E+00 -0.10126239138E+02  0.15749860643E+02  0.72461588699E+02  0.70000023976E+02 0.  0.
        -12    1    1    2    0    0 -0.28222481700E+00  0.10126239138E+02 -0.15749860643E+02  0.18726411301E+02  0.00000000000E+00 0.  1.
         11    1    3    3    0    0  0.13015808400E+02 -0.40638205776E+01  0.15345433056E+02  0.20528229878E+02  0.51100000000E-03 0. -1.
        -11    1    3    3    0    0  0.47095930752E+01 -0.25428384214E+02  0.64166306529E+00  0.25868798240E+02  0.51100000000E-03 0.  1.
        -12    1    3    3    0    0 -0.17443176658E+02  0.19365965653E+02 -0.23723547791E+00  0.26064560581E+02  0.00000000000E+00 0.  1.
</event>
<event>
 7    1  0.2809593E-013  0.7246151E+02  0.7816164E-02  0.1226708E+00
        -11   -1    0    0    0    0  0.00000000000E+00  0.00000000000E+00  0.45593999997E+02  0.45594000000E+02  0.51100000000E-03 0. -1.
         11   -1    0    0    0    0 -0.00000000000E+00 -0.00000000000E+00 -0.45593999997E+02  0.45594000000E+02  0.51100000000E-03 0.  1.
    9900012    2    1    2    0    0 -0.10648272763E+02  0.34706851389E+01  0.15008335172E+02  0.72461508262E+02  0.69999919191E+02 0.  0.
        -12    1    1    2    0    0  0.10648272763E+02 -0.34706851389E+01 -0.15008335172E+02  0.18726491738E+02  0.00000000000E+00 0.  1.
         11    1    3    3    0    0  0.52842239561E+01  0.23822007064E+01  0.47808998979E+00  0.58160530709E+01  0.51100000000E-03 0. -1.
        -11    1    3    3    0    0  0.10790374071E+02 -0.14799952850E+02 -0.15069819238E+02  0.23718562964E+02  0.51100000000E-03 0.  1.
         12    1    3    3    0    0 -0.26722870790E+02  0.15888437283E+02  0.29600064421E+02  0.42926892227E+02  0.00000000000E+00 0. -1.
</event>
<event>
 7    1  0.2809593E-013  0.7246153E+02  0.7816164E-02  0.1226708E+00
        -11   -1    0    0    0    0  0.00000000000E+00  0.00000000000E+00  0.45593999997E+02  0.45594000000E+02  0.51100000000E-03 0.  1.
         11   -1    0    0    0    0 -0.00000000000E+00 -0.00000000000E+00 -0.45593999997E+02  0.45594000000E+02  0.51100000000E-03 0. -1.
    9900012    2    1    2    0    0 -0.11285566037E+01  0.16081429977E+02  0.95286320046E+01  0.72461525212E+02  0.69999941272E+02 0.  0.
        -12    1    1    2    0    0  0.11285566037E+01 -0.16081429977E+02 -0.95286320046E+01  0.18726474788E+02  0.00000000000E+00 0.  1.
         11    1    3    3    0    0 -0.88981159576E+01 -0.29640840961E+00  0.20144984682E+02  0.22024639240E+02  0.51100000000E-03 0. -1.
        -11    1    3    3    0    0 -0.12954073789E+02 -0.93672287349E+01 -0.10028047707E+01  0.16017447349E+02  0.51100000000E-03 0.  1.
         12    1    3    3    0    0  0.20723633143E+02  0.25745067121E+02 -0.96135479069E+01  0.34419438623E+02  0.00000000000E+00 0. -1.
</event>
<event>
 7    1  0.2809593E-013  0.7246156E+02  0.7816164E-02  0.1226708E+00
        -11   -1    0    0    0    0  0.00000000000E+00  0.00000000000E+00  0.45593999997E+02  0.45594000000E+02  0.51100000000E-03 0.  1.
         11   -1    0    0    0    0 -0.00000000000E+00 -0.00000000000E+00 -0.45593999997E+02  0.45594000000E+02  0.51100000000E-03 0. -1.
    9900012    2    1    2    0    0  0.87745964133E+00  0.92350418436E+01 -0.16267261828E+02  0.72461555045E+02  0.69999980135E+02 0.  0.
        -12    1    1    2    0    0 -0.87745964133E+00 -0.92350418436E+01  0.16267261828E+02  0.18726444955E+02  0.00000000000E+00 0.  1.
         11    1    3    3    0    0 -0.13794092503E+02 -0.25762145825E+01  0.61328462366E+01  0.15314231054E+02  0.51100000000E-03 0.  1.
        -11    1    3    3    0    0  0.12215501270E+02  0.26811318090E+01  0.14446049884E+02  0.19107467037E+02  0.51100000000E-03 0. -1.
         12    1    3    3    0    0  0.24560508749E+01  0.91301246170E+01 -0.36846157949E+02  0.38039856954E+02  0.00000000000E+00 0. -1.
</event>
<event>
 7    1  0.2809593E-013  0.7246150E+02  0.7816164E-02  0.1226708E+00
        -11   -1    0    0    0    0  0.00000000000E+00  0.00000000000E+00  0.45593999997E+02  0.45594000000E+02  0.51100000000E-03 0. -1.
         11   -1    0    0    0    0 -0.00000000000E+00 -0.00000000000E+00 -0.45593999997E+02  0.45594000000E+02  0.51100000000E-03 0.  1.
    9900012    2    1    2    0    0 -0.13728783568E+02 -0.35279568958E+00  0.12730982673E+02  0.72461497847E+02  0.69999905624E+02 0.  0.
        -12    1    1    2    0    0  0.13728783568E+02  0.35279568958E+00 -0.12730982673E+02  0.18726502153E+02  0.00000000000E+00 0.  1.
         11    1    3    3    0    0  0.97354589219E+01 -0.15596643157E+02 -0.30939831942E+01  0.18644226196E+02  0.51100000000E-03 0. -1.
        -11    1    3    3    0    0 -0.14751307311E+02 -0.54426195918E+01  0.25028226178E+02  0.29557321958E+02  0.51100000000E-03 0.  1.
         12    1    3    3    0    0 -0.87129351787E+01  0.20686467059E+02 -0.92032603110E+01  0.24259949694E+02  0.00000000000E+00 0. -1.
</event>
<event>
 7    1  0.2809593E-013  0.7246156E+02  0.7816164E-02  0.1226708E+00
        -11   -1    0    0    0    0  0.00000000000E+00  0.00000000000E+00  0.45593999997E+02  0.45594000000E+02  0.51100000000E-03 0.  1.
         11   -1    0    0    0    0 -0.00000000000E+00 -0.00000000000E+00 -0.45593999997E+02  0.45594000000E+02  0.51100000000E-03 0. -1.
    9900012    2    1    2    0    0 -0.11157674741E+02  0.14129120458E+02 -0.51530439888E+01  0.72461558456E+02  0.69999984579E+02 0.  0.
        -12    1    1    2    0    0  0.11157674741E+02 -0.14129120458E+02  0.51530439888E+01  0.18726441544E+02  0.00000000000E+00 0.  1.
         11    1    3    3    0    0  0.35994019120E+01  0.24486609436E+02 -0.20200997067E+02  0.31947300646E+02  0.51100000000E-03 0. -1.
        -11    1    3    3    0    0 -0.12205161859E+02  0.27388212425E+01  0.22121078762E+02  0.25412777174E+02  0.51100000000E-03 0.  1.
        -12    1    3    3    0    0 -0.25519147932E+01 -0.13096310220E+02 -0.70731256837E+01  0.15101480637E+02  0.00000000000E+00 0.  1.
</event>
<event>
 7    1  0.2809593E-013  0.7246158E+02  0.7816164E-02  0.1226708E+00
        -11   -1    0    0    0    0  0.00000000000E+00  0.00000000000E+00  0.45593999997E+02  0.45594000000E+02  0.51100000000E-03 0. -1.
         11   -1    0    0    0    0 -0.00000000000E+00 -0.00000000000E+00 -0.45593999997E+02  0.45594000000E+02  0.51100000000E-03 0.  1.
    9900012    2    1    2    0    0 -0.48456971200E+01 -0.13178680196E+02  0.12390342681E+02  0.72461575246E+02  0.70000006451E+02 0.  0.
        -12    1    1    2    0    0  0.48456971200E+01  0.13178680196E+02 -0.12390342681E+02  0.18726424754E+02  0.00000000000E+00 0.  1.
         11    1    3    3    0    0 -0.54879197466E+01  0.12462754219E+01  0.17553232553E+02  0.18433297016E+02  0.51100000000E-03 0. -1.
        -11    1    3    3    0    0 -0.10938548693E+02  0.66005039395E+01  0.17062277947E+02  0.21315248738E+02  0.51100000000E-03 0.  1.
        -12    1    3    3    0    0  0.11580771320E+02 -0.21025459558E+02 -0.22225167818E+02  0.32713029492E+02  0.00000000000E+00 0.  1.
</event>
<event>
 7    1  0.2809593E-013  0.7246156E+02  0.7816164E-02  0.1226708E+00
        -11   -1    0    0    0    0  0.00000000000E+00  0.00000000000E+00  0.45593999997E+02  0.45594000000E+02  0.51100000000E-03 0.  1.
         11   -1    0    0    0    0 -0.00000000000E+00 -0.00000000000E+00 -0.45593999997E+02  0.45594000000E+02  0.51100000000E-03 0. -1.
    9900012    2    1    2    0    0 -0.14869999840E+02 -0.13053394808E+01  0.11307461120E+02  0.72461561915E+02  0.69999989084E+02 0.  0.
        -12    1    1    2    0    0  0.14869999840E+02  0.13053394808E+01 -0.11307461120E+02  0.18726438085E+02  0.00000000000E+00 0.  1.
         11    1    3    3    0    0 -0.77235981849E+01  0.72546085059E+01  0.59832973802E+00  0.10613261150E+02  0.51100000000E-03 0. -1.
        -11    1    3    3    0    0  0.51752608238E+01  0.88052601971E+00 -0.23607582840E+02  0.24184222511E+02  0.51100000000E-03 0.  1.
         12    1    3    3    0    0 -0.12321662479E+02 -0.94404740064E+01  0.34316714222E+02  0.37664078253E+02  0.00000000000E+00 0. -1.
</event>
<event>
 7    1  0.2809593E-013  0.7246157E+02  0.7816164E-02  0.1226708E+00
        -11   -1    0    0    0    0  0.00000000000E+00  0.00000000000E+00  0.45593999997E+02  0.45594000000E+02  0.51100000000E-03 0.  1.
         11   -1    0    0    0    0 -0.00000000000E+00 -0.00000000000E+00 -0.45593999997E+02  0.45594000000E+02  0.51100000000E-03 0. -1.
    9900012    2    1    2    0    0 -0.18339678837E+02 -0.37418429392E+01  0.57791775148E+00  0.72461569551E+02  0.69999999032E+02 0.  0.
        -12    1    1    2    0    0  0.18339678837E+02  0.37418429392E+01 -0.57791775148E+00  0.18726430449E+02  0.00000000000E+00 0.  1.
         11    1    3    3    0    0 -0.17081446604E+02  0.40265366097E+01 -0.99826871545E+01  0.20190167365E+02  0.51100000000E-03 0. -1.
        -11    1    3    3    0    0 -0.20972247815E+02  0.44642107194E+01 -0.76618882088E+01  0.22769911879E+02  0.51100000000E-03 0.  1.
        -12    1    3    3    0    0  0.19714015582E+02 -0.12232590268E+02  0.18222493115E+02  0.29501490307E+02  0.00000000000E+00 0.  1.
</event>
<event>
 7    1  0.2809593E-013  0.7246157E+02  0.7816164E-02  0.1226708E+00
        -11   -1    0    0    0    0  0.00000000000E+00  0.00000000000E+00  0.45593999997E+02  0.45594000000E+02  0.51100000000E-03 0. -1.
         11   -1    0    0    0    0 -0.00000000000E+00 -0.00000000000E+00 -0.45593999997E+02  0.45594000000E+02  0.51100000000E-03 0.  1.
    9900012    2    1    2    0    0  0.17747589304E+02 -0.31517343106E+01  0.50762881291E+01  0.72461573313E+02  0.70000003933E+02 0.  0.
        -12    1    1    2    0    0 -0.17747589304E+02  0.31517343106E+01 -0.50762881291E+01  0.18726426687E+02  0.00000000000E+00 0.  1.
         11    1    3    3    0    0  0.17056692411E+02 -0.13201574442E+02 -0.16898703770E+02  0.27400337828E+02  0.51100000000E-03 0. -1.
        -11    1    3    3    0    0  0.10018934160E+02  0.19613871840E+02  0.35599021979E+01  0.22310444060E+02  0.51100000000E-03 0.  1.
         12    1    3    3    0    0 -0.93280372661E+01 -0.95640317086E+01  0.18415089701E+02  0.22750791425E+02  0.00000000000E+00 0. -1.
</event>
<event>
 7    1  0.2809593E-013  0.7246152E+02  0.7816164E-02  0.1226708E+00
        -11   -1    0    0    0    0  0.00000000000E+00  0.00000000000E+00  0.45593999997E+02  0.45594000000E+02  0.51100000000E-03 0.  1.
         11   -1    0    0    0    0 -0.00000000000E+00 -0.00000000000E+00 -0.45593999997E+02  0.45594000000E+02  0.51100000000E-03 0. -1.
    9900012    2    1    2    0    0 -0.10899688209E+02  0.12470968712E+02 -0.87380185524E+01  0.72461515229E+02  0.69999928267E+02 0.  0.
        -12    1    1    2    0    0  0.10899688209E+02 -0.12470968712E+02  0.87380185524E+01  0.18726484771E+02  0.00000000000E+00 0.  1.
         11    1    3    3    0    0 -0.35621212280E+02 -0.56390900313E+01 -0.17480992799E+02  0.40078113855E+02  0.51100000000E-03 0. -1.
        -11    1    3    3    0    0  0.80898493226E+01  0.85505598536E+01  0.52323216202E+01  0.12881573105E+02  0.51100000000E-03 0.  1.
        -12    1    3    3    0    0  0.16631674748E+02  0.95594988896E+01  0.35106526263E+01  0.19501828268E+02  0.00000000000E+00 0.  1.
</event>
<event>
 7    1  0.2809593E-013  0.7246154E+02  0.7816164E-02  0.1226708E+00
        -11   -1    0    0    0    0  0.00000000000E+00  0.00000000000E+00  0.45593999997E+02  0.45594000000E+02  0.51100000000E-03 0. -1.
         11   -1    0    0    0    0 -0.00000000000E+00 -0.00000000000E+00 -0.45593999997E+02  0.45594000000E+02  0.51100000000E-03 0.  1.
    9900012    2    1    2    0    0  0.33710324672E+01  0.10576040124E+02  0.15081898803E+02  0.72461543952E+02  0.69999965685E+02 0.  0.
        -12    1    1    2    0    0 -0.33710324672E+01 -0.10576040124E+02 -0.15081898803E+02  0.18726456048E+02  0.00000000000E+00 0.  1.
         11    1    3    3    0    0 -0.20551299733E+01  0.12505197889E+02  0.25371218196E+02  0.28360222962E+02  0.51100000000E-03 0. -1.
        -11    1    3    3    0    0 -0.17253756022E+02 -0.75948400795E+01 -0.78943046248E+00  0.18867879940E+02  0.51100000000E-03 0.  1.
         12    1    3    3    0    0  0.22679918463E+02  0.56656823149E+01 -0.94998889309E+01  0.25233441051E+02  0.00000000000E+00 0. -1.
</event>
<event>
 7    1  0.2809593E-013  0.7246138E+02  0.7816164E-02  0.1226709E+00
        -11   -1    0    0    0    0  0.00000000000E+00  0.00000000000E+00  0.45593999997E+02  0.45594000000E+02  0.51100000000E-03 0. -1.
         11   -1    0    0    0    0 -0.00000000000E+00 -0.00000000000E+00 -0.45593999997E+02  0.45594000000E+02  0.51100000000E-03 0.  1.
    9900012    2    1    2    0    0 -0.15388737895E+02 -0.79530001686E+01 -0.71149788305E+01  0.72461377522E+02  0.69999748878E+02 0.  0.
        -12    1    1    2    0    0  0.15388737895E+02  0.79530001686E+01  0.71149788305E+01  0.18726622478E+02  0.00000000000E+00 0.  1.
         11    1    3    3    0    0 -0.15811273757E+02 -0.13858234427E+02  0.12001427083E+02  0.24209115877E+02  0.51100000000E-03 0. -1.
        -11    1    3    3    0    0 -0.37498786882E+01  0.12517467129E+02  0.11035253352E+02  0.17103373653E+02  0.51100000000E-03 0.  1.
        -12    1    3    3    0    0  0.41724145503E+01 -0.66122328700E+01 -0.30151659265E+02  0.31148887992E+02  0.00000000000E+00 0.  1.
</event>
<event>
 7    1  0.2809593E-013  0.7246154E+02  0.7816164E-02  0.1226708E+00
        -11   -1    0    0    0    0  0.00000000000E+00  0.00000000000E+00  0.45593999997E+02  0.45594000000E+02  0.51100000000E-03 0. -1.
         11   -1    0    0    0    0 -0.00000000000E+00 -0.00000000000E+00 -0.45593999997E+02  0.45594000000E+02  0.51100000000E-03 0.  1.
    9900012    2    1    2    0    0  0.77902679815E+01  0.15637331445E+02 -0.67428448946E+01  0.72461538316E+02  0.69999958342E+02 0.  0.
        -12    1    1    2    0    0 -0.77902679815E+01 -0.15637331445E+02  0.67428448946E+01  0.18726461684E+02  0.00000000000E+00 0.  1.
         11    1    3    3    0    0  0.19965569248E+02  0.18386543081E+02  0.11288425880E+02  0.29395875237E+02  0.51100000000E-03 0. -1.
        -11    1    3    3    0    0 -0.76377908759E-01  0.58680232644E+01  0.98550190051E+01  0.11470001328E+02  0.51100000000E-03 0.  1.
        -12    1    3    3    0    0 -0.12098923358E+02 -0.86172349002E+01 -0.27886289780E+02  0.31595661750E+02  0.00000000000E+00 0.  1.
</event>
<event>
 7    1  0.2809593E-013  0.7246157E+02  0.7816164E-02  0.1226708E+00
        -11   -1    0    0    0    0  0.00000000000E+00  0.00000000000E+00  0.45593999997E+02  0.45594000000E+02  0.51100000000E-03 0.  1.
         11   -1    0    0    0    0 -0.00000000000E+00 -0.00000000000E+00 -0.45593999997E+02  0.45594000000E+02  0.51100000000E-03 0. -1.
    9900012    2    1    2    0    0  0.18474941164E+02  0.30199100314E+01  0.48568153934E+00  0.72461569636E+02  0.69999999142E+02 0.  0.
        -12    1    1    2    0    0 -0.18474941164E+02 -0.30199100314E+01 -0.48568153934E+00  0.18726430364E+02  0.00000000000E+00 0.  1.
         11    1    3    3    0    0  0.87842505903E+01 -0.77719951715E+01  0.84241910587E+01  0.14440705060E+02  0.51100000000E-03 0. -1.
        -11    1    3    3    0    0  0.11659375761E+02  0.98962925846E+01  0.22664516398E+02  0.27341506065E+02  0.51100000000E-03 0.  1.
         12    1    3    3    0    0 -0.19686851868E+01  0.89561261829E+00 -0.30603025918E+02  0.30679358511E+02  0.00000000000E+00 0. -1.
</event>
<event>
 7    1  0.2809593E-013  0.7246157E+02  0.7816164E-02  0.1226708E+00
        -11   -1    0    0    0    0  0.00000000000E+00  0.00000000000E+00  0.45593999997E+02  0.45594000000E+02  0.51100000000E-03 0.  1.
         11   -1    0    0    0    0 -0.00000000000E+00 -0.00000000000E+00 -0.45593999997E+02  0.45594000000E+02  0.51100000000E-03 0. -1.
    9900012    2    1    2    0    0  0.66642030572E+01 -0.22995181887E+01 -0.17348765986E+02  0.72461573018E+02  0.70000003548E+02 0.  0.
        -12    1    1    2    0    0 -0.66642030572E+01  0.22995181887E+01  0.17348765986E+02  0.18726426982E+02  0.00000000000E+00 0.  1.
         11    1    3    3    0    0  0.11600291800E+02 -0.11824043992E+01  0.10655342944E+02  0.15795606462E+02  0.51100000000E-03 0. -1.
        -11    1    3    3    0    0 -0.48969468321E+01  0.13405095529E+02  0.90285815972E+01  0.16887627434E+02  0.51100000000E-03 0.  1.
         12    1    3    3    0    0 -0.39141910534E-01 -0.14522209319E+02 -0.37032690527E+02  0.39778339121E+02  0.00000000000E+00 0. -1.
</event>
<event>
 7    1  0.2809593E-013  0.7246153E+02  0.7816164E-02  0.1226708E+00
        -11   -1    0    0    0    0  0.00000000000E+00  0.00000000000E+00  0.45593999997E+02  0.45594000000E+02  0.51100000000E-03 0.  1.
         11   -1    0    0    0    0 -0.00000000000E+00 -0.00000000000E+00 -0.45593999997E+02  0.45594000000E+02  0.51100000000E-03 0. -1.
    9900012    2    1    2    0    0 -0.10608743964E+02  0.40137917161E+01 -0.14900489748E+02  0.72461532977E+02  0.69999951388E+02 0.  0.
        -12    1    1    2    0    0  0.10608743964E+02 -0.40137917161E+01  0.14900489748E+02  0.18726467023E+02  0.00000000000E+00 0.  1.
         11    1    3    3    0    0 -0.50624332166E+01  0.71395909755E+01 -0.10574740325E+02  0.13726875922E+02  0.51100000000E-03 0. -1.
        -11    1    3    3    0    0 -0.16005637176E+02  0.22324840531E+02 -0.12283639000E+02  0.30090973954E+02  0.51100000000E-03 0.  1.
         12    1    3    3    0    0  0.10459326429E+02 -0.25450639791E+02  0.79578895779E+01  0.28643683102E+02  0.00000000000E+00 0. -1.
</event>
<event>
 7    1  0.2809593E-013  0.7246161E+02  0.7816164E-02  0.1226708E+00
        -11   -1    0    0    0    0  0.00000000000E+00  0.00000000000E+00  0.45593999997E+02  0.45594000000E+02  0.51100000000E-03 0. -1.
         11   -1    0    0    0    0 -0.00000000000E+00 -0.00000000000E+00 -0.45593999997E+02  0.45594000000E+02  0.51100000000E-03 0.  1.
    9900012    2    1    2    0    0  0.15634078754E+02 -0.21407385498E+01  0.10083186459E+02  0.72461606081E+02  0.70000046619E+02 0.  0.
        -12    1    1    2    0    0 -0.15634078754E+02  0.21407385498E+01 -0.10083186459E+02  0.18726393919E+02  0.00000000000E+00 0.  1.
         11    1    3    3    0    0  0.14699808961E+01 -0.25847870403E+02  0.15048248899E+01  0.25933332729E+02  0.51100000000E-03 0. -1.
        -11    1    3    3    0    0  0.44495517068E+01 -0.97742390542E+01  0.35167475599E+01  0.11300520923E+02  0.51100000000E-03 0.  1.
        -12    1    3    3    0    0  0.97145461515E+01  0.33481370908E+02  0.50616140097E+01  0.35227752429E+02  0.00000000000E+00 0.  1.
</event>
<event>
 7    1  0.2809593E-013  0.7246232E+02  0.7816164E-02  0.1226706E+00
        -11   -1    0    0    0    0  0.00000000000E+00  0.00000000000E+00  0.45593999997E+02  0.45594000000E+02  0.51100000000E-03 0.  1.
         11   -1    0    0    0    0 -0.00000000000E+00 -0.00000000000E+00 -0.45593999997E+02  0.45594000000E+02  0.51100000000E-03 0. -1.
    9900012    2    1    2    0    0  0.16531871561E+02 -0.34668838530E+01 -0.80826472111E+01  0.72462315850E+02  0.70000971218E+02 0.  0.
        -12    1    1    2    0    0 -0.16531871561E+02  0.34668838530E+01  0.80826472111E+01  0.18725684150E+02  0.00000000000E+00 0.  1.
         11    1    3    3    0    0 -0.39453620305E+01 -0.82945743438E+01 -0.33969441830E+02  0.35189328263E+02  0.51100000000E-03 0. -1.
        -11    1    3    3    0    0  0.29402790698E+01 -0.56568424166E+01  0.65841525766E+01  0.91649425829E+01  0.51100000000E-03 0.  1.
        -12    1    3    3    0    0  0.17536954521E+02  0.10484532907E+02  0.19302642042E+02  0.28108045004E+02  0.00000000000E+00 0.  1.
</event>
<event>
 7    1  0.2809593E-013  0.7246155E+02  0.7816164E-02  0.1226708E+00
        -11   -1    0    0    0    0  0.00000000000E+00  0.00000000000E+00  0.45593999997E+02  0.45594000000E+02  0.51100000000E-03 0.  1.
         11   -1    0    0    0    0 -0.00000000000E+00 -0.00000000000E+00 -0.45593999997E+02  0.45594000000E+02  0.51100000000E-03 0. -1.
    9900012    2    1    2    0    0 -0.38312767365E+01 -0.13414482907E+02 -0.12492120551E+02  0.72461545211E+02  0.69999967324E+02 0.  0.
        -12    1    1    2    0    0  0.38312767365E+01  0.13414482907E+02  0.12492120551E+02  0.18726454789E+02  0.00000000000E+00 0.  1.
         11    1    3    3    0    0  0.13034899372E+02  0.57918935587E+01 -0.17212899253E+02  0.22354832444E+02  0.51100000000E-03 0. -1.
        -11    1    3    3    0    0  0.73559552024E+01  0.63068265750E+01 -0.81346638095E+01  0.12651438414E+02  0.51100000000E-03 0.  1.
         12    1    3    3    0    0 -0.24222131311E+02 -0.25513203041E+02  0.12855442512E+02  0.37455274353E+02  0.00000000000E+00 0. -1.
</event>
<event>
 7    1  0.2809593E-013  0.7246150E+02  0.7816164E-02  0.1226708E+00
        -11   -1    0    0    0    0  0.00000000000E+00  0.00000000000E+00  0.45593999997E+02  0.45594000000E+02  0.51100000000E-03 0. -1.
         11   -1    0    0    0    0 -0.00000000000E+00 -0.00000000000E+00 -0.45593999997E+02  0.45594000000E+02  0.51100000000E-03 0.  1.
    9900012    2    1    2    0    0 -0.17555274490E+02  0.15969433583E+01  0.63201056046E+01  0.72461504723E+02  0.69999914582E+02 0.  0.
        -12    1    1    2    0    0  0.17555274490E+02 -0.15969433583E+01 -0.63201056046E+01  0.18726495277E+02  0.00000000000E+00 0.  1.
         11    1    3    3    0    0 -0.24495830580E+02  0.28045473482E+02 -0.53912621451E+01  0.37625257559E+02  0.51100000000E-03 0. -1.
        -11    1    3    3    0    0 -0.20143389277E+01  0.16250261388E+01 -0.95960058300E+00  0.27602725966E+01  0.51100000000E-03 0.  1.
        -12    1    3    3    0    0  0.89548950177E+01 -0.28073556262E+02  0.12670968333E+02  0.32075974568E+02  0.00000000000E+00 0.  1.
</event>
<event>
 7    1  0.2809593E-013  0.7246169E+02  0.7816164E-02  0.1226708E+00
        -11   -1    0    0    0    0  0.00000000000E+00  0.00000000000E+00  0.45593999997E+02  0.45594000000E+02  0.51100000000E-03 0. -1.
         11   -1    0    0    0    0 -0.00000000000E+00 -0.00000000000E+00 -0.45593999997E+02  0.45594000000E+02  0.51100000000E-03 0.  1.
    9900012    2    1    2    0    0  0.12443703809E+02  0.13798715260E+02 -0.23290001244E+01  0.72461693667E+02  0.70000160715E+02 0.  0.
        -12    1    1    2    0    0 -0.12443703809E+02 -0.13798715260E+02  0.23290001244E+01  0.18726306333E+02  0.00000000000E+00 0.  1.
         11    1    3    3    0    0  0.20709234346E+02 -0.12055985543E+01  0.24614107346E+01  0.20889815656E+02  0.51100000000E-03 0. -1.
        -11    1    3    3    0    0  0.26346882454E+01  0.26190144693E+02 -0.17353326025E+02  0.31527816061E+02  0.51100000000E-03 0.  1.
         12    1    3    3    0    0 -0.10900218782E+02 -0.11185830879E+02  0.12562915166E+02  0.20044061949E+02  0.00000000000E+00 0. -1.
</event>
<event>
 7    1  0.2809593E-013  0.7246152E+02  0.7816164E-02  0.1226708E+00
        -11   -1    0    0    0    0  0.00000000000E+00  0.00000000000E+00  0.45593999997E+02  0.45594000000E+02  0.51100000000E-03 0.  1.
         11   -1    0    0    0    0 -0.00000000000E+00 -0.00000000000E+00 -0.45593999997E+02  0.45594000000E+02  0.51100000000E-03 0. -1.
    9900012    2    1    2    0    0  0.18554489352E+01  0.18101403359E+02  0.44246745753E+01  0.72461515027E+02  0.69999928005E+02 0.  0.
        -12    1    1    2    0    0 -0.18554489352E+01 -0.18101403359E+02 -0.44246745753E+01  0.18726484973E+02  0.00000000000E+00 0.  1.
         11    1    3    3    0    0  0.30359156374E+02  0.86177837296E+01 -0.16209896604E+01  0.31600192719E+02  0.51100000000E-03 0. -1.
        -11    1    3    3    0    0 -0.13464872019E+02  0.44635561367E+01 -0.10724422716E+02  0.17783119938E+02  0.51100000000E-03 0.  1.
        -12    1    3    3    0    0 -0.15038835419E+02  0.50200634931E+01  0.16770086952E+02  0.23078202370E+02  0.00000000000E+00 0.  1.
</event>
<event>
 7    1  0.2809593E-013  0.7246157E+02  0.7816164E-02  0.1226708E+00
        -11   -1    0    0    0    0  0.00000000000E+00  0.00000000000E+00  0.45593999997E+02  0.45594000000E+02  0.51100000000E-03 0.  1.
         11   -1    0    0    0    0 -0.00000000000E+00 -0.00000000000E+00 -0.45593999997E+02  0.45594000000E+02  0.51100000000E-03 0. -1.
    9900012    2    1    2    0    0  0.16487685798E+02 -0.70655959330E+01  0.53770748552E+01  0.72461565132E+02  0.69999993275E+02 0.  0.
        -12    1    1    2    0    0 -0.16487685798E+02  0.70655959330E+01 -0.53770748552E+01  0.18726434868E+02  0.00000000000E+00 0.  1.
         11    1    3    3    0    0 -0.93028477622E+01  0.18105932245E+02 -0.47670062099E+01  0.20906747892E+02  0.51100000000E-03 0. -1.
        -11    1    3    3    0    0  0.15554654607E+01  0.69360082800E+01 -0.48705280090E+01  0.86168281292E+01  0.51100000000E-03 0.  1.
        -12    1    3    3    0    0  0.24235068100E+02 -0.32107536458E+02  0.15014609074E+02  0.42937989111E+02  0.00000000000E+00 0.  1.
</event>
<event>
 7    1  0.2809593E-013  0.7246160E+02  0.7816164E-02  0.1226708E+00
        -11   -1    0    0    0    0  0.00000000000E+00  0.00000000000E+00  0.45593999997E+02  0.45594000000E+02  0.51100000000E-03 0.  1.
         11   -1    0    0    0    0 -0.00000000000E+00 -0.00000000000E+00 -0.45593999997E+02  0.45594000000E+02  0.51100000000E-03 0. -1.
    9900012    2    1    2    0    0  0.92496063897E+01 -0.14816724869E+02 -0.67518538447E+01  0.72461599263E+02  0.70000037737E+02 0.  0.
        -12    1    1    2    0    0 -0.92496063897E+01  0.14816724869E+02  0.67518538447E+01  0.18726400737E+02  0.00000000000E+00 0.  1.
         11    1    3    3    0    0  0.19290604740E+02 -0.28783962785E+02 -0.81256934481E+01  0.35590319458E+02  0.51100000000E-03 0. -1.
        -11    1    3    3    0    0  0.69549931629E+01 -0.68883899510E+01  0.18549096877E+01  0.99630585778E+01  0.51100000000E-03 0.  1.
        -12    1    3    3    0    0 -0.16995991513E+02  0.20855627866E+02 -0.48107008425E+00  0.26908221228E+02  0.00000000000E+00 0.  1.
</event>
<event>
 7    1  0.2809593E-013  0.7246155E+02  0.7816164E-02  0.1226708E+00
        -11   -1    0    0    0    0  0.00000000000E+00  0.00000000000E+00  0.45593999997E+02  0.45594000000E+02  0.51100000000E-03 0. -1.
         11   -1    0    0    0    0 -0.00000000000E+00 -0.00000000000E+00 -0.45593999997E+02  0.45594000000E+02  0.51100000000E-03 0.  1.
    9900012    2    1    2    0    0 -0.14409336679E+02 -0.10468499499E+02  0.57845724194E+01  0.72461554973E+02  0.69999980040E+02 0.  0.
        -12    1    1    2    0    0  0.14409336679E+02  0.10468499499E+02 -0.57845724194E+01  0.18726445027E+02  0.00000000000E+00 0.  1.
         11    1    3    3    0    0 -0.99384554672E+01 -0.11482408883E+01  0.19754444240E+02  0.22143383249E+02  0.51100000000E-03 0. -1.
        -11    1    3    3    0    0 -0.38179925040E+01  0.18657598758E+02 -0.10219313435E-01  0.19044242250E+02  0.51100000000E-03 0.  1.
         12    1    3    3    0    0 -0.65288870773E+00 -0.27977857369E+02 -0.13959652507E+02  0.31273929474E+02  0.00000000000E+00 0. -1.
</event>
<event>
 7    1  0.2809593E-013  0.7246158E+02  0.7816164E-02  0.1226708E+00
        -11   -1    0    0    0    0  0.00000000000E+00  0.00000000000E+00  0.45593999997E+02  0.45594000000E+02  0.51100000000E-03 0.  1.
         11   -1    0    0    0    0 -0.00000000000E+00 -0.00000000000E+00 -0.45593999997E+02  0.45594000000E+02  0.51100000000E-03 0. -1.
    9900012    2    1    2    0    0  0.26374793670E+01 -0.15387748147E+02 -0.10341168811E+02  0.72461578483E+02  0.70000010668E+02 0.  0.
        -12    1    1    2    0    0 -0.26374793670E+01  0.15387748147E+02  0.10341168811E+02  0.18726421517E+02  0.00000000000E+00 0.  1.
         11    1    3    3    0    0  0.13398594463E+02  0.16619049528E+01  0.12946805367E+02  0.18705721882E+02  0.51100000000E-03 0. -1.
        -11    1    3    3    0    0 -0.33476524307E+01 -0.14114522339E+02  0.11219882150E+02  0.18338818756E+02  0.51100000000E-03 0.  1.
         12    1    3    3    0    0 -0.74134626658E+01 -0.29351307609E+01 -0.34507856329E+02  0.35417037844E+02  0.00000000000E+00 0. -1.
</event>
<event>
 7    1  0.2809593E-013  0.7246159E+02  0.7816164E-02  0.1226708E+00
        -11   -1    0    0    0    0  0.00000000000E+00  0.00000000000E+00  0.45593999997E+02  0.45594000000E+02  0.51100000000E-03 0. -1.
         11   -1    0    0    0    0 -0.00000000000E+00 -0.00000000000E+00 -0.45593999997E+02  0.45594000000E+02  0.51100000000E-03 0.  1.
    9900012    2    1    2    0    0  0.18477842733E+02  0.28685011678E+01 -0.10096172889E+01  0.72461593562E+02  0.70000030311E+02 0.  0.
        -12    1    1    2    0    0 -0.18477842733E+02 -0.28685011678E+01  0.10096172889E+01  0.18726406438E+02  0.00000000000E+00 0.  1.
         11    1    3    3    0    0 -0.26663020125E+01 -0.72111485570E+01  0.11875385507E+02  0.14146894046E+02  0.51100000000E-03 0. -1.
        -11    1    3    3    0    0 -0.16186738562E+02  0.10691053667E+01 -0.11503781058E+02  0.19886942210E+02  0.51100000000E-03 0.  1.
         12    1    3    3    0    0  0.37330883307E+02  0.90105443581E+01 -0.13812217377E+01  0.38427757307E+02  0.00000000000E+00 0. -1.
</event>
<event>
 7    1  0.2809593E-013  0.7246158E+02  0.7816164E-02  0.1226708E+00
        -11   -1    0    0    0    0  0.00000000000E+00  0.00000000000E+00  0.45593999997E+02  0.45594000000E+02  0.51100000000E-03 0.  1.
         11   -1    0    0    0    0 -0.00000000000E+00 -0.00000000000E+00 -0.45593999997E+02  0.45594000000E+02  0.51100000000E-03 0. -1.
    9900012    2    1    2    0    0  0.17035483259E+01  0.17606409780E+02 -0.61474349170E+01  0.72461582876E+02  0.70000016390E+02 0.  0.
        -12    1    1    2    0    0 -0.17035483259E+01 -0.17606409780E+02  0.61474349170E+01  0.18726417124E+02  0.00000000000E+00 0.  1.
         11    1    3    3    0    0  0.10411967782E+02  0.48990558523E+01 -0.12602252828E+02  0.17065362520E+02  0.51100000000E-03 0. -1.
        -11    1    3    3    0    0  0.11025700359E+02 -0.43717616337E+01  0.22018163149E+02  0.25009555711E+02  0.51100000000E-03 0.  1.
         12    1    3    3    0    0 -0.19734119815E+02  0.17079115561E+02 -0.15563345237E+02  0.30386664644E+02  0.00000000000E+00 0. -1.
</event>
<event>
 7    1  0.2809593E-013  0.7246158E+02  0.7816164E-02  0.1226708E+00
        -11   -1    0    0    0    0  0.00000000000E+00  0.00000000000E+00  0.45593999997E+02  0.45594000000E+02  0.51100000000E-03 0. -1.
         11   -1    0    0    0    0 -0.00000000000E+00 -0.00000000000E+00 -0.45593999997E+02  0.45594000000E+02  0.51100000000E-03 0.  1.
    9900012    2    1    2    0    0  0.11135157275E+01 -0.15860254398E+01  0.18625876025E+02  0.72461584121E+02  0.70000018012E+02 0.  0.
        -12    1    1    2    0    0 -0.11135157275E+01  0.15860254398E+01 -0.18625876025E+02  0.18726415879E+02  0.00000000000E+00 0.  1.
         11    1    3    3    0    0 -0.20441579950E+02 -0.25710737304E+01 -0.57783314575E+01  0.21397610280E+02  0.51100000000E-03 0. -1.
        -11    1    3    3    0    0 -0.11232692107E+02  0.18954313620E+01  0.26208970711E+01  0.11689103205E+02  0.51100000000E-03 0.  1.
         12    1    3    3    0    0  0.32787787785E+02 -0.91038307134E+00  0.21783310412E+02  0.39374870636E+02  0.00000000000E+00 0. -1.
</event>
<event>
 7    1  0.2809593E-013  0.7246154E+02  0.7816164E-02  0.1226708E+00
        -11   -1    0    0    0    0  0.00000000000E+00  0.00000000000E+00  0.45593999997E+02  0.45594000000E+02  0.51100000000E-03 0.  1.
         11   -1    0    0    0    0 -0.00000000000E+00 -0.00000000000E+00 -0.45593999997E+02  0.45594000000E+02  0.51100000000E-03 0. -1.
    9900012    2    1    2    0    0  0.11133955622E+02  0.53795818499E+01 -0.14063262909E+02  0.72461541918E+02  0.69999963034E+02 0.  0.
        -12    1    1    2    0    0 -0.11133955622E+02 -0.53795818499E+01  0.14063262909E+02  0.18726458082E+02  0.00000000000E+00 0.  1.
         11    1    3    3    0    0  0.69840806279E+01 -0.16577529454E+02  0.16435382879E+02  0.24366240491E+02  0.51100000000E-03 0. -1.
        -11    1    3    3    0    0  0.12562593581E+02  0.11854129396E+02 -0.28851240746E+01  0.17511798377E+02  0.51100000000E-03 0.  1.
         12    1    3    3    0    0 -0.84127185865E+01  0.10102981908E+02 -0.27613521713E+02  0.30583503050E+02  0.00000000000E+00 0. -1.
</event>
<event>
 7    1  0.2809593E-013  0.7246152E+02  0.7816164E-02  0.1226708E+00
        -11   -1    0    0    0    0  0.00000000000E+00  0.00000000000E+00  0.45593999997E+02  0.45594000000E+02  0.51100000000E-03 0. -1.
         11   -1    0    0    0    0 -0.00000000000E+00 -0.00000000000E+00 -0.45593999997E+02  0.45594000000E+02  0.51100000000E-03 0.  1.
    9900012    2    1    2    0    0 -0.66475853474E+00 -0.17384802878E+02  0.69287736502E+01  0.72461516632E+02  0.69999930095E+02 0.  0.
        -12    1    1    2    0    0  0.66475853474E+00  0.17384802878E+02 -0.69287736502E+01  0.18726483368E+02  0.00000000000E+00 0.  1.
         11    1    3    3    0    0  0.67134864981E+01 -0.17649123274E+01  0.30237534864E+02  0.31024092757E+02  0.51100000000E-03 0. -1.
        -11    1    3    3    0    0 -0.10932592854E+02  0.58280776108E+01 -0.67460974832E+01  0.14106661783E+02  0.51100000000E-03 0.  1.
        -12    1    3    3    0    0  0.35543478213E+01 -0.21447968161E+02 -0.16562663731E+02  0.27330762092E+02  0.00000000000E+00 0.  1.
</event>
<event>
 7    1  0.2809593E-013  0.7246156E+02  0.7816164E-02  0.1226708E+00
        -11   -1    0    0    0    0  0.00000000000E+00  0.00000000000E+00  0.45593999997E+02  0.45594000000E+02  0.51100000000E-03 0.  1.
         11   -1    0    0    0    0 -0.00000000000E+00 -0.00000000000E+00 -0.45593999997E+02  0.45594000000E+02  0.51100000000E-03 0. -1.
    9900012    2    1    2    0    0 -0.20391234812E+01 -0.98739453798E+01 -0.15780583950E+02  0.72461557419E+02  0.69999983228E+02 0.  0.
        -12    1    1    2    0    0  0.20391234812E+01  0.98739453798E+01  0.15780583950E+02  0.18726442581E+02  0.00000000000E+00 0.  1.
         11    1    3    3    0    0 -0.65431925764E+01  0.63173041958E+01 -0.16339652200E+02  0.18700426083E+02  0.51100000000E-03 0. -1.
        -11    1    3    3    0    0 -0.67410209903E+01  0.59074161837E+01  0.20219578569E+02  0.22117194391E+02  0.51100000000E-03 0.  1.
         12    1    3    3    0    0  0.11245090086E+02 -0.22098665759E+02 -0.19660510319E+02  0.31643936945E+02  0.00000000000E+00 0. -1.
</event>
<event>
 7    1  0.2809593E-013  0.7246154E+02  0.7816164E-02  0.1226708E+00
        -11   -1    0    0    0    0  0.00000000000E+00  0.00000000000E+00  0.45593999997E+02  0.45594000000E+02  0.51100000000E-03 0. -1.
         11   -1    0    0    0    0 -0.00000000000E+00 -0.00000000000E+00 -0.45593999997E+02  0.45594000000E+02  0.51100000000E-03 0.  1.
    9900012    2    1    2    0    0 -0.68235195003E+01 -0.12791200742E+02  0.11853482942E+02  0.72461540307E+02  0.69999960936E+02 0.  0.
        -12    1    1    2    0    0  0.68235195003E+01  0.12791200742E+02 -0.11853482942E+02  0.18726459693E+02  0.00000000000E+00 0.  1.
         11    1    3    3    0    0  0.13494528867E+01 -0.60809424403E+01  0.32211220144E+02  0.32807950065E+02  0.51100000000E-03 0. -1.
        -11    1    3    3    0    0  0.48333101039E+01  0.40700569893E+01  0.57590825823E+01  0.85494609718E+01  0.51100000000E-03 0.  1.
        -12    1    3    3    0    0 -0.13006282491E+02 -0.10780315291E+02 -0.26116819784E+02  0.31104129270E+02  0.00000000000E+00 0.  1.
</event>
<event>
 7    1  0.2809593E-013  0.7246155E+02  0.7816164E-02  0.1226708E+00
        -11   -1    0    0    0    0  0.00000000000E+00  0.00000000000E+00  0.45593999997E+02  0.45594000000E+02  0.51100000000E-03 0.  1.
         11   -1    0    0    0    0 -0.00000000000E+00 -0.00000000000E+00 -0.45593999997E+02  0.45594000000E+02  0.51100000000E-03 0. -1.
    9900012    2    1    2    0    0 -0.13625477061E+01  0.16605024385E+02 -0.85496461022E+01  0.72461552939E+02  0.69999977391E+02 0.  0.
        -12    1    1    2    0    0  0.13625477061E+01 -0.16605024385E+02  0.85496461022E+01  0.18726447061E+02  0.00000000000E+00 0.  1.
         11    1    3    3    0    0  0.16975854706E+02 -0.50828868608E+01  0.26110197149E+01  0.17911806331E+02  0.51100000000E-03 0. -1.
        -11    1    3    3    0    0 -0.28873148514E+02  0.81489784629E+01  0.56532927593E+01  0.30529072609E+02  0.51100000000E-03 0.  1.
         12    1    3    3    0    0  0.10534746102E+02  0.13538932783E+02 -0.16813958576E+02  0.24020673998E+02  0.00000000000E+00 0. -1.
</event>
<event>
 7    1  0.2809593E-013  0.7246156E+02  0.7816164E-02  0.1226708E+00
        -11   -1    0    0    0    0  0.00000000000E+00  0.00000000000E+00  0.45593999997E+02  0.45594000000E+02  0.51100000000E-03 0.  1.
         11   -1    0    0    0    0 -0.00000000000E+00 -0.00000000000E+00 -0.45593999997E+02  0.45594000000E+02  0.51100000000E-03 0. -1.
    9900012    2    1    2    0    0  0.17420753359E+02 -0.64711677885E+01 -0.23066859806E+01  0.72461562529E+02  0.69999989884E+02 0.  0.
        -12    1    1    2    0    0 -0.17420753359E+02  0.64711677885E+01  0.23066859806E+01  0.18726437471E+02  0.00000000000E+00 0.  1.
         11    1    3    3    0    0  0.15877271201E+02  0.75077598986E+01  0.46433081157E+01  0.18166301495E+02  0.51100000000E-03 0.  1.
        -11    1    3    3    0    0  0.12893259299E+02  0.14457700522E+02 -0.12670607033E+02  0.23147473352E+02  0.51100000000E-03 0. -1.
         12    1    3    3    0    0 -0.11349777141E+02 -0.28436628209E+02  0.57206129365E+01  0.31147787681E+02  0.00000000000E+00 0. -1.
</event>
<event>
 7    1  0.2809593E-013  0.7246153E+02  0.7816164E-02  0.1226708E+00
        -11   -1    0    0    0    0  0.00000000000E+00  0.00000000000E+00  0.45593999997E+02  0.45594000000E+02  0.51100000000E-03 0. -1.
         11   -1    0    0    0    0 -0.00000000000E+00 -0.00000000000E+00 -0.45593999997E+02  0.45594000000E+02  0.51100000000E-03 0.  1.
    9900012    2    1    2    0    0  0.52403756097E+00 -0.37274951892E+01  0.18344259075E+02  0.72461530050E+02  0.69999947575E+02 0.  0.
        -12    1    1    2    0    0 -0.52403756097E+00  0.37274951892E+01 -0.18344259075E+02  0.18726469950E+02  0.00000000000E+00 0.  1.
         11    1    3    3    0    0 -0.15475516437E+02 -0.21206185460E+02 -0.13206541340E+02  0.29387185050E+02  0.51100000000E-03 0.  1.
        -11    1    3    3    0    0  0.56233240758E+01  0.49717674752E+01 -0.87477771140E-01  0.75065237034E+01  0.51100000000E-03 0. -1.
        -12    1    3    3    0    0  0.10376229922E+02  0.12506922795E+02  0.31638278186E+02  0.35567821297E+02  0.00000000000E+00 0.  1.
</event>
<event>
 7    1  0.2809593E-013  0.7246159E+02  0.7816164E-02  0.1226708E+00
        -11   -1    0    0    0    0  0.00000000000E+00  0.00000000000E+00  0.45593999997E+02  0.45594000000E+02  0.51100000000E-03 0.  1.
         11   -1    0    0    0    0 -0.00000000000E+00 -0.00000000000E+00 -0.45593999997E+02  0.45594000000E+02  0.51100000000E-03 0. -1.
    9900012    2    1    2    0    0 -0.14846253808E+02  0.20961397754E+01 -0.11219328068E+02  0.72461591471E+02  0.70000027587E+02 0.  0.
        -12    1    1    2    0    0  0.14846253808E+02 -0.20961397754E+01  0.11219328068E+02  0.18726408529E+02  0.00000000000E+00 0.  1.
         11    1    3    3    0    0  0.14313565978E+02 -0.57936372016E+01  0.27856209904E+01  0.15690891867E+02  0.51100000000E-03 0. -1.
        -11    1    3    3    0    0 -0.19331023935E+02  0.24137313100E+02 -0.20035166465E+02  0.36847065902E+02  0.51100000000E-03 0.  1.
         12    1    3    3    0    0 -0.98287958501E+01 -0.16247536123E+02  0.60302174065E+01  0.19923633702E+02  0.00000000000E+00 0. -1.
</event>
<event>
 7    1  0.2809593E-013  0.7246158E+02  0.7816164E-02  0.1226708E+00
        -11   -1    0    0    0    0  0.00000000000E+00  0.00000000000E+00  0.45593999997E+02  0.45594000000E+02  0.51100000000E-03 0. -1.
         11   -1    0    0    0    0 -0.00000000000E+00 -0.00000000000E+00 -0.45593999997E+02  0.45594000000E+02  0.51100000000E-03 0.  1.
    9900012    2    1    2    0    0 -0.68548120871E+01 -0.14900276756E+02  0.90372665375E+01  0.72461577955E+02  0.70000009979E+02 0.  0.
        -12    1    1    2    0    0  0.68548120871E+01  0.14900276756E+02 -0.90372665375E+01  0.18726422045E+02  0.00000000000E+00 0.  1.
         11    1    3    3    0    0  0.48980889366E+01  0.45366853061E+01 -0.17826814596E+01  0.69101911873E+01  0.51100000000E-03 0. -1.
        -11    1    3    3    0    0 -0.18154849973E+02  0.17816049041E+02  0.11096097507E+02  0.27751280351E+02  0.51100000000E-03 0.  1.
         12    1    3    3    0    0  0.64019489492E+01 -0.37253011103E+02 -0.27614951022E+00  0.37800106417E+02  0.00000000000E+00 0. -1.
</event>
<event>
 7    1  0.2809593E-013  0.7246147E+02  0.7816164E-02  0.1226708E+00
        -11   -1    0    0    0    0  0.00000000000E+00  0.00000000000E+00  0.45593999997E+02  0.45594000000E+02  0.51100000000E-03 0. -1.
         11   -1    0    0    0    0 -0.00000000000E+00 -0.00000000000E+00 -0.45593999997E+02  0.45594000000E+02  0.51100000000E-03 0.  1.
    9900012    2    1    2    0    0 -0.22539573890E+01 -0.13559129699E+02  0.12718195084E+02  0.72461473139E+02  0.69999873437E+02 0.  0.
        -12    1    1    2    0    0  0.22539573890E+01  0.13559129699E+02 -0.12718195084E+02  0.18726526861E+02  0.00000000000E+00 0.  1.
         11    1    3    3    0    0  0.55713100731E+01  0.52473883844E+01 -0.70383137356E+01  0.10397713272E+02  0.51100000000E-03 0. -1.
        -11    1    3    3    0    0  0.76920877446E+01  0.11733188522E+02 -0.95587845906E+01  0.16976639534E+02  0.51100000000E-03 0.  1.
         12    1    3    3    0    0 -0.15517355207E+02 -0.30539706605E+02  0.29315293410E+02  0.45087120332E+02  0.00000000000E+00 0. -1.
</event>
<event>
 7    1  0.2809593E-013  0.7246153E+02  0.7816164E-02  0.1226708E+00
        -11   -1    0    0    0    0  0.00000000000E+00  0.00000000000E+00  0.45593999997E+02  0.45594000000E+02  0.51100000000E-03 0.  1.
         11   -1    0    0    0    0 -0.00000000000E+00 -0.00000000000E+00 -0.45593999997E+02  0.45594000000E+02  0.51100000000E-03 0. -1.
    9900012    2    1    2    0    0 -0.11899012257E+02  0.36661455374E+01 -0.13987618146E+02  0.72461532709E+02  0.69999951038E+02 0.  0.
        -12    1    1    2    0    0  0.11899012257E+02 -0.36661455374E+01  0.13987618146E+02  0.18726467291E+02  0.00000000000E+00 0.  1.
         11    1    3    3    0    0 -0.25806023536E+02  0.24473480747E+02 -0.55401388774E+01  0.35994378028E+02  0.51100000000E-03 0. -1.
        -11    1    3    3    0    0  0.95501612983E+01  0.39426901156E+01 -0.29052225554E+01  0.10732693256E+02  0.51100000000E-03 0.  1.
        -12    1    3    3    0    0  0.43568499806E+01 -0.24750025325E+02 -0.55422567137E+01  0.25734461425E+02  0.00000000000E+00 0.  1.
</event>
<event>
 7    1  0.2809593E-013  0.7246155E+02  0.7816164E-02  0.1226708E+00
        -11   -1    0    0    0    0  0.00000000000E+00  0.00000000000E+00  0.45593999997E+02  0.45594000000E+02  0.51100000000E-03 0.  1.
         11   -1    0    0    0    0 -0.00000000000E+00 -0.00000000000E+00 -0.45593999997E+02  0.45594000000E+02  0.51100000000E-03 0. -1.
    9900012    2    1    2    0    0  0.17919967042E+02 -0.48752990953E+01  0.24054124920E+01  0.72461554280E+02  0.69999979139E+02 0.  0.
        -12    1    1    2    0    0 -0.17919967042E+02  0.48752990953E+01 -0.24054124920E+01  0.18726445720E+02  0.00000000000E+00 0.  1.
         11    1    3    3    0    0  0.19188956359E+02 -0.64833017523E+00  0.21357860036E+02  0.28719236824E+02  0.51100000000E-03 0. -1.
        -11    1    3    3    0    0 -0.12956336000E+02 -0.10952542200E+01  0.72456252655E+01  0.14885070041E+02  0.51100000000E-03 0.  1.
         12    1    3    3    0    0  0.11687346683E+02 -0.31317147000E+01 -0.26198072810E+02  0.28857247415E+02  0.00000000000E+00 0. -1.
</event>
<event>
 7    1  0.2809593E-013  0.7246153E+02  0.7816164E-02  0.1226708E+00
        -11   -1    0    0    0    0  0.00000000000E+00  0.00000000000E+00  0.45593999997E+02  0.45594000000E+02  0.51100000000E-03 0. -1.
         11   -1    0    0    0    0 -0.00000000000E+00 -0.00000000000E+00 -0.45593999997E+02  0.45594000000E+02  0.51100000000E-03 0.  1.
    9900012    2    1    2    0    0 -0.15714024936E+02  0.85316253491E+01  0.55642952743E+01  0.72461532295E+02  0.69999950499E+02 0.  0.
        -12    1    1    2    0    0  0.15714024936E+02 -0.85316253491E+01 -0.55642952743E+01  0.18726467705E+02  0.00000000000E+00 0.  1.
         11    1    3    3    0    0 -0.90652723225E+01  0.33684156403E+02  0.12435447552E+00  0.34882904397E+02  0.51100000000E-03 0. -1.
        -11    1    3    3    0    0 -0.14666042508E+02 -0.14413606369E+02 -0.43045212296E+01  0.21008897036E+02  0.51100000000E-03 0.  1.
        -12    1    3    3    0    0  0.80172898940E+01 -0.10738924685E+02  0.97444620284E+01  0.16569730863E+02  0.00000000000E+00 0.  1.
</event>
<event>
 7    1  0.2809593E-013  0.7246154E+02  0.7816164E-02  0.1226708E+00
        -11   -1    0    0    0    0  0.00000000000E+00  0.00000000000E+00  0.45593999997E+02  0.45594000000E+02  0.51100000000E-03 0.  1.
         11   -1    0    0    0    0 -0.00000000000E+00 -0.00000000000E+00 -0.45593999997E+02  0.45594000000E+02  0.51100000000E-03 0. -1.
    9900012    2    1    2    0    0 -0.92769366589E+01 -0.13430821327E+02 -0.91777934416E+01  0.72461537233E+02  0.69999956932E+02 0.  0.
        -12    1    1    2    0    0  0.92769366589E+01  0.13430821327E+02  0.91777934416E+01  0.18726462767E+02  0.00000000000E+00 0.  1.
         11    1    3    3    0    0 -0.27820751627E+01 -0.11333445197E+02  0.18015720895E+00  0.11671305802E+02  0.51100000000E-03 0. -1.
        -11    1    3    3    0    0  0.90095215937E+01 -0.11527750543E+02  0.20897300478E+02  0.25509952557E+02  0.51100000000E-03 0.  1.
         12    1    3    3    0    0 -0.15504383090E+02  0.94303744131E+01 -0.30255251129E+02  0.35280278874E+02  0.00000000000E+00 0. -1.
</event>
<event>
 7    1  0.2809593E-013  0.7246167E+02  0.7816164E-02  0.1226708E+00
        -11   -1    0    0    0    0  0.00000000000E+00  0.00000000000E+00  0.45593999997E+02  0.45594000000E+02  0.51100000000E-03 0.  1.
         11   -1    0    0    0    0 -0.00000000000E+00 -0.00000000000E+00 -0.45593999997E+02  0.45594000000E+02  0.51100000000E-03 0. -1.
    9900012    2    1    2    0    0 -0.18089267379E+02  0.92095779441E+00 -0.47545284646E+01  0.72461673652E+02  0.70000134643E+02 0.  0.
        -12    1    1    2    0    0  0.18089267379E+02 -0.92095779441E+00  0.47545284646E+01  0.18726326348E+02  0.00000000000E+00 0.  1.
         11    1    3    3    0    0 -0.15616093897E+02 -0.39304452825E+00 -0.19966741455E+01  0.15748129429E+02  0.51100000000E-03 0. -1.
        -11    1    3    3    0    0 -0.15441286672E+02 -0.86440212620E+01 -0.24055606744E+02  0.29863433389E+02  0.51100000000E-03 0.  1.
         12    1    3    3    0    0  0.12968113191E+02  0.99580235847E+01  0.21297752425E+02  0.26850110834E+02  0.00000000000E+00 0. -1.
</event>
<event>
 7    1  0.2809593E-013  0.7246154E+02  0.7816164E-02  0.1226708E+00
        -11   -1    0    0    0    0  0.00000000000E+00  0.00000000000E+00  0.45593999997E+02  0.45594000000E+02  0.51100000000E-03 0. -1.
         11   -1    0    0    0    0 -0.00000000000E+00 -0.00000000000E+00 -0.45593999997E+02  0.45594000000E+02  0.51100000000E-03 0.  1.
    9900012    2    1    2    0    0  0.53809052387E+01 -0.16266632008E+02 -0.75579754868E+01  0.72461536064E+02  0.69999955409E+02 0.  0.
        -12    1    1    2    0    0 -0.53809052387E+01  0.16266632008E+02  0.75579754868E+01  0.18726463936E+02  0.00000000000E+00 0.  1.
         11    1    3    3    0    0 -0.21862726285E+01 -0.16599217624E+02  0.50764458813E+01  0.17495259838E+02  0.51100000000E-03 0. -1.
        -11    1    3    3    0    0  0.53682427553E+00 -0.24115765090E+02 -0.16514019078E+02  0.29233048636E+02  0.51100000000E-03 0.  1.
         12    1    3    3    0    0  0.70303535916E+01  0.24448350706E+02  0.38795977096E+01  0.25733227591E+02  0.00000000000E+00 0. -1.
</event>
<event>
 7    1  0.2809593E-013  0.7246158E+02  0.7816164E-02  0.1226708E+00
        -11   -1    0    0    0    0  0.00000000000E+00  0.00000000000E+00  0.45593999997E+02  0.45594000000E+02  0.51100000000E-03 0. -1.
         11   -1    0    0    0    0 -0.00000000000E+00 -0.00000000000E+00 -0.45593999997E+02  0.45594000000E+02  0.51100000000E-03 0.  1.
    9900012    2    1    2    0    0 -0.75506190232E+01 -0.10593611750E+02  0.13470054892E+02  0.72461579190E+02  0.70000011589E+02 0.  0.
        -12    1    1    2    0    0  0.75506190232E+01  0.10593611750E+02 -0.13470054892E+02  0.18726420810E+02  0.00000000000E+00 0.  1.
         11    1    3    3    0    0 -0.28903775678E+02 -0.61536532271E+01 -0.80804232152E+01  0.30636398876E+02  0.51100000000E-03 0. -1.
        -11    1    3    3    0    0 -0.44651329737E+01  0.58740075135E+01  0.14543061540E+01  0.75203978214E+01  0.51100000000E-03 0.  1.
         12    1    3    3    0    0  0.25818289628E+02 -0.10313966036E+02  0.20096171954E+02  0.34304782493E+02  0.00000000000E+00 0. -1.
</event>
<event>
 7    1  0.2809593E-013  0.7246157E+02  0.7816164E-02  0.1226708E+00
        -11   -1    0    0    0    0  0.00000000000E+00  0.00000000000E+00  0.45593999997E+02  0.45594000000E+02  0.51100000000E-03 0. -1.
         11   -1    0    0    0    0 -0.00000000000E+00 -0.00000000000E+00 -0.45593999997E+02  0.45594000000E+02  0.51100000000E-03 0.  1.
    9900012    2    1    2    0    0 -0.15210154398E+01 -0.15541275570E+02  0.10336079841E+02  0.72461567323E+02  0.69999996129E+02 0.  0.
        -12    1    1    2    0    0  0.15210154398E+01  0.15541275570E+02 -0.10336079841E+02  0.18726432677E+02  0.00000000000E+00 0.  1.
         11    1    3    3    0    0  0.63522279225E+01 -0.55676925456E+00  0.20392631530E+02  0.21366333625E+02  0.51100000000E-03 0. -1.
        -11    1    3    3    0    0 -0.10066179457E+00  0.14175623247E+02 -0.14859850996E+02  0.20537127334E+02  0.51100000000E-03 0.  1.
         12    1    3    3    0    0 -0.77725815678E+01 -0.29160129563E+02  0.48032993067E+01  0.30558106364E+02  0.00000000000E+00 0. -1.
</event>
<event>
 7    1  0.2809593E-013  0.7246155E+02  0.7816164E-02  0.1226708E+00
        -11   -1    0    0    0    0  0.00000000000E+00  0.00000000000E+00  0.45593999997E+02  0.45594000000E+02  0.51100000000E-03 0. -1.
         11   -1    0    0    0    0 -0.00000000000E+00 -0.00000000000E+00 -0.45593999997E+02  0.45594000000E+02  0.51100000000E-03 0.  1.
    9900012    2    1    2    0    0 -0.66287580163E+01 -0.87572926551E+01  0.15167382030E+02  0.72461545847E+02  0.69999968153E+02 0.  0.
        -12    1    1    2    0    0  0.66287580163E+01  0.87572926551E+01 -0.15167382030E+02  0.18726454153E+02  0.00000000000E+00 0.  1.
         11    1    3    3    0    0 -0.22489262633E+02  0.88680734710E+01  0.24091682147E+02  0.34129441979E+02  0.51100000000E-03 0. -1.
        -11    1    3    3    0    0  0.12956629141E+02  0.53173817083E+01 -0.17223176635E+01  0.14110817316E+02  0.51100000000E-03 0.  1.
        -12    1    3    3    0    0  0.29038754756E+01 -0.22942747834E+02 -0.72019824530E+01  0.24221286552E+02  0.00000000000E+00 0.  1.
</event>
<event>
 7    1  0.2809593E-013  0.7246149E+02  0.7816164E-02  0.1226708E+00
        -11   -1    0    0    0    0  0.00000000000E+00  0.00000000000E+00  0.45593999997E+02  0.45594000000E+02  0.51100000000E-03 0.  1.
         11   -1    0    0    0    0 -0.00000000000E+00 -0.00000000000E+00 -0.45593999997E+02  0.45594000000E+02  0.51100000000E-03 0. -1.
    9900012    2    1    2    0    0  0.14419836506E+02 -0.27807831376E+01 -0.11619716579E+02  0.72461487962E+02  0.69999892747E+02 0.  0.
        -12    1    1    2    0    0 -0.14419836506E+02  0.27807831376E+01  0.11619716579E+02  0.18726512038E+02  0.00000000000E+00 0.  1.
         11    1    3    3    0    0  0.22034188577E+00  0.35797786736E+01 -0.34915730258E+01  0.50054418740E+01  0.51100000000E-03 0. -1.
        -11    1    3    3    0    0 -0.24495406378E+02  0.70819975029E+01  0.88036057051E+00  0.25513813068E+02  0.51100000000E-03 0.  1.
         12    1    3    3    0    0  0.38694900999E+02 -0.13442559314E+02 -0.90085041236E+01  0.41942233021E+02  0.00000000000E+00 0. -1.
</event>
<event>
 7    1  0.2809593E-013  0.7246156E+02  0.7816164E-02  0.1226708E+00
        -11   -1    0    0    0    0  0.00000000000E+00  0.00000000000E+00  0.45593999997E+02  0.45594000000E+02  0.51100000000E-03 0.  1.
         11   -1    0    0    0    0 -0.00000000000E+00 -0.00000000000E+00 -0.45593999997E+02  0.45594000000E+02  0.51100000000E-03 0. -1.
    9900012    2    1    2    0    0  0.51173277401E+01 -0.39231440479E+01 -0.17581284267E+02  0.72461557228E+02  0.69999982979E+02 0.  0.
        -12    1    1    2    0    0 -0.51173277401E+01  0.39231440479E+01  0.17581284267E+02  0.18726442772E+02  0.00000000000E+00 0.  1.
         11    1    3    3    0    0  0.50408152505E+01  0.50250761697E+01 -0.26231853281E+02  0.27180348337E+02  0.51100000000E-03 0. -1.
        -11    1    3    3    0    0 -0.84563371131E+01 -0.81483956095E+00 -0.15911150337E+02  0.18037136862E+02  0.51100000000E-03 0.  1.
        -12    1    3    3    0    0  0.85328496028E+01 -0.81333806567E+01  0.24561719351E+02  0.27244072029E+02  0.00000000000E+00 0.  1.
</event>
<event>
 7    1  0.2809593E-013  0.7246159E+02  0.7816164E-02  0.1226708E+00
        -11   -1    0    0    0    0  0.00000000000E+00  0.00000000000E+00  0.45593999997E+02  0.45594000000E+02  0.51100000000E-03 0. -1.
         11   -1    0    0    0    0 -0.00000000000E+00 -0.00000000000E+00 -0.45593999997E+02  0.45594000000E+02  0.51100000000E-03 0.  1.
    9900012    2    1    2    0    0 -0.35427723207E+01  0.17955963565E+02  0.39636570704E+01  0.72461589755E+02  0.70000025352E+02 0.  0.
        -12    1    1    2    0    0  0.35427723207E+01 -0.17955963565E+02 -0.39636570704E+01  0.18726410245E+02  0.00000000000E+00 0.  1.
         11    1    3    3    0    0 -0.42456977245E+00  0.29590952310E+01 -0.10347159879E+01  0.31634066313E+01  0.51100000000E-03 0. -1.
        -11    1    3    3    0    0  0.58354621161E+01 -0.48195805439E+01 -0.28429588433E+02  0.29419763314E+02  0.51100000000E-03 0.  1.
         12    1    3    3    0    0 -0.89536646643E+01  0.19816448878E+02  0.33427961491E+02  0.39878419810E+02  0.00000000000E+00 0. -1.
</event>
<event>
 7    1  0.2809593E-013  0.7246159E+02  0.7816164E-02  0.1226708E+00
        -11   -1    0    0    0    0  0.00000000000E+00  0.00000000000E+00  0.45593999997E+02  0.45594000000E+02  0.51100000000E-03 0. -1.
         11   -1    0    0    0    0 -0.00000000000E+00 -0.00000000000E+00 -0.45593999997E+02  0.45594000000E+02  0.51100000000E-03 0.  1.
    9900012    2    1    2    0    0  0.16813755621E+02  0.19966386875E+01 -0.79993409740E+01  0.72461590837E+02  0.70000026760E+02 0.  0.
        -12    1    1    2    0    0 -0.16813755621E+02 -0.19966386875E+01  0.79993409740E+01  0.18726409163E+02  0.00000000000E+00 0.  1.
         11    1    3    3    0    0  0.10746268326E+02  0.32828559066E+02  0.85273949681E+01  0.35579671703E+02  0.51100000000E-03 0. -1.
        -11    1    3    3    0    0 -0.88079651085E+00 -0.14592625244E+01 -0.37241501564E+01  0.40956738465E+01  0.51100000000E-03 0.  1.
        -12    1    3    3    0    0  0.69482838059E+01 -0.29372657854E+02 -0.12802585786E+02  0.32786245287E+02  0.00000000000E+00 0.  1.
</event>
<event>
 7    1  0.2809593E-013  0.7246168E+02  0.7816164E-02  0.1226708E+00
        -11   -1    0    0    0    0  0.00000000000E+00  0.00000000000E+00  0.45593999997E+02  0.45594000000E+02  0.51100000000E-03 0.  1.
         11   -1    0    0    0    0 -0.00000000000E+00 -0.00000000000E+00 -0.45593999997E+02  0.45594000000E+02  0.51100000000E-03 0. -1.
    9900012    2    1    2    0    0 -0.17988464769E+02 -0.37732931797E+01  0.35850401986E+01  0.72461678434E+02  0.70000140872E+02 0.  0.
        -12    1    1    2    0    0  0.17988464769E+02  0.37732931797E+01 -0.35850401986E+01  0.18726321566E+02  0.00000000000E+00 0.  1.
         11    1    3    3    0    0 -0.22578712738E+01  0.41843226820E+01 -0.10052581038E+02  0.11120293377E+02  0.51100000000E-03 0. -1.
        -11    1    3    3    0    0  0.21265651778E+02  0.21486162844E+01  0.64110915143E+01  0.22314716940E+02  0.51100000000E-03 0.  1.
         12    1    3    3    0    0 -0.36996245273E+02 -0.10106232146E+02  0.72265297228E+01  0.39026668117E+02  0.00000000000E+00 0. -1.
</event>
<event>
 7    1  0.2809593E-013  0.7246157E+02  0.7816164E-02  0.1226708E+00
        -11   -1    0    0    0    0  0.00000000000E+00  0.00000000000E+00  0.45593999997E+02  0.45594000000E+02  0.51100000000E-03 0. -1.
         11   -1    0    0    0    0 -0.00000000000E+00 -0.00000000000E+00 -0.45593999997E+02  0.45594000000E+02  0.51100000000E-03 0.  1.
    9900012    2    1    2    0    0 -0.71977463535E+01 -0.10347636133E+02  0.13849123192E+02  0.72461565761E+02  0.69999994095E+02 0.  0.
        -12    1    1    2    0    0  0.71977463535E+01  0.10347636133E+02 -0.13849123192E+02  0.18726434239E+02  0.00000000000E+00 0.  1.
         11    1    3    3    0    0  0.63086850554E+01 -0.31040770814E+02  0.23885426445E+02  0.39671684569E+02  0.51100000000E-03 0. -1.
        -11    1    3    3    0    0 -0.73346044793E+00  0.23801555087E+01 -0.10161324734E+02  0.10462104238E+02  0.51100000000E-03 0.  1.
        -12    1    3    3    0    0 -0.12772970961E+02  0.18312979172E+02  0.12502148085E+00  0.22327776954E+02  0.00000000000E+00 0.  1.
</event>
<event>
 7    1  0.2809593E-013  0.7246176E+02  0.7816164E-02  0.1226708E+00
        -11   -1    0    0    0    0  0.00000000000E+00  0.00000000000E+00  0.45593999997E+02  0.45594000000E+02  0.51100000000E-03 0. -1.
         11   -1    0    0    0    0 -0.00000000000E+00 -0.00000000000E+00 -0.45593999997E+02  0.45594000000E+02  0.51100000000E-03 0.  1.
    9900012    2    1    2    0    0 -0.62211589436E+01  0.61495787748E+01  0.16557539084E+02  0.72461755363E+02  0.70000241085E+02 0.  0.
        -12    1    1    2    0    0  0.62211589436E+01 -0.61495787748E+01 -0.16557539084E+02  0.18726244637E+02  0.00000000000E+00 0.  1.
         11    1    3    3    0    0  0.27059373716E+01 -0.14951573196E+01 -0.35955256388E+01  0.47418769859E+01  0.51100000000E-03 0. -1.
        -11    1    3    3    0    0  0.32181386285E+01 -0.27312260118E+02  0.10830228226E+02  0.29556891120E+02  0.51100000000E-03 0.  1.
         12    1    3    3    0    0 -0.12145234944E+02  0.34956996212E+02  0.93228364969E+01  0.38162987257E+02  0.00000000000E+00 0. -1.
</event>
<event>
 7    1  0.2809593E-013  0.7246155E+02  0.7816164E-02  0.1226708E+00
        -11   -1    0    0    0    0  0.00000000000E+00  0.00000000000E+00  0.45593999997E+02  0.45594000000E+02  0.51100000000E-03 0. -1.
         11   -1    0    0    0    0 -0.00000000000E+00 -0.00000000000E+00 -0.45593999997E+02  0.45594000000E+02  0.51100000000E-03 0.  1.
    9900012    2    1    2    0    0  0.91196982248E+01  0.82090028446E+01  0.14146500375E+02  0.72461545550E+02  0.69999967766E+02 0.  0.
        -12    1    1    2    0    0 -0.91196982248E+01 -0.82090028446E+01 -0.14146500375E+02  0.18726454450E+02  0.00000000000E+00 0.  1.
         11    1    3    3    0    0 -0.13953872274E+02 -0.25786317996E+01  0.19592010068E+02  0.24191046942E+02  0.51100000000E-03 0. -1.
        -11    1    3    3    0    0  0.91194275056E+01 -0.31383805015E+01  0.16287126100E+02  0.18928387862E+02  0.51100000000E-03 0.  1.
        -12    1    3    3    0    0  0.13954142993E+02  0.13926015146E+02 -0.21732635793E+02  0.29342110746E+02  0.00000000000E+00 0.  1.
</event>
<event>
 7    1  0.2809593E-013  0.7246159E+02  0.7816164E-02  0.1226708E+00
        -11   -1    0    0    0    0  0.00000000000E+00  0.00000000000E+00  0.45593999997E+02  0.45594000000E+02  0.51100000000E-03 0.  1.
         11   -1    0    0    0    0 -0.00000000000E+00 -0.00000000000E+00 -0.45593999997E+02  0.45594000000E+02  0.51100000000E-03 0. -1.
    9900012    2    1    2    0    0 -0.46972139216E+01  0.88096810476E+01 -0.15843110858E+02  0.72461589226E+02  0.70000024663E+02 0.  0.
        -12    1    1    2    0    0  0.46972139216E+01 -0.88096810476E+01  0.15843110858E+02  0.18726410774E+02  0.00000000000E+00 0.  1.
         11    1    3    3    0    0  0.14668085642E+02 -0.12412006236E+02 -0.20636004051E+02  0.28196724964E+02  0.51100000000E-03 0. -1.
        -11    1    3    3    0    0  0.63071798287E+01 -0.17513213655E+01  0.71995535050E+01  0.97304272697E+01  0.51100000000E-03 0.  1.
        -12    1    3    3    0    0 -0.25672479393E+02  0.22973008649E+02 -0.24066603120E+01  0.34534436993E+02  0.00000000000E+00 0.  1.
</event>
<event>
 7    1  0.2809593E-013  0.7246123E+02  0.7816164E-02  0.1226709E+00
        -11   -1    0    0    0    0  0.00000000000E+00  0.00000000000E+00  0.45593999997E+02  0.45594000000E+02  0.51100000000E-03 0.  1.
         11   -1    0    0    0    0 -0.00000000000E+00 -0.00000000000E+00 -0.45593999997E+02  0.45594000000E+02  0.51100000000E-03 0. -1.
    9900012    2    1    2    0    0  0.18050426584E+01  0.18537264916E+02  0.19502679745E+01  0.72461229997E+02  0.69999556698E+02 0.  0.
        -12    1    1    2    0    0 -0.18050426584E+01 -0.18537264916E+02 -0.19502679745E+01  0.18726770003E+02  0.00000000000E+00 0.  1.
         11    1    3    3    0    0 -0.22170147974E+01 -0.19959463061E+02 -0.64518630511E+01  0.21093170871E+02  0.51100000000E-03 0. -1.
        -11    1    3    3    0    0 -0.13750728479E+02  0.22299780418E+02  0.10358284850E+01  0.26218994666E+02  0.51100000000E-03 0.  1.
        -12    1    3    3    0    0  0.17772785935E+02  0.16196947559E+02  0.73663025406E+01  0.25149064460E+02  0.00000000000E+00 0.  1.
</event>
<event>
 7    1  0.2809593E-013  0.7246160E+02  0.7816164E-02  0.1226708E+00
        -11   -1    0    0    0    0  0.00000000000E+00  0.00000000000E+00  0.45593999997E+02  0.45594000000E+02  0.51100000000E-03 0. -1.
         11   -1    0    0    0    0 -0.00000000000E+00 -0.00000000000E+00 -0.45593999997E+02  0.45594000000E+02  0.51100000000E-03 0.  1.
    9900012    2    1    2    0    0  0.14681904208E+02 -0.50802138202E+01 -0.10455201762E+02  0.72461598116E+02  0.70000036243E+02 0.  0.
        -12    1    1    2    0    0 -0.14681904208E+02  0.50802138202E+01  0.10455201762E+02  0.18726401884E+02  0.00000000000E+00 0.  1.
         11    1    3    3    0    0 -0.84735332902E+00  0.41162416978E+01 -0.26304138534E+02  0.26637739349E+02  0.51100000000E-03 0. -1.
        -11    1    3    3    0    0  0.88361576926E+00 -0.10831061344E+02 -0.10832097022E+02  0.15343630367E+02  0.51100000000E-03 0.  1.
        -12    1    3    3    0    0  0.14645641768E+02  0.16346058261E+01  0.26681033794E+02  0.30480228400E+02  0.00000000000E+00 0.  1.
</event>
<event>
 7    1  0.2809593E-013  0.7246078E+02  0.7816164E-02  0.1226710E+00
        -11   -1    0    0    0    0  0.00000000000E+00  0.00000000000E+00  0.45593999997E+02  0.45594000000E+02  0.51100000000E-03 0.  1.
         11   -1    0    0    0    0 -0.00000000000E+00 -0.00000000000E+00 -0.45593999997E+02  0.45594000000E+02  0.51100000000E-03 0. -1.
    9900012    2    1    2    0    0 -0.83321674497E+00 -0.38495361074E+01 -0.18308352428E+02  0.72460775246E+02  0.69998964294E+02 0.  0.
        -12    1    1    2    0    0  0.83321674497E+00  0.38495361074E+01  0.18308352428E+02  0.18727224754E+02  0.00000000000E+00 0.  1.
         11    1    3    3    0    0 -0.14206127293E+02  0.55260373825E+01 -0.95292516990E+01  0.17976589778E+02  0.51100000000E-03 0. -1.
        -11    1    3    3    0    0 -0.13197477365E+02 -0.15470365753E+02  0.86823473695E+01  0.22110829506E+02  0.51100000000E-03 0.  1.
         12    1    3    3    0    0  0.26570387913E+02  0.60947922633E+01 -0.17461448098E+02  0.32373355962E+02  0.00000000000E+00 0. -1.
</event>
<event>
 7    1  0.2809593E-013  0.7246155E+02  0.7816164E-02  0.1226708E+00
        -11   -1    0    0    0    0  0.00000000000E+00  0.00000000000E+00  0.45593999997E+02  0.45594000000E+02  0.51100000000E-03 0.  1.
         11   -1    0    0    0    0 -0.00000000000E+00 -0.00000000000E+00 -0.45593999997E+02  0.45594000000E+02  0.51100000000E-03 0. -1.
    9900012    2    1    2    0    0  0.12023340666E+02  0.14351032822E+02 -0.40871885252E+00  0.72461550392E+02  0.69999974073E+02 0.  0.
        -12    1    1    2    0    0 -0.12023340666E+02 -0.14351032822E+02  0.40871885252E+00  0.18726449608E+02  0.00000000000E+00 0.  1.
         11    1    3    3    0    0  0.23000542186E+01 -0.95008046812E+01  0.19641765495E+02  0.21939792411E+02  0.51100000000E-03 0. -1.
        -11    1    3    3    0    0  0.26883867451E+01 -0.12534563661E+01  0.10178772692E+02  0.10602169114E+02  0.51100000000E-03 0.  1.
         12    1    3    3    0    0  0.70348997026E+01  0.25105293869E+02 -0.30229257040E+02  0.39919588866E+02  0.00000000000E+00 0. -1.
</event>
<event>
 7    1  0.2809593E-013  0.7246148E+02  0.7816164E-02  0.1226708E+00
        -11   -1    0    0    0    0  0.00000000000E+00  0.00000000000E+00  0.45593999997E+02  0.45594000000E+02  0.51100000000E-03 0.  1.
         11   -1    0    0    0    0 -0.00000000000E+00 -0.00000000000E+00 -0.45593999997E+02  0.45594000000E+02  0.51100000000E-03 0. -1.
    9900012    2    1    2    0    0 -0.15392344598E+01  0.12844326539E+01 -0.18618900905E+02  0.72461481880E+02  0.69999884824E+02 0.  0.
        -12    1    1    2    0    0  0.15392344598E+01 -0.12844326539E+01  0.18618900905E+02  0.18726518120E+02  0.00000000000E+00 0.  1.
         11    1    3    3    0    0 -0.14042229910E+02 -0.17296148132E+02 -0.51247469755E+00  0.22284604363E+02  0.51100000000E-03 0. -1.
        -11    1    3    3    0    0  0.67802024760E+01  0.10679592157E+02  0.12662289566E+02  0.17898558925E+02  0.51100000000E-03 0.  1.
         12    1    3    3    0    0  0.57227929746E+01  0.79009886286E+01 -0.30768715774E+02  0.32278318592E+02  0.00000000000E+00 0. -1.
</event>
<event>
 7    1  0.2809593E-013  0.7246158E+02  0.7816164E-02  0.1226708E+00
        -11   -1    0    0    0    0  0.00000000000E+00  0.00000000000E+00  0.45593999997E+02  0.45594000000E+02  0.51100000000E-03 0.  1.
         11   -1    0    0    0    0 -0.00000000000E+00 -0.00000000000E+00 -0.45593999997E+02  0.45594000000E+02  0.51100000000E-03 0. -1.
    9900012    2    1    2    0    0 -0.13715732950E+02  0.77619951724E+01 -0.10114792576E+02  0.72461576736E+02  0.70000008391E+02 0.  0.
        -12    1    1    2    0    0  0.13715732950E+02 -0.77619951724E+01  0.10114792576E+02  0.18726423264E+02  0.00000000000E+00 0.  1.
         11    1    3    3    0    0 -0.19777003834E+02 -0.55893892302E+01 -0.90446864426E+01  0.22453897339E+02  0.51100000000E-03 0. -1.
        -11    1    3    3    0    0  0.86163231142E+01  0.16301674229E+01  0.22176956595E+02  0.23847764548E+02  0.51100000000E-03 0.  1.
         12    1    3    3    0    0 -0.25550522304E+01  0.11721216980E+02 -0.23247062729E+02  0.26159914849E+02  0.00000000000E+00 0. -1.
</event>
<event>
 7    1  0.2809593E-013  0.7246160E+02  0.7816164E-02  0.1226708E+00
        -11   -1    0    0    0    0  0.00000000000E+00  0.00000000000E+00  0.45593999997E+02  0.45594000000E+02  0.51100000000E-03 0. -1.
         11   -1    0    0    0    0 -0.00000000000E+00 -0.00000000000E+00 -0.45593999997E+02  0.45594000000E+02  0.51100000000E-03 0.  1.
    9900012    2    1    2    0    0  0.10620743124E+02 -0.45736786288E+01  0.14729537934E+02  0.72461601294E+02  0.70000040383E+02 0.  0.
        -12    1    1    2    0    0 -0.10620743124E+02  0.45736786288E+01 -0.14729537934E+02  0.18726398706E+02  0.00000000000E+00 0.  1.
         11    1    3    3    0    0  0.12194795615E+02 -0.98045867144E+01  0.63360395586E+01  0.16881598215E+02  0.51100000000E-03 0. -1.
        -11    1    3    3    0    0  0.20796226705E+02  0.28392458187E+01 -0.12872531907E+02  0.24622072211E+02  0.51100000000E-03 0.  1.
         12    1    3    3    0    0 -0.22370279196E+02  0.23916622669E+01  0.21266030283E+02  0.30957930869E+02  0.00000000000E+00 0. -1.
</event>
<event>
 7    1  0.2809593E-013  0.7246156E+02  0.7816164E-02  0.1226708E+00
        -11   -1    0    0    0    0  0.00000000000E+00  0.00000000000E+00  0.45593999997E+02  0.45594000000E+02  0.51100000000E-03 0. -1.
         11   -1    0    0    0    0 -0.00000000000E+00 -0.00000000000E+00 -0.45593999997E+02  0.45594000000E+02  0.51100000000E-03 0.  1.
    9900012    2    1    2    0    0 -0.53420912551E+01  0.17531662516E+02  0.38447998990E+01  0.72461558378E+02  0.69999984476E+02 0.  0.
        -12    1    1    2    0    0  0.53420912551E+01 -0.17531662516E+02 -0.38447998990E+01  0.18726441622E+02  0.00000000000E+00 0.  1.
         11    1    3    3    0    0 -0.17168141802E+02 -0.14487850250E+02  0.10253167934E+02  0.24693528519E+02  0.51100000000E-03 0. -1.
        -11    1    3    3    0    0  0.84163918846E+01  0.17317303963E+02  0.12963042302E+02  0.23211314803E+02  0.51100000000E-03 0.  1.
        -12    1    3    3    0    0  0.34096586625E+01  0.14702208803E+02 -0.19371410337E+02  0.24556715055E+02  0.00000000000E+00 0.  1.
</event>
<event>
 7    1  0.2809593E-013  0.7246159E+02  0.7816164E-02  0.1226708E+00
        -11   -1    0    0    0    0  0.00000000000E+00  0.00000000000E+00  0.45593999997E+02  0.45594000000E+02  0.51100000000E-03 0.  1.
         11   -1    0    0    0    0 -0.00000000000E+00 -0.00000000000E+00 -0.45593999997E+02  0.45594000000E+02  0.51100000000E-03 0. -1.
    9900012    2    1    2    0    0 -0.58841293786E+01 -0.35928642634E+00 -0.17774320907E+02  0.72461586862E+02  0.70000021583E+02 0.  0.
        -12    1    1    2    0    0  0.58841293786E+01  0.35928642634E+00  0.17774320907E+02  0.18726413138E+02  0.00000000000E+00 0.  1.
         11    1    3    3    0    0  0.65189828878E+00  0.17635812030E+02 -0.18110385268E+02  0.25287010344E+02  0.51100000000E-03 0. -1.
        -11    1    3    3    0    0 -0.10470901860E+01  0.90658758178E+01 -0.13495799286E+02  0.16291810851E+02  0.51100000000E-03 0.  1.
        -12    1    3    3    0    0 -0.54889374814E+01 -0.27060974274E+02  0.13831863646E+02  0.30882765667E+02  0.00000000000E+00 0.  1.
</event>
<event>
 7    1  0.2809593E-013  0.7246158E+02  0.7816164E-02  0.1226708E+00
        -11   -1    0    0    0    0  0.00000000000E+00  0.00000000000E+00  0.45593999997E+02  0.45594000000E+02  0.51100000000E-03 0.  1.
         11   -1    0    0    0    0 -0.00000000000E+00 -0.00000000000E+00 -0.45593999997E+02  0.45594000000E+02  0.51100000000E-03 0. -1.
    9900012    2    1    2    0    0 -0.12571937515E+02  0.11700041550E+02 -0.74655340511E+01  0.72461580592E+02  0.70000013415E+02 0.  0.
        -12    1    1    2    0    0  0.12571937515E+02 -0.11700041550E+02  0.74655340511E+01  0.18726419408E+02  0.00000000000E+00 0.  1.
         11    1    3    3    0    0 -0.36318765165E+01 -0.54923228310E+01  0.53752460359E+01  0.84999651363E+01  0.51100000000E-03 0. -1.
        -11    1    3    3    0    0 -0.86374203557E+01 -0.15006897556E+02  0.13821769033E+02  0.22155209413E+02  0.51100000000E-03 0.  1.
         12    1    3    3    0    0 -0.30264064305E+00  0.32199261937E+02 -0.26662549120E+02  0.41806406043E+02  0.00000000000E+00 0. -1.
</event>
<event>
 7    1  0.2809593E-013  0.7246150E+02  0.7816164E-02  0.1226708E+00
        -11   -1    0    0    0    0  0.00000000000E+00  0.00000000000E+00  0.45593999997E+02  0.45594000000E+02  0.51100000000E-03 0.  1.
         11   -1    0    0    0    0 -0.00000000000E+00 -0.00000000000E+00 -0.45593999997E+02  0.45594000000E+02  0.51100000000E-03 0. -1.
    9900012    2    1    2    0    0  0.97905987863E+01  0.11134434828E+02 -0.11438988761E+02  0.72461496658E+02  0.69999904075E+02 0.  0.
        -12    1    1    2    0    0 -0.97905987863E+01 -0.11134434828E+02  0.11438988761E+02  0.18726503342E+02  0.00000000000E+00 0.  1.
         11    1    3    3    0    0  0.99271681526E+01  0.40573089545E+01 -0.14903162417E+02  0.18360682824E+02  0.51100000000E-03 0. -1.
        -11    1    3    3    0    0  0.10521197397E+01 -0.23428160250E+02  0.99989198547E+00  0.23473078896E+02  0.51100000000E-03 0.  1.
         12    1    3    3    0    0 -0.11886891060E+01  0.30505286123E+02  0.24642816711E+01  0.30627734938E+02  0.00000000000E+00 0. -1.
</event>
<event>
 7    1  0.2809593E-013  0.7246204E+02  0.7816164E-02  0.1226707E+00
        -11   -1    0    0    0    0  0.00000000000E+00  0.00000000000E+00  0.45593999997E+02  0.45594000000E+02  0.51100000000E-03 0. -1.
         11   -1    0    0    0    0 -0.00000000000E+00 -0.00000000000E+00 -0.45593999997E+02  0.45594000000E+02  0.51100000000E-03 0.  1.
    9900012    2    1    2    0    0  0.84884124839E+01 -0.14444973841E+02  0.83636742040E+01  0.72462043097E+02  0.70000615910E+02 0.  0.
        -12    1    1    2    0    0 -0.84884124839E+01  0.14444973841E+02 -0.83636742040E+01  0.18725956903E+02  0.00000000000E+00 0.  1.
         11    1    3    3    0    0  0.36014653443E+02 -0.83190108107E+00  0.25189334748E+01  0.36112218821E+02  0.51100000000E-03 0. -1.
        -11    1    3    3    0    0  0.20590033239E+01 -0.26229241299E+00 -0.20797796036E+01  0.29383286845E+01  0.51100000000E-03 0.  1.
        -12    1    3    3    0    0 -0.29585244283E+02 -0.13350780347E+02  0.79245203328E+01  0.33411495592E+02  0.00000000000E+00 0.  1.
</event>
<event>
 7    1  0.2809593E-013  0.7246150E+02  0.7816164E-02  0.1226708E+00
        -11   -1    0    0    0    0  0.00000000000E+00  0.00000000000E+00  0.45593999997E+02  0.45594000000E+02  0.51100000000E-03 0.  1.
         11   -1    0    0    0    0 -0.00000000000E+00 -0.00000000000E+00 -0.45593999997E+02  0.45594000000E+02  0.51100000000E-03 0. -1.
    9900012    2    1    2    0    0  0.15959921388E+02 -0.73327869819E+01  0.64956064393E+01  0.72461501164E+02  0.69999909945E+02 0.  0.
        -12    1    1    2    0    0 -0.15959921388E+02  0.73327869819E+01 -0.64956064393E+01  0.18726498836E+02  0.00000000000E+00 0.  1.
         11    1    3    3    0    0 -0.16800356804E+02  0.16221914366E+02 -0.31149797916E+01  0.23560678976E+02  0.51100000000E-03 0. -1.
        -11    1    3    3    0    0  0.11872135541E+02 -0.17039951988E+02  0.15875874759E+02  0.26140982492E+02  0.51100000000E-03 0.  1.
        -12    1    3    3    0    0  0.20888142651E+02 -0.65147493598E+01 -0.62652885283E+01  0.22759839696E+02  0.00000000000E+00 0.  1.
</event>
<event>
 7    1  0.2809593E-013  0.7246164E+02  0.7816164E-02  0.1226708E+00
        -11   -1    0    0    0    0  0.00000000000E+00  0.00000000000E+00  0.45593999997E+02  0.45594000000E+02  0.51100000000E-03 0. -1.
         11   -1    0    0    0    0 -0.00000000000E+00 -0.00000000000E+00 -0.45593999997E+02  0.45594000000E+02  0.51100000000E-03 0.  1.
    9900012    2    1    2    0    0  0.82405131104E+01  0.16466300682E+02  0.34105055577E+01  0.72461637229E+02  0.70000087194E+02 0.  0.
        -12    1    1    2    0    0 -0.82405131104E+01 -0.16466300682E+02 -0.34105055577E+01  0.18726362771E+02  0.00000000000E+00 0.  1.
         11    1    3    3    0    0  0.14062203623E+02  0.16932951299E+02  0.20629050896E+02  0.30166672862E+02  0.51100000000E-03 0. -1.
        -11    1    3    3    0    0  0.75219383632E+01  0.96274609223E+01  0.60516056410E+01  0.13634129662E+02  0.51100000000E-03 0.  1.
        -12    1    3    3    0    0 -0.13343628876E+02 -0.10094111539E+02 -0.23270150979E+02  0.28660834704E+02  0.00000000000E+00 0.  1.
</event>
<event>
 7    1  0.2809593E-013  0.7246157E+02  0.7816164E-02  0.1226708E+00
        -11   -1    0    0    0    0  0.00000000000E+00  0.00000000000E+00  0.45593999997E+02  0.45594000000E+02  0.51100000000E-03 0.  1.
         11   -1    0    0    0    0 -0.00000000000E+00 -0.00000000000E+00 -0.45593999997E+02  0.45594000000E+02  0.51100000000E-03 0. -1.
    9900012    2    1    2    0    0  0.17962846105E+02  0.16657513629E+01 -0.50239987011E+01  0.72461571330E+02  0.70000001349E+02 0.  0.
        -12    1    1    2    0    0 -0.17962846105E+02 -0.16657513629E+01  0.50239987011E+01  0.18726428670E+02  0.00000000000E+00 0.  1.
         11    1    3    3    0    0 -0.13586594791E+01 -0.54325231268E+01 -0.11556754480E+02  0.12841995074E+02  0.51100000000E-03 0. -1.
        -11    1    3    3    0    0  0.93507489850E+01  0.21295967961E+02 -0.18113300541E+02  0.29479593191E+02  0.51100000000E-03 0.  1.
         12    1    3    3    0    0  0.99707565988E+01 -0.14197693471E+02  0.24646056320E+02  0.30139983065E+02  0.00000000000E+00 0. -1.
</event>
<event>
 7    1  0.2809593E-013  0.7246170E+02  0.7816164E-02  0.1226708E+00
        -11   -1    0    0    0    0  0.00000000000E+00  0.00000000000E+00  0.45593999997E+02  0.45594000000E+02  0.51100000000E-03 0.  1.
         11   -1    0    0    0    0 -0.00000000000E+00 -0.00000000000E+00 -0.45593999997E+02  0.45594000000E+02  0.51100000000E-03 0. -1.
    9900012    2    1    2    0    0 -0.98694810649E+01 -0.12297986518E+02 -0.10100847007E+02  0.72461701937E+02  0.70000171489E+02 0.  0.
        -12    1    1    2    0    0  0.98694810649E+01  0.12297986518E+02  0.10100847007E+02  0.18726298063E+02  0.00000000000E+00 0.  1.
         11    1    3    3    0    0  0.59075120043E-01 -0.21055173875E+01 -0.65295020974E+01  0.68608375028E+01  0.51100000000E-03 0. -1.
        -11    1    3    3    0    0  0.16194703677E+02  0.17789699233E+02 -0.11249812848E+02  0.26557486993E+02  0.51100000000E-03 0.  1.
        -12    1    3    3    0    0 -0.26123259862E+02 -0.27982168363E+02  0.76784679383E+01  0.39043377441E+02  0.00000000000E+00 0.  1.
</event>
<event>
 7    1  0.2809593E-013  0.7246164E+02  0.7816164E-02  0.1226708E+00
        -11   -1    0    0    0    0  0.00000000000E+00  0.00000000000E+00  0.45593999997E+02  0.45594000000E+02  0.51100000000E-03 0.  1.
         11   -1    0    0    0    0 -0.00000000000E+00 -0.00000000000E+00 -0.45593999997E+02  0.45594000000E+02  0.51100000000E-03 0. -1.
    9900012    2    1    2    0    0 -0.73181695042E+01 -0.11238266097E+02 -0.13069903390E+02  0.72461638784E+02  0.70000089220E+02 0.  0.
        -12    1    1    2    0    0  0.73181695042E+01  0.11238266097E+02  0.13069903390E+02  0.18726361216E+02  0.00000000000E+00 0.  1.
         11    1    3    3    0    0 -0.91572933327E+01 -0.12372919948E+02 -0.31004096102E+02  0.34615013283E+02  0.51100000000E-03 0. -1.
        -11    1    3    3    0    0 -0.22211217021E+01 -0.18899654754E+01 -0.95059722641E+01  0.99432821574E+01  0.51100000000E-03 0.  1.
        -12    1    3    3    0    0  0.40602455305E+01  0.30246193265E+01  0.27440164976E+02  0.27903343343E+02  0.00000000000E+00 0.  1.
</event>
<event>
 7    1  0.2809593E-013  0.7246161E+02  0.7816164E-02  0.1226708E+00
        -11   -1    0    0    0    0  0.00000000000E+00  0.00000000000E+00  0.45593999997E+02  0.45594000000E+02  0.51100000000E-03 0. -1.
         11   -1    0    0    0    0 -0.00000000000E+00 -0.00000000000E+00 -0.45593999997E+02  0.45594000000E+02  0.51100000000E-03 0.  1.
    9900012    2    1    2    0    0 -0.13890723557E+02 -0.10979887475E+02 -0.60965189701E+01  0.72461610239E+02  0.70000052036E+02 0.  0.
        -12    1    1    2    0    0  0.13890723557E+02  0.10979887475E+02  0.60965189701E+01  0.18726389761E+02  0.00000000000E+00 0.  1.
         11    1    3    3    0    0 -0.24559463053E+02  0.21616055528E+01 -0.70969559425E+00  0.24664619034E+02  0.51100000000E-03 0. -1.
        -11    1    3    3    0    0  0.19057868469E+02  0.10840589426E+02 -0.54134771431E+00  0.21932026520E+02  0.51100000000E-03 0.  1.
         12    1    3    3    0    0 -0.83891289734E+01 -0.23982082454E+02 -0.48454756615E+01  0.25864964685E+02  0.00000000000E+00 0. -1.
</event>
<event>
 7    1  0.2809593E-013  0.7246158E+02  0.7816164E-02  0.1226708E+00
        -11   -1    0    0    0    0  0.00000000000E+00  0.00000000000E+00  0.45593999997E+02  0.45594000000E+02  0.51100000000E-03 0.  1.
         11   -1    0    0    0    0 -0.00000000000E+00 -0.00000000000E+00 -0.45593999997E+02  0.45594000000E+02  0.51100000000E-03 0. -1.
    9900012    2    1    2    0    0  0.12251436902E+02  0.14137138646E+02 -0.84984817751E+00  0.72461584508E+02  0.70000018516E+02 0.  0.
        -12    1    1    2    0    0 -0.12251436902E+02 -0.14137138646E+02  0.84984817751E+00  0.18726415492E+02  0.00000000000E+00 0.  1.
         11    1    3    3    0    0  0.35209968558E+01 -0.10616288238E+02 -0.11717671854E+02  0.16198976164E+02  0.51100000000E-03 0. -1.
        -11    1    3    3    0    0 -0.12827363737E+02 -0.67034694461E+01  0.10914797088E+02  0.18127618674E+02  0.51100000000E-03 0.  1.
         12    1    3    3    0    0  0.21557803782E+02  0.31456896330E+02 -0.46973411641E-01  0.38134989670E+02  0.00000000000E+00 0. -1.
</event>
<event>
 7    1  0.2809593E-013  0.7246161E+02  0.7816164E-02  0.1226708E+00
        -11   -1    0    0    0    0  0.00000000000E+00  0.00000000000E+00  0.45593999997E+02  0.45594000000E+02  0.51100000000E-03 0.  1.
         11   -1    0    0    0    0 -0.00000000000E+00 -0.00000000000E+00 -0.45593999997E+02  0.45594000000E+02  0.51100000000E-03 0. -1.
    9900012    2    1    2    0    0  0.10204764058E+02  0.10269357282E+01 -0.15667988459E+02  0.72461610364E+02  0.70000052198E+02 0.  0.
        -12    1    1    2    0    0 -0.10204764058E+02 -0.10269357282E+01  0.15667988459E+02  0.18726389636E+02  0.00000000000E+00 0.  1.
         11    1    3    3    0    0  0.47710222056E+01  0.22356245324E+02 -0.26476001358E+02  0.34979179608E+02  0.51100000000E-03 0. -1.
        -11    1    3    3    0    0  0.89874977111E+01  0.52828906706E+00 -0.49776006645E+01  0.10287405556E+02  0.51100000000E-03 0.  1.
        -12    1    3    3    0    0 -0.35537558587E+01 -0.21857598663E+02  0.15785613564E+02  0.27195025199E+02  0.00000000000E+00 0.  1.
</event>
<event>
 7    1  0.2809593E-013  0.7246158E+02  0.7816164E-02  0.1226708E+00
        -11   -1    0    0    0    0  0.00000000000E+00  0.00000000000E+00  0.45593999997E+02  0.45594000000E+02  0.51100000000E-03 0.  1.
         11   -1    0    0    0    0 -0.00000000000E+00 -0.00000000000E+00 -0.45593999997E+02  0.45594000000E+02  0.51100000000E-03 0. -1.
    9900012    2    1    2    0    0  0.10186293684E+02  0.13097672568E+02 -0.86815343356E+01  0.72461584322E+02  0.70000018274E+02 0.  0.
        -12    1    1    2    0    0 -0.10186293684E+02 -0.13097672568E+02  0.86815343356E+01  0.18726415678E+02  0.00000000000E+00 0.  1.
         11    1    3    3    0    0  0.41539204110E+00 -0.89826317167E+01  0.10200555834E+02  0.13598219100E+02  0.51100000000E-03 0. -1.
        -11    1    3    3    0    0 -0.12470357306E+02  0.30476621215E+01  0.11092559621E+02  0.16965934544E+02  0.51100000000E-03 0.  1.
         12    1    3    3    0    0  0.22241258949E+02  0.19032642163E+02 -0.29974649791E+02  0.41897430678E+02  0.00000000000E+00 0. -1.
</event>
<event>
 7    1  0.2809593E-013  0.7246154E+02  0.7816164E-02  0.1226708E+00
        -11   -1    0    0    0    0  0.00000000000E+00  0.00000000000E+00  0.45593999997E+02  0.45594000000E+02  0.51100000000E-03 0.  1.
         11   -1    0    0    0    0 -0.00000000000E+00 -0.00000000000E+00 -0.45593999997E+02  0.45594000000E+02  0.51100000000E-03 0. -1.
    9900012    2    1    2    0    0  0.10532330050E+02  0.99381658652E+01 -0.11873638843E+02  0.72461537002E+02  0.69999956630E+02 0.  0.
        -12    1    1    2    0    0 -0.10532330050E+02 -0.99381658652E+01  0.11873638843E+02  0.18726462998E+02  0.00000000000E+00 0.  1.
         11    1    3    3    0    0 -0.18030792925E+02  0.95558804759E+01 -0.18036159827E+02  0.27234672877E+02  0.51100000000E-03 0.  1.
        -11    1    3    3    0    0  0.66103944565E+01  0.38069926874E+01 -0.13533540722E+02  0.15535354290E+02  0.51100000000E-03 0. -1.
        -12    1    3    3    0    0  0.21952728519E+02 -0.34247072981E+01  0.19696061706E+02  0.29691509834E+02  0.00000000000E+00 0.  1.
</event>
<event>
 7    1  0.2809593E-013  0.7246160E+02  0.7816164E-02  0.1226708E+00
        -11   -1    0    0    0    0  0.00000000000E+00  0.00000000000E+00  0.45593999997E+02  0.45594000000E+02  0.51100000000E-03 0.  1.
         11   -1    0    0    0    0 -0.00000000000E+00 -0.00000000000E+00 -0.45593999997E+02  0.45594000000E+02  0.51100000000E-03 0. -1.
    9900012    2    1    2    0    0  0.29101637156E+01  0.16476636024E+02 -0.84100839533E+01  0.72461598861E+02  0.70000037214E+02 0.  0.
        -12    1    1    2    0    0 -0.29101637156E+01 -0.16476636024E+02  0.84100839533E+01  0.18726401139E+02  0.00000000000E+00 0.  1.
         11    1    3    3    0    0 -0.18185666014E+02  0.24640048446E+02  0.16113555050E+02  0.34604870935E+02  0.51100000000E-03 0. -1.
        -11    1    3    3    0    0  0.10523246268E+01 -0.33342219969E+01  0.21799938548E+01  0.41202908772E+01  0.51100000000E-03 0.  1.
        -12    1    3    3    0    0  0.20043505103E+02 -0.48291904252E+01 -0.26703632858E+02  0.33736437050E+02  0.00000000000E+00 0.  1.
</event>
<event>
 7    1  0.2809593E-013  0.7246154E+02  0.7816164E-02  0.1226708E+00
        -11   -1    0    0    0    0  0.00000000000E+00  0.00000000000E+00  0.45593999997E+02  0.45594000000E+02  0.51100000000E-03 0.  1.
         11   -1    0    0    0    0 -0.00000000000E+00 -0.00000000000E+00 -0.45593999997E+02  0.45594000000E+02  0.51100000000E-03 0. -1.
    9900012    2    1    2    0    0 -0.77203199879E+00  0.99377380131E+00 -0.18684130926E+02  0.72461538288E+02  0.69999958306E+02 0.  0.
        -12    1    1    2    0    0  0.77203199879E+00 -0.99377380131E+00  0.18684130926E+02  0.18726461712E+02  0.00000000000E+00 0.  1.
         11    1    3    3    0    0  0.95141793990E+01 -0.61324243536E+01 -0.41098967932E+00  0.11326744937E+02  0.51100000000E-03 0.  1.
        -11    1    3    3    0    0  0.16501968293E+02 -0.11058368324E+02  0.59076530345E+01  0.20724450105E+02  0.51100000000E-03 0. -1.
        -12    1    3    3    0    0 -0.26788179691E+02  0.18184566479E+02 -0.24180794281E+02  0.40410343246E+02  0.00000000000E+00 0.  1.
</event>
<event>
 7    1  0.2809593E-013  0.7246168E+02  0.7816164E-02  0.1226708E+00
        -11   -1    0    0    0    0  0.00000000000E+00  0.00000000000E+00  0.45593999997E+02  0.45594000000E+02  0.51100000000E-03 0. -1.
         11   -1    0    0    0    0 -0.00000000000E+00 -0.00000000000E+00 -0.45593999997E+02  0.45594000000E+02  0.51100000000E-03 0.  1.
    9900012    2    1    2    0    0 -0.10163483408E+02  0.30477176587E+01  0.15430163856E+02  0.72461683370E+02  0.70000147301E+02 0.  0.
        -12    1    1    2    0    0  0.10163483408E+02 -0.30477176587E+01 -0.15430163856E+02  0.18726316630E+02  0.00000000000E+00 0.  1.
         11    1    3    3    0    0 -0.14227943230E+02  0.30133645465E+01 -0.51297017364E+01  0.15421691691E+02  0.51100000000E-03 0. -1.
        -11    1    3    3    0    0 -0.17614362961E+02  0.13295962170E+02 -0.31388993421E+01  0.22291278157E+02  0.51100000000E-03 0.  1.
        -12    1    3    3    0    0  0.21678822782E+02 -0.13261609057E+02  0.23698764935E+02  0.34748713522E+02  0.00000000000E+00 0.  1.
</event>
<event>
 7    1  0.2809593E-013  0.7246189E+02  0.7816164E-02  0.1226707E+00
        -11   -1    0    0    0    0  0.00000000000E+00  0.00000000000E+00  0.45593999997E+02  0.45594000000E+02  0.51100000000E-03 0. -1.
         11   -1    0    0    0    0 -0.00000000000E+00 -0.00000000000E+00 -0.45593999997E+02  0.45594000000E+02  0.51100000000E-03 0.  1.
    9900012    2    1    2    0    0 -0.11955876793E+02  0.13693974883E+02  0.44943598598E+01  0.72461889658E+02  0.70000416030E+02 0.  0.
        -12    1    1    2    0    0  0.11955876793E+02 -0.13693974883E+02 -0.44943598598E+01  0.18726110342E+02  0.00000000000E+00 0.  1.
         11    1    3    3    0    0 -0.26836572271E+02 -0.39782480990E+01  0.17696464647E+01  0.27187491941E+02  0.51100000000E-03 0. -1.
        -11    1    3    3    0    0  0.50637667243E+01  0.27552850600E+01  0.19766624825E+02  0.20590113804E+02  0.51100000000E-03 0.  1.
        -12    1    3    3    0    0  0.98169287536E+01  0.14916937922E+02 -0.17041911430E+02  0.24684283913E+02  0.00000000000E+00 0.  1.
</event>
<event>
 7    1  0.2809593E-013  0.7246162E+02  0.7816164E-02  0.1226708E+00
        -11   -1    0    0    0    0  0.00000000000E+00  0.00000000000E+00  0.45593999997E+02  0.45594000000E+02  0.51100000000E-03 0.  1.
         11   -1    0    0    0    0 -0.00000000000E+00 -0.00000000000E+00 -0.45593999997E+02  0.45594000000E+02  0.51100000000E-03 0. -1.
    9900012    2    1    2    0    0  0.16196952780E+02 -0.92853674223E+01 -0.14553546308E+01  0.72461617951E+02  0.70000062082E+02 0.  0.
        -12    1    1    2    0    0 -0.16196952780E+02  0.92853674223E+01  0.14553546308E+01  0.18726382049E+02  0.00000000000E+00 0.  1.
         11    1    3    3    0    0 -0.16028588059E+02  0.77958737074E+01  0.11715878236E+02  0.21329629277E+02  0.51100000000E-03 0. -1.
        -11    1    3    3    0    0  0.16545615343E+01 -0.11574328011E+02  0.74348781980E+01  0.13855686806E+02  0.51100000000E-03 0.  1.
         12    1    3    3    0    0  0.30570979305E+02 -0.55069131185E+01 -0.20606111065E+02  0.37276301868E+02  0.00000000000E+00 0. -1.
</event>
<event>
 7    1  0.2809593E-013  0.7246157E+02  0.7816164E-02  0.1226708E+00
        -11   -1    0    0    0    0  0.00000000000E+00  0.00000000000E+00  0.45593999997E+02  0.45594000000E+02  0.51100000000E-03 0.  1.
         11   -1    0    0    0    0 -0.00000000000E+00 -0.00000000000E+00 -0.45593999997E+02  0.45594000000E+02  0.51100000000E-03 0. -1.
    9900012    2    1    2    0    0  0.79717374644E+01 -0.15210540805E+02  0.74679237779E+01  0.72461573877E+02  0.70000004668E+02 0.  0.
        -12    1    1    2    0    0 -0.79717374644E+01  0.15210540805E+02 -0.74679237779E+01  0.18726426123E+02  0.00000000000E+00 0.  1.
         11    1    3    3    0    0  0.11256001570E+02 -0.38841003739E+01  0.22656562962E+01  0.12120932546E+02  0.51100000000E-03 0. -1.
        -11    1    3    3    0    0  0.81594418104E+00  0.24188465269E+02 -0.75655365293E-01  0.24202341642E+02  0.51100000000E-03 0.  1.
         12    1    3    3    0    0 -0.41002082872E+01 -0.35514905700E+02  0.52779228470E+01  0.36138299689E+02  0.00000000000E+00 0. -1.
</event>
<event>
 7    1  0.2809593E-013  0.7246186E+02  0.7816164E-02  0.1226707E+00
        -11   -1    0    0    0    0  0.00000000000E+00  0.00000000000E+00  0.45593999997E+02  0.45594000000E+02  0.51100000000E-03 0. -1.
         11   -1    0    0    0    0 -0.00000000000E+00 -0.00000000000E+00 -0.45593999997E+02  0.45594000000E+02  0.51100000000E-03 0.  1.
    9900012    2    1    2    0    0  0.21908221181E+00 -0.36567643645E+01  0.18364323398E+02  0.72461860609E+02  0.70000378188E+02 0.  0.
        -12    1    1    2    0    0 -0.21908221181E+00  0.36567643645E+01 -0.18364323398E+02  0.18726139391E+02  0.00000000000E+00 0.  1.
         11    1    3    3    0    0  0.95487789684E+01  0.43431128082E+01  0.11025374476E+02  0.15218432615E+02  0.51100000000E-03 0. -1.
        -11    1    3    3    0    0 -0.31270796116E+02 -0.12282418698E+02  0.91351397361E+01  0.34816250186E+02  0.51100000000E-03 0.  1.
         12    1    3    3    0    0  0.21941099359E+02  0.42825415253E+01 -0.17961908142E+01  0.22427177808E+02  0.00000000000E+00 0. -1.
</event>
<event>
 7    1  0.2809593E-013  0.7246149E+02  0.7816164E-02  0.1226708E+00
        -11   -1    0    0    0    0  0.00000000000E+00  0.00000000000E+00  0.45593999997E+02  0.45594000000E+02  0.51100000000E-03 0. -1.
         11   -1    0    0    0    0 -0.00000000000E+00 -0.00000000000E+00 -0.45593999997E+02  0.45594000000E+02  0.51100000000E-03 0.  1.
    9900012    2    1    2    0    0 -0.76352253431E+00 -0.94611977587E+01  0.16142640267E+02  0.72461492998E+02  0.69999899307E+02 0.  0.
        -12    1    1    2    0    0  0.76352253431E+00  0.94611977587E+01 -0.16142640267E+02  0.18726507002E+02  0.00000000000E+00 0.  1.
         11    1    3    3    0    0  0.39231180087E+01  0.13719793487E+02  0.20069862123E+02  0.24625656420E+02  0.51100000000E-03 0. -1.
        -11    1    3    3    0    0 -0.34298995120E-01  0.10745914445E+02  0.58338874535E+01  0.12227432141E+02  0.51100000000E-03 0.  1.
        -12    1    3    3    0    0 -0.46523415479E+01 -0.33926905690E+02 -0.97611093095E+01  0.35608404437E+02  0.00000000000E+00 0.  1.
</event>
<event>
 7    1  0.2809593E-013  0.7246161E+02  0.7816164E-02  0.1226708E+00
        -11   -1    0    0    0    0  0.00000000000E+00  0.00000000000E+00  0.45593999997E+02  0.45594000000E+02  0.51100000000E-03 0. -1.
         11   -1    0    0    0    0 -0.00000000000E+00 -0.00000000000E+00 -0.45593999997E+02  0.45594000000E+02  0.51100000000E-03 0.  1.
    9900012    2    1    2    0    0 -0.42797989640E+01 -0.54217877856E+00  0.18222705233E+02  0.72461611587E+02  0.70000053791E+02 0.  0.
        -12    1    1    2    0    0  0.42797989640E+01  0.54217877856E+00 -0.18222705233E+02  0.18726388413E+02  0.00000000000E+00 0.  1.
         11    1    3    3    0    0 -0.16569112378E+02  0.96031103463E+01  0.27742773951E+01  0.19350757831E+02  0.51100000000E-03 0. -1.
        -11    1    3    3    0    0 -0.15098016996E+02  0.86363087141E+01  0.30260451133E+01  0.17654826385E+02  0.51100000000E-03 0.  1.
        -12    1    3    3    0    0  0.27387330409E+02 -0.18781597839E+02  0.12422382724E+02  0.35456027370E+02  0.00000000000E+00 0.  1.
</event>
<event>
 7    1  0.2809593E-013  0.7246158E+02  0.7816164E-02  0.1226708E+00
        -11   -1    0    0    0    0  0.00000000000E+00  0.00000000000E+00  0.45593999997E+02  0.45594000000E+02  0.51100000000E-03 0. -1.
         11   -1    0    0    0    0 -0.00000000000E+00 -0.00000000000E+00 -0.45593999997E+02  0.45594000000E+02  0.51100000000E-03 0.  1.
    9900012    2    1    2    0    0 -0.75583035714E+01 -0.99208762487E+01  0.13968792386E+02  0.72461577513E+02  0.70000009404E+02 0.  0.
        -12    1    1    2    0    0  0.75583035714E+01  0.99208762487E+01 -0.13968792386E+02  0.18726422487E+02  0.00000000000E+00 0.  1.
         11    1    3    3    0    0 -0.98330148505E+01  0.20765241182E+02 -0.74160961929E+01  0.24142947323E+02  0.51100000000E-03 0. -1.
        -11    1    3    3    0    0 -0.41625484132E+01  0.13581672474E+01 -0.47572283565E+01  0.64654968456E+01  0.51100000000E-03 0.  1.
        -12    1    3    3    0    0  0.64372596923E+01 -0.32044284679E+02  0.26142116936E+02  0.41853133345E+02  0.00000000000E+00 0.  1.
</event>
<event>
 7    1  0.2809593E-013  0.7246158E+02  0.7816164E-02  0.1226708E+00
        -11   -1    0    0    0    0  0.00000000000E+00  0.00000000000E+00  0.45593999997E+02  0.45594000000E+02  0.51100000000E-03 0. -1.
         11   -1    0    0    0    0 -0.00000000000E+00 -0.00000000000E+00 -0.45593999997E+02  0.45594000000E+02  0.51100000000E-03 0.  1.
    9900012    2    1    2    0    0  0.13292945739E+02 -0.82879600654E+01  0.10260906322E+02  0.72461577837E+02  0.70000009826E+02 0.  0.
        -12    1    1    2    0    0 -0.13292945739E+02  0.82879600654E+01 -0.10260906322E+02  0.18726422163E+02  0.00000000000E+00 0.  1.
         11    1    3    3    0    0  0.73107211242E+01  0.11955013722E+02 -0.10714096322E+01  0.14054071129E+02  0.51100000000E-03 0. -1.
        -11    1    3    3    0    0  0.10734853513E+02 -0.37568647231E+02  0.10325750119E+02  0.40413629513E+02  0.51100000000E-03 0.  1.
         12    1    3    3    0    0 -0.47526288973E+01  0.17325673443E+02  0.10065658356E+01  0.17993877194E+02  0.00000000000E+00 0. -1.
</event>
<event>
 7    1  0.2809593E-013  0.7246163E+02  0.7816164E-02  0.1226708E+00
        -11   -1    0    0    0    0  0.00000000000E+00  0.00000000000E+00  0.45593999997E+02  0.45594000000E+02  0.51100000000E-03 0.  1.
         11   -1    0    0    0    0 -0.00000000000E+00 -0.00000000000E+00 -0.45593999997E+02  0.45594000000E+02  0.51100000000E-03 0. -1.
    9900012    2    1    2    0    0  0.34502254949E+01  0.12120411291E+02 -0.13851666501E+02  0.72461625800E+02  0.70000072307E+02 0.  0.
        -12    1    1    2    0    0 -0.34502254949E+01 -0.12120411291E+02  0.13851666501E+02  0.18726374200E+02  0.00000000000E+00 0.  1.
         11    1    3    3    0    0 -0.20415264157E+01 -0.16273608748E+02  0.40248139632E+00  0.16406101405E+02  0.51100000000E-03 0. -1.
        -11    1    3    3    0    0 -0.11230905024E+02  0.45532770620E+01  0.11848320973E+02  0.16948400214E+02  0.51100000000E-03 0.  1.
         12    1    3    3    0    0  0.16722656935E+02  0.23840742977E+02 -0.26102468870E+02  0.39107124181E+02  0.00000000000E+00 0. -1.
</event>
<event>
 7    1  0.2809593E-013  0.7246156E+02  0.7816164E-02  0.1226708E+00
        -11   -1    0    0    0    0  0.00000000000E+00  0.00000000000E+00  0.45593999997E+02  0.45594000000E+02  0.51100000000E-03 0. -1.
         11   -1    0    0    0    0 -0.00000000000E+00 -0.00000000000E+00 -0.45593999997E+02  0.45594000000E+02  0.51100000000E-03 0.  1.
    9900012    2    1    2    0    0 -0.16324842532E+02  0.80647929698E+01  0.43747308124E+01  0.72461557759E+02  0.69999983670E+02 0.  0.
        -12    1    1    2    0    0  0.16324842532E+02 -0.80647929698E+01 -0.43747308124E+01  0.18726442241E+02  0.00000000000E+00 0.  1.
         11    1    3    3    0    0  0.18238163065E+01  0.50977407070E+01  0.60574000198E+01  0.81243683752E+01  0.51100000000E-03 0. -1.
        -11    1    3    3    0    0 -0.75008520784E+01 -0.22894241526E+02  0.18054909484E+02  0.30106292261E+02  0.51100000000E-03 0.  1.
        -12    1    3    3    0    0 -0.10647806760E+02  0.25861293789E+02 -0.19737578691E+02  0.34230897123E+02  0.00000000000E+00 0.  1.
</event>
<event>
 7    1  0.2809593E-013  0.7246157E+02  0.7816164E-02  0.1226708E+00
        -11   -1    0    0    0    0  0.00000000000E+00  0.00000000000E+00  0.45593999997E+02  0.45594000000E+02  0.51100000000E-03 0. -1.
         11   -1    0    0    0    0 -0.00000000000E+00 -0.00000000000E+00 -0.45593999997E+02  0.45594000000E+02  0.51100000000E-03 0.  1.
    9900012    2    1    2    0    0 -0.35139514903E+01 -0.65484731504E+01  0.17188627677E+02  0.72461567422E+02  0.69999996259E+02 0.  0.
        -12    1    1    2    0    0  0.35139514903E+01  0.65484731504E+01 -0.17188627677E+02  0.18726432578E+02  0.00000000000E+00 0.  1.
         11    1    3    3    0    0  0.27493547030E+01 -0.55071294722E+01  0.10716957030E+01  0.62478762990E+01  0.51100000000E-03 0. -1.
        -11    1    3    3    0    0  0.12281582183E+01 -0.32169728271E+02  0.74424761226E+01  0.33042249329E+02  0.51100000000E-03 0.  1.
         12    1    3    3    0    0 -0.74914644115E+01  0.31128384593E+02  0.86744558509E+01  0.33171441794E+02  0.00000000000E+00 0. -1.
</event>
<event>
 7    1  0.2809593E-013  0.7246156E+02  0.7816164E-02  0.1226708E+00
        -11   -1    0    0    0    0  0.00000000000E+00  0.00000000000E+00  0.45593999997E+02  0.45594000000E+02  0.51100000000E-03 0.  1.
         11   -1    0    0    0    0 -0.00000000000E+00 -0.00000000000E+00 -0.45593999997E+02  0.45594000000E+02  0.51100000000E-03 0. -1.
    9900012    2    1    2    0    0  0.65965842140E+00  0.13720246744E+02 -0.12727896328E+02  0.72461557068E+02  0.69999982771E+02 0.  0.
        -12    1    1    2    0    0 -0.65965842140E+00 -0.13720246744E+02  0.12727896328E+02  0.18726442932E+02  0.00000000000E+00 0.  1.
         11    1    3    3    0    0  0.15796932944E+02  0.26286538967E+02 -0.41331095169E+01  0.30945238985E+02  0.51100000000E-03 0. -1.
        -11    1    3    3    0    0 -0.12566214047E+02  0.11063289536E+02 -0.20830180948E+01  0.16871427784E+02  0.51100000000E-03 0.  1.
        -12    1    3    3    0    0 -0.25710604756E+01 -0.23629581759E+02 -0.65117687159E+01  0.24644890299E+02  0.00000000000E+00 0.  1.
</event>
<event>
 7    1  0.2809593E-013  0.7246159E+02  0.7816164E-02  0.1226708E+00
        -11   -1    0    0    0    0  0.00000000000E+00  0.00000000000E+00  0.45593999997E+02  0.45594000000E+02  0.51100000000E-03 0.  1.
         11   -1    0    0    0    0 -0.00000000000E+00 -0.00000000000E+00 -0.45593999997E+02  0.45594000000E+02  0.51100000000E-03 0. -1.
    9900012    2    1    2    0    0 -0.12834996924E+02  0.75497111518E-01 -0.13635825789E+02  0.72461585746E+02  0.70000020129E+02 0.  0.
        -12    1    1    2    0    0  0.12834996924E+02 -0.75497111518E-01  0.13635825789E+02  0.18726414254E+02  0.00000000000E+00 0.  1.
         11    1    3    3    0    0  0.71157079087E+00 -0.27137994516E+01 -0.23988013363E+01  0.36912448531E+01  0.51100000000E-03 0. -1.
        -11    1    3    3    0    0  0.10892404274E+02  0.83640528578E+01  0.22729266255E+02  0.26556004892E+02  0.51100000000E-03 0.  1.
         12    1    3    3    0    0 -0.24438971988E+02 -0.55747562947E+01 -0.33966290708E+02  0.42214336001E+02  0.00000000000E+00 0. -1.
</event>
<event>
 7    1  0.2809593E-013  0.7246162E+02  0.7816164E-02  0.1226708E+00
        -11   -1    0    0    0    0  0.00000000000E+00  0.00000000000E+00  0.45593999997E+02  0.45594000000E+02  0.51100000000E-03 0. -1.
         11   -1    0    0    0    0 -0.00000000000E+00 -0.00000000000E+00 -0.45593999997E+02  0.45594000000E+02  0.51100000000E-03 0.  1.
    9900012    2    1    2    0    0  0.15331697611E+02  0.10626916085E+02  0.16385437120E+01  0.72461624947E+02  0.70000071196E+02 0.  0.
        -12    1    1    2    0    0 -0.15331697611E+02 -0.10626916085E+02 -0.16385437120E+01  0.18726375053E+02  0.00000000000E+00 0.  1.
         11    1    3    3    0    0  0.25840015350E+02  0.66924422548E+01  0.22946487182E+02  0.35199949586E+02  0.51100000000E-03 0. -1.
        -11    1    3    3    0    0  0.35591250221E+01  0.13180195310E+02 -0.81921621476E+01  0.15921571538E+02  0.51100000000E-03 0.  1.
        -12    1    3    3    0    0 -0.14067442761E+02 -0.92457214795E+01 -0.13115781322E+02  0.21340103823E+02  0.00000000000E+00 0.  1.
</event>
<event>
 7    1  0.2809593E-013  0.7246151E+02  0.7816164E-02  0.1226708E+00
        -11   -1    0    0    0    0  0.00000000000E+00  0.00000000000E+00  0.45593999997E+02  0.45594000000E+02  0.51100000000E-03 0. -1.
         11   -1    0    0    0    0 -0.00000000000E+00 -0.00000000000E+00 -0.45593999997E+02  0.45594000000E+02  0.51100000000E-03 0.  1.
    9900012    2    1    2    0    0  0.16724605261E+02 -0.81083379802E+01  0.22855754097E+01  0.72461510182E+02  0.69999921693E+02 0.  0.
        -12    1    1    2    0    0 -0.16724605261E+02  0.81083379802E+01 -0.22855754097E+01  0.18726489818E+02  0.00000000000E+00 0.  1.
         11    1    3    3    0    0  0.42262352878E+01 -0.63491523935E+01 -0.20371513625E+02  0.21752502579E+02  0.51100000000E-03 0. -1.
        -11    1    3    3    0    0  0.71364901607E+01  0.10302729647E+02 -0.96445779443E+01  0.15814348357E+02  0.51100000000E-03 0.  1.
         12    1    3    3    0    0  0.53618798126E+01 -0.12061915233E+02  0.32301666979E+02  0.34894659245E+02  0.00000000000E+00 0. -1.
</event>
<event>
 7    1  0.2809593E-013  0.7246133E+02  0.7816164E-02  0.1226709E+00
        -11   -1    0    0    0    0  0.00000000000E+00  0.00000000000E+00  0.45593999997E+02  0.45594000000E+02  0.51100000000E-03 0. -1.
         11   -1    0    0    0    0 -0.00000000000E+00 -0.00000000000E+00 -0.45593999997E+02  0.45594000000E+02  0.51100000000E-03 0.  1.
    9900012    2    1    2    0    0  0.15787966238E+02  0.10049109868E+02 -0.66612745320E+00  0.72461328837E+02  0.69999685456E+02 0.  0.
        -12    1    1    2    0    0 -0.15787966238E+02 -0.10049109868E+02  0.66612745320E+00  0.18726671163E+02  0.00000000000E+00 0.  1.
         11    1    3    3    0    0  0.10781825914E+02 -0.29189674592E+01  0.70209360757E+01  0.13193243904E+02  0.51100000000E-03 0. -1.
        -11    1    3    3    0    0 -0.16368134383E+02 -0.11754997345E+02  0.95714429353E+01  0.22309377084E+02  0.51100000000E-03 0.  1.
         12    1    3    3    0    0  0.21374274706E+02  0.24723074672E+02 -0.17258506464E+02  0.36958707849E+02  0.00000000000E+00 0. -1.
</event>
<event>
 7    1  0.2809593E-013  0.7246151E+02  0.7816164E-02  0.1226708E+00
        -11   -1    0    0    0    0  0.00000000000E+00  0.00000000000E+00  0.45593999997E+02  0.45594000000E+02  0.51100000000E-03 0. -1.
         11   -1    0    0    0    0 -0.00000000000E+00 -0.00000000000E+00 -0.45593999997E+02  0.45594000000E+02  0.51100000000E-03 0.  1.
    9900012    2    1    2    0    0  0.92323809407E+01  0.57490740620E+01  0.15244429150E+02  0.72461512595E+02  0.69999924836E+02 0.  0.
        -12    1    1    2    0    0 -0.92323809407E+01 -0.57490740620E+01 -0.15244429150E+02  0.18726487405E+02  0.00000000000E+00 0.  1.
         11    1    3    3    0    0 -0.55062883173E+00  0.19920154749E+02  0.19952123083E+02  0.28199343487E+02  0.51100000000E-03 0. -1.
        -11    1    3    3    0    0 -0.13710730039E+02 -0.73127261515E+01  0.71049166321E+01  0.17086249517E+02  0.51100000000E-03 0.  1.
         12    1    3    3    0    0  0.23493739811E+02 -0.68583545358E+01 -0.11812610565E+02  0.27175919591E+02  0.00000000000E+00 0. -1.
</event>
<event>
 7    1  0.2809593E-013  0.7246147E+02  0.7816164E-02  0.1226708E+00
        -11   -1    0    0    0    0  0.00000000000E+00  0.00000000000E+00  0.45593999997E+02  0.45594000000E+02  0.51100000000E-03 0.  1.
         11   -1    0    0    0    0 -0.00000000000E+00 -0.00000000000E+00 -0.45593999997E+02  0.45594000000E+02  0.51100000000E-03 0. -1.
    9900012    2    1    2    0    0 -0.70555551554E+01 -0.12937387355E+02 -0.11555344535E+02  0.72461472360E+02  0.69999872422E+02 0.  0.
        -12    1    1    2    0    0  0.70555551554E+01  0.12937387355E+02  0.11555344535E+02  0.18726527640E+02  0.00000000000E+00 0.  1.
         11    1    3    3    0    0 -0.71823287131E+01 -0.17941897676E+02  0.17927678006E+02  0.26360940365E+02  0.51100000000E-03 0. -1.
        -11    1    3    3    0    0 -0.23003531380E+01 -0.11986177191E+01  0.78036980589E+01  0.82235036725E+01  0.51100000000E-03 0.  1.
         12    1    3    3    0    0  0.24271266956E+01  0.62031280398E+01 -0.37286720600E+02  0.37877028323E+02  0.00000000000E+00 0. -1.
</event>
<event>
 7    1  0.2809593E-013  0.7246159E+02  0.7816164E-02  0.1226708E+00
        -11   -1    0    0    0    0  0.00000000000E+00  0.00000000000E+00  0.45593999997E+02  0.45594000000E+02  0.51100000000E-03 0. -1.
         11   -1    0    0    0    0 -0.00000000000E+00 -0.00000000000E+00 -0.45593999997E+02  0.45594000000E+02  0.51100000000E-03 0.  1.
    9900012    2    1    2    0    0  0.77969552854E+01  0.15731875081E+02  0.65110647969E+01  0.72461591639E+02  0.70000027806E+02 0.  0.
        -12    1    1    2    0    0 -0.77969552854E+01 -0.15731875081E+02 -0.65110647969E+01  0.18726408361E+02  0.00000000000E+00 0.  1.
         11    1    3    3    0    0 -0.61921183346E+01 -0.12508486989E+01 -0.10324200431E+01  0.64010033076E+01  0.51100000000E-03 0. -1.
        -11    1    3    3    0    0  0.11130922779E+02  0.14207258723E+02 -0.26347406016E+02  0.31936334266E+02  0.51100000000E-03 0.  1.
         12    1    3    3    0    0  0.28581508411E+01  0.27754650570E+01  0.33890890856E+02  0.34124254065E+02  0.00000000000E+00 0. -1.
</event>
<event>
 7    1  0.2809593E-013  0.7246175E+02  0.7816164E-02  0.1226708E+00
        -11   -1    0    0    0    0  0.00000000000E+00  0.00000000000E+00  0.45593999997E+02  0.45594000000E+02  0.51100000000E-03 0.  1.
         11   -1    0    0    0    0 -0.00000000000E+00 -0.00000000000E+00 -0.45593999997E+02  0.45594000000E+02  0.51100000000E-03 0. -1.
    9900012    2    1    2    0    0  0.69440105435E+01 -0.35291535352E+01 -0.17029329393E+02  0.72461754603E+02  0.70000240096E+02 0.  0.
        -12    1    1    2    0    0 -0.69440105435E+01  0.35291535352E+01  0.17029329393E+02  0.18726245397E+02  0.00000000000E+00 0.  1.
         11    1    3    3    0    0  0.85683071847E+01 -0.16152737126E+02  0.31170356675E+01  0.18548388509E+02  0.51100000000E-03 0. -1.
        -11    1    3    3    0    0  0.19867304483E+02  0.18485467064E+02 -0.69178324047E+01  0.28004976084E+02  0.51100000000E-03 0.  1.
        -12    1    3    3    0    0 -0.21491601124E+02 -0.58618834742E+01 -0.13228532656E+02  0.25908390011E+02  0.00000000000E+00 0.  1.
</event>
<event>
 7    1  0.2809593E-013  0.7246160E+02  0.7816164E-02  0.1226708E+00
        -11   -1    0    0    0    0  0.00000000000E+00  0.00000000000E+00  0.45593999997E+02  0.45594000000E+02  0.51100000000E-03 0.  1.
         11   -1    0    0    0    0 -0.00000000000E+00 -0.00000000000E+00 -0.45593999997E+02  0.45594000000E+02  0.51100000000E-03 0. -1.
    9900012    2    1    2    0    0  0.94300560177E+01 -0.33507114595E+01  0.15827971235E+02  0.72461604266E+02  0.70000044254E+02 0.  0.
        -12    1    1    2    0    0 -0.94300560177E+01  0.33507114595E+01 -0.15827971235E+02  0.18726395734E+02  0.00000000000E+00 0.  1.
         11    1    3    3    0    0 -0.73985511665E+01  0.72880210039E+01  0.16465143806E+02  0.19466760653E+02  0.51100000000E-03 0. -1.
        -11    1    3    3    0    0  0.87842188885E+00  0.19815957146E+00  0.22702107035E+02  0.22719959426E+02  0.51100000000E-03 0.  1.
         12    1    3    3    0    0  0.15950185295E+02 -0.10836892035E+02 -0.23339279607E+02  0.30274884186E+02  0.00000000000E+00 0. -1.
</event>
<event>
 7    1  0.2809593E-013  0.7246158E+02  0.7816164E-02  0.1226708E+00
        -11   -1    0    0    0    0  0.00000000000E+00  0.00000000000E+00  0.45593999997E+02  0.45594000000E+02  0.51100000000E-03 0. -1.
         11   -1    0    0    0    0 -0.00000000000E+00 -0.00000000000E+00 -0.45593999997E+02  0.45594000000E+02  0.51100000000E-03 0.  1.
    9900012    2    1    2    0    0 -0.55188056316E+01  0.71268116271E+01  0.16414323390E+02  0.72461583580E+02  0.70000017307E+02 0.  0.
        -12    1    1    2    0    0  0.55188056316E+01 -0.71268116271E+01 -0.16414323390E+02  0.18726416420E+02  0.00000000000E+00 0.  1.
         11    1    3    3    0    0 -0.80041544166E+01 -0.19953746939E+01  0.20038619402E+02  0.21670124040E+02  0.51100000000E-03 0. -1.
        -11    1    3    3    0    0  0.19819061530E+02 -0.94438601424E+01  0.73084407703E+01  0.23138604130E+02  0.51100000000E-03 0.  1.
         12    1    3    3    0    0 -0.17333712745E+02  0.18566046463E+02 -0.10932736782E+02  0.27652855411E+02  0.00000000000E+00 0. -1.
</event>
<event>
 7    1  0.2809593E-013  0.7246162E+02  0.7816164E-02  0.1226708E+00
        -11   -1    0    0    0    0  0.00000000000E+00  0.00000000000E+00  0.45593999997E+02  0.45594000000E+02  0.51100000000E-03 0. -1.
         11   -1    0    0    0    0 -0.00000000000E+00 -0.00000000000E+00 -0.45593999997E+02  0.45594000000E+02  0.51100000000E-03 0.  1.
    9900012    2    1    2    0    0  0.10042101459E+02  0.78003432919E+01  0.13747291592E+02  0.72461623327E+02  0.70000069085E+02 0.  0.
        -12    1    1    2    0    0 -0.10042101459E+02 -0.78003432919E+01 -0.13747291592E+02  0.18726376673E+02  0.00000000000E+00 0.  1.
         11    1    3    3    0    0  0.15151660289E+02 -0.93486951300E+01  0.27943619850E+02  0.33133318589E+02  0.51100000000E-03 0. -1.
        -11    1    3    3    0    0 -0.13827730397E+02  0.54447922699E+01  0.45765459714E+01  0.15549812349E+02  0.51100000000E-03 0.  1.
        -12    1    3    3    0    0  0.87181715672E+01  0.11704246152E+02 -0.18772874230E+02  0.23778492390E+02  0.00000000000E+00 0.  1.
</event>
<event>
 7    1  0.2809593E-013  0.7246158E+02  0.7816164E-02  0.1226708E+00
        -11   -1    0    0    0    0  0.00000000000E+00  0.00000000000E+00  0.45593999997E+02  0.45594000000E+02  0.51100000000E-03 0. -1.
         11   -1    0    0    0    0 -0.00000000000E+00 -0.00000000000E+00 -0.45593999997E+02  0.45594000000E+02  0.51100000000E-03 0.  1.
    9900012    2    1    2    0    0 -0.69627439031E+01  0.93275366525E+01  0.14669562955E+02  0.72461579628E+02  0.70000012159E+02 0.  0.
        -12    1    1    2    0    0  0.69627439031E+01 -0.93275366525E+01 -0.14669562955E+02  0.18726420372E+02  0.00000000000E+00 0.  1.
         11    1    3    3    0    0  0.13458867694E+02 -0.16367813142E+02  0.82192356176E+01  0.22728886050E+02  0.51100000000E-03 0. -1.
        -11    1    3    3    0    0  0.34120634646E+01  0.24636733928E+02  0.71041030207E+01  0.25866563662E+02  0.51100000000E-03 0.  1.
        -12    1    3    3    0    0 -0.23833675062E+02  0.10586158672E+01 -0.65377568345E+00  0.23866129916E+02  0.00000000000E+00 0.  1.
</event>
<event>
 7    1  0.2809593E-013  0.7246157E+02  0.7816164E-02  0.1226708E+00
        -11   -1    0    0    0    0  0.00000000000E+00  0.00000000000E+00  0.45593999997E+02  0.45594000000E+02  0.51100000000E-03 0.  1.
         11   -1    0    0    0    0 -0.00000000000E+00 -0.00000000000E+00 -0.45593999997E+02  0.45594000000E+02  0.51100000000E-03 0. -1.
    9900012    2    1    2    0    0  0.12093106501E+02  0.43671961033E+01 -0.13614828021E+02  0.72461570317E+02  0.70000000029E+02 0.  0.
        -12    1    1    2    0    0 -0.12093106501E+02 -0.43671961033E+01  0.13614828021E+02  0.18726429683E+02  0.00000000000E+00 0.  1.
         11    1    3    3    0    0  0.11671845156E+01 -0.15337799098E+02 -0.95262959098E+01  0.18093112360E+02  0.51100000000E-03 0. -1.
        -11    1    3    3    0    0  0.17239209195E+02 -0.39044692666E+01  0.15138693162E+02  0.23272628662E+02  0.51100000000E-03 0.  1.
         12    1    3    3    0    0 -0.63132872094E+01  0.23609464468E+02 -0.19227225272E+02  0.31095829295E+02  0.00000000000E+00 0. -1.
</event>
<event>
 7    1  0.2809593E-013  0.7246162E+02  0.7816164E-02  0.1226708E+00
        -11   -1    0    0    0    0  0.00000000000E+00  0.00000000000E+00  0.45593999997E+02  0.45594000000E+02  0.51100000000E-03 0.  1.
         11   -1    0    0    0    0 -0.00000000000E+00 -0.00000000000E+00 -0.45593999997E+02  0.45594000000E+02  0.51100000000E-03 0. -1.
    9900012    2    1    2    0    0  0.10477441391E+02 -0.53430502201E+01 -0.14572317304E+02  0.72461617665E+02  0.70000061708E+02 0.  0.
        -12    1    1    2    0    0 -0.10477441391E+02  0.53430502201E+01  0.14572317304E+02  0.18726382335E+02  0.00000000000E+00 0.  1.
         11    1    3    3    0    0  0.11491757768E+02  0.14386895756E+02  0.12741294826E+02  0.22391602448E+02  0.51100000000E-03 0.  1.
        -11    1    3    3    0    0  0.83439784283E+01  0.56856026812E+01 -0.19372898173E+02  0.21846217928E+02  0.51100000000E-03 0. -1.
         12    1    3    3    0    0 -0.93582948052E+01 -0.25415548657E+02 -0.79407139568E+01  0.28223797288E+02  0.00000000000E+00 0. -1.
</event>
<event>
 7    1  0.2809593E-013  0.7246160E+02  0.7816164E-02  0.1226708E+00
        -11   -1    0    0    0    0  0.00000000000E+00  0.00000000000E+00  0.45593999997E+02  0.45594000000E+02  0.51100000000E-03 0. -1.
         11   -1    0    0    0    0 -0.00000000000E+00 -0.00000000000E+00 -0.45593999997E+02  0.45594000000E+02  0.51100000000E-03 0.  1.
    9900012    2    1    2    0    0  0.14283304138E+02  0.11832747800E+02 -0.25790160228E+01  0.72461600953E+02  0.70000039939E+02 0.  0.
        -12    1    1    2    0    0 -0.14283304138E+02 -0.11832747800E+02  0.25790160228E+01  0.18726399047E+02  0.00000000000E+00 0.  1.
         11    1    3    3    0    0  0.13484220653E+02  0.27527770561E+01 -0.10221330747E+02  0.17142858299E+02  0.51100000000E-03 0. -1.
        -11    1    3    3    0    0 -0.10255061752E+02  0.28100227407E+02  0.13095183378E+02  0.32653834382E+02  0.51100000000E-03 0.  1.
         12    1    3    3    0    0  0.11054145237E+02 -0.19020256663E+02 -0.54528686536E+01  0.22664908272E+02  0.00000000000E+00 0. -1.
</event>
<event>
 7    1  0.2809593E-013  0.7246151E+02  0.7816164E-02  0.1226708E+00
        -11   -1    0    0    0    0  0.00000000000E+00  0.00000000000E+00  0.45593999997E+02  0.45594000000E+02  0.51100000000E-03 0. -1.
         11   -1    0    0    0    0 -0.00000000000E+00 -0.00000000000E+00 -0.45593999997E+02  0.45594000000E+02  0.51100000000E-03 0.  1.
    9900012    2    1    2    0    0 -0.14694581196E+00 -0.18576600810E+02  0.23600517412E+01  0.72461507137E+02  0.69999917726E+02 0.  0.
        -12    1    1    2    0    0  0.14694581196E+00  0.18576600810E+02 -0.23600517412E+01  0.18726492863E+02  0.00000000000E+00 0.  1.
         11    1    3    3    0    0 -0.78831492623E+01 -0.55727433045E+01  0.41263353066E+00  0.96628037816E+01  0.51100000000E-03 0. -1.
        -11    1    3    3    0    0 -0.22978265661E+02 -0.17091010484E+02 -0.88697417674E+01  0.29979587246E+02  0.51100000000E-03 0.  1.
         12    1    3    3    0    0  0.30714469111E+02  0.40871529787E+01  0.10817159978E+02  0.32819116110E+02  0.00000000000E+00 0. -1.
</event>
<event>
 7    1  0.2809593E-013  0.7246156E+02  0.7816164E-02  0.1226708E+00
        -11   -1    0    0    0    0  0.00000000000E+00  0.00000000000E+00  0.45593999997E+02  0.45594000000E+02  0.51100000000E-03 0.  1.
         11   -1    0    0    0    0 -0.00000000000E+00 -0.00000000000E+00 -0.45593999997E+02  0.45594000000E+02  0.51100000000E-03 0. -1.
    9900012    2    1    2    0    0  0.13739178593E+02 -0.80931159315E-01 -0.12724310629E+02  0.72461557219E+02  0.69999982967E+02 0.  0.
        -12    1    1    2    0    0 -0.13739178593E+02  0.80931159315E-01  0.12724310629E+02  0.18726442781E+02  0.00000000000E+00 0.  1.
         11    1    3    3    0    0  0.50305245535E+01 -0.59051355039E+01 -0.20882542894E+01  0.80335302851E+01  0.51100000000E-03 0. -1.
        -11    1    3    3    0    0  0.35387513751E+02 -0.26785885999E+01 -0.46226713646E+01  0.35788546453E+02  0.51100000000E-03 0.  1.
         12    1    3    3    0    0 -0.26678859712E+02  0.85027929445E+01 -0.60133849747E+01  0.28639480481E+02  0.00000000000E+00 0. -1.
</event>
<event>
 7    1  0.2809593E-013  0.7246156E+02  0.7816164E-02  0.1226708E+00
        -11   -1    0    0    0    0  0.00000000000E+00  0.00000000000E+00  0.45593999997E+02  0.45594000000E+02  0.51100000000E-03 0. -1.
         11   -1    0    0    0    0 -0.00000000000E+00 -0.00000000000E+00 -0.45593999997E+02  0.45594000000E+02  0.51100000000E-03 0.  1.
    9900012    2    1    2    0    0  0.10646410525E+02 -0.46696858347E+01  0.14680858890E+02  0.72461557716E+02  0.69999983615E+02 0.  0.
        -12    1    1    2    0    0 -0.10646410525E+02  0.46696858347E+01 -0.14680858890E+02  0.18726442284E+02  0.00000000000E+00 0.  1.
         11    1    3    3    0    0 -0.13714490155E+02 -0.38465098551E+01  0.15243115345E+02  0.20862297188E+02  0.51100000000E-03 0. -1.
        -11    1    3    3    0    0 -0.59224930537E+01 -0.13190840445E+02  0.95876168731E+01  0.17349253390E+02  0.51100000000E-03 0.  1.
         12    1    3    3    0    0  0.30283393734E+02  0.12367664465E+02 -0.10149873329E+02  0.34250007138E+02  0.00000000000E+00 0. -1.
</event>
<event>
 7    1  0.2809593E-013  0.7246181E+02  0.7816164E-02  0.1226707E+00
        -11   -1    0    0    0    0  0.00000000000E+00  0.00000000000E+00  0.45593999997E+02  0.45594000000E+02  0.51100000000E-03 0.  1.
         11   -1    0    0    0    0 -0.00000000000E+00 -0.00000000000E+00 -0.45593999997E+02  0.45594000000E+02  0.51100000000E-03 0. -1.
    9900012    2    1    2    0    0 -0.13069526461E+02 -0.10475685159E+02 -0.83736303917E+01  0.72461810120E+02  0.70000312417E+02 0.  0.
        -12    1    1    2    0    0  0.13069526461E+02  0.10475685159E+02  0.83736303917E+01  0.18726189880E+02  0.00000000000E+00 0.  1.
         11    1    3    3    0    0 -0.12242913841E+01 -0.96432914532E+01  0.95895006451E+00  0.97678833394E+01  0.51100000000E-03 0. -1.
        -11    1    3    3    0    0 -0.19340567742E+01  0.45115298844E+01  0.25561252838E+02  0.26028294689E+02  0.51100000000E-03 0.  1.
         12    1    3    3    0    0 -0.99111783030E+01 -0.53439235905E+01 -0.34893833294E+02  0.36665632092E+02  0.00000000000E+00 0. -1.
</event>
<event>
 7    1  0.2809593E-013  0.7246151E+02  0.7816164E-02  0.1226708E+00
        -11   -1    0    0    0    0  0.00000000000E+00  0.00000000000E+00  0.45593999997E+02  0.45594000000E+02  0.51100000000E-03 0.  1.
         11   -1    0    0    0    0 -0.00000000000E+00 -0.00000000000E+00 -0.45593999997E+02  0.45594000000E+02  0.51100000000E-03 0. -1.
    9900012    2    1    2    0    0 -0.15847500640E+02  0.65660455983E+01 -0.75116770365E+01  0.72461507450E+02  0.69999918133E+02 0.  0.
        -12    1    1    2    0    0  0.15847500640E+02 -0.65660455983E+01  0.75116770365E+01  0.18726492550E+02  0.00000000000E+00 0.  1.
         11    1    3    3    0    0 -0.87097428999E+01  0.55093818043E+01 -0.28117732986E+02  0.29946950058E+02  0.51100000000E-03 0. -1.
        -11    1    3    3    0    0 -0.21917196761E+02 -0.20282948633E-01  0.90051265355E+01  0.23695067618E+02  0.51100000000E-03 0.  1.
        -12    1    3    3    0    0  0.14779439021E+02  0.10769467427E+01  0.11600929414E+02  0.18819489773E+02  0.00000000000E+00 0.  1.
</event>
<event>
 7    1  0.2809593E-013  0.7246161E+02  0.7816164E-02  0.1226708E+00
        -11   -1    0    0    0    0  0.00000000000E+00  0.00000000000E+00  0.45593999997E+02  0.45594000000E+02  0.51100000000E-03 0.  1.
         11   -1    0    0    0    0 -0.00000000000E+00 -0.00000000000E+00 -0.45593999997E+02  0.45594000000E+02  0.51100000000E-03 0. -1.
    9900012    2    1    2    0    0  0.50743157790E+01 -0.16630929095E+02  0.69527906481E+01  0.72461607369E+02  0.70000048296E+02 0.  0.
        -12    1    1    2    0    0 -0.50743157790E+01  0.16630929095E+02 -0.69527906481E+01  0.18726392631E+02  0.00000000000E+00 0.  1.
         11    1    3    3    0    0  0.29082427764E+01 -0.38130278578E+01 -0.12284924874E+02  0.13187738127E+02  0.51100000000E-03 0. -1.
        -11    1    3    3    0    0 -0.21784215381E+02  0.89770124550E+01  0.10031702419E+02  0.25608081655E+02  0.51100000000E-03 0.  1.
         12    1    3    3    0    0  0.23950288384E+02 -0.21794913692E+02  0.92060131033E+01  0.33665787586E+02  0.00000000000E+00 0. -1.
</event>
<event>
 7    1  0.2809593E-013  0.7246159E+02  0.7816164E-02  0.1226708E+00
        -11   -1    0    0    0    0  0.00000000000E+00  0.00000000000E+00  0.45593999997E+02  0.45594000000E+02  0.51100000000E-03 0. -1.
         11   -1    0    0    0    0 -0.00000000000E+00 -0.00000000000E+00 -0.45593999997E+02  0.45594000000E+02  0.51100000000E-03 0.  1.
    9900012    2    1    2    0    0  0.11478798463E+02  0.14219787096E+02  0.40881775576E+01  0.72461592044E+02  0.70000028333E+02 0.  0.
        -12    1    1    2    0    0 -0.11478798463E+02 -0.14219787096E+02 -0.40881775576E+01  0.18726407956E+02  0.00000000000E+00 0.  1.
         11    1    3    3    0    0  0.93321823133E+01 -0.13456353152E+02  0.12974807005E+02  0.20892790239E+02  0.51100000000E-03 0. -1.
        -11    1    3    3    0    0  0.98744303434E+01 -0.39011490769E+01  0.94770411701E+01  0.14231572237E+02  0.51100000000E-03 0.  1.
         12    1    3    3    0    0 -0.77278141939E+01  0.31577289325E+02 -0.18363670617E+02  0.37337229569E+02  0.00000000000E+00 0. -1.
</event>
<event>
 7    1  0.2809593E-013  0.7246164E+02  0.7816164E-02  0.1226708E+00
        -11   -1    0    0    0    0  0.00000000000E+00  0.00000000000E+00  0.45593999997E+02  0.45594000000E+02  0.51100000000E-03 0. -1.
         11   -1    0    0    0    0 -0.00000000000E+00 -0.00000000000E+00 -0.45593999997E+02  0.45594000000E+02  0.51100000000E-03 0.  1.
    9900012    2    1    2    0    0  0.94111654656E+01  0.98609621896E+01  0.12840098379E+02  0.72461635240E+02  0.70000084604E+02 0.  0.
        -12    1    1    2    0    0 -0.94111654656E+01 -0.98609621896E+01 -0.12840098379E+02  0.18726364760E+02  0.00000000000E+00 0.  1.
         11    1    3    3    0    0 -0.11920533378E+02  0.73536739411E+01  0.71225309549E+01  0.15713245493E+02  0.51100000000E-03 0. -1.
        -11    1    3    3    0    0 -0.13369676149E+01  0.40523551032E+01 -0.21141543300E+02  0.21567890895E+02  0.51100000000E-03 0.  1.
        -12    1    3    3    0    0  0.22668666458E+02 -0.15450668547E+01  0.26859110725E+02  0.35180498852E+02  0.00000000000E+00 0.  1.
</event>
<event>
 7    1  0.3662488E-013  0.7246159E+02  0.7816164E-02  0.1226708E+00
        -11   -1    0    0    0    0  0.00000000000E+00  0.00000000000E+00  0.45593999997E+02  0.45594000000E+02  0.51100000000E-03 0. -1.
         11   -1    0    0    0    0 -0.00000000000E+00 -0.00000000000E+00 -0.45593999997E+02  0.45594000000E+02  0.51100000000E-03 0.  1.
    9900012    2    1    2    0    0  0.88460230777E+01 -0.77488323377E+01  0.14573326030E+02  0.72461591950E+02  0.70000028210E+02 0.  0.
        -12    1    1    2    0    0 -0.88460230777E+01  0.77488323377E+01 -0.14573326030E+02  0.18726408050E+02  0.00000000000E+00 0.  1.
         11    1    3    3    0    0  0.19613328574E+02 -0.22929508011E+00  0.30519512855E+02  0.36279138622E+02  0.51100000000E-03 0. -1.
        -11    1    3    3    0    0  0.78870892065E+01  0.43810084420E+01 -0.19969670122E+00  0.90243720088E+01  0.51100000000E-03 0.  1.
        -12    1    3    3    0    0 -0.18654394703E+02 -0.11900545700E+02 -0.15746490124E+02  0.27158081319E+02  0.00000000000E+00 0.  1.
</event>
<event>
 7    1  0.2809593E-013  0.7246157E+02  0.7816164E-02  0.1226708E+00
        -11   -1    0    0    0    0  0.00000000000E+00  0.00000000000E+00  0.45593999997E+02  0.45594000000E+02  0.51100000000E-03 0. -1.
         11   -1    0    0    0    0 -0.00000000000E+00 -0.00000000000E+00 -0.45593999997E+02  0.45594000000E+02  0.51100000000E-03 0.  1.
    9900012    2    1    2    0    0 -0.71859745102E+01  0.17180851572E+02 -0.19645319948E+01  0.72461567442E+02  0.69999996284E+02 0.  0.
        -12    1    1    2    0    0  0.71859745102E+01 -0.17180851572E+02  0.19645319948E+01  0.18726432558E+02  0.00000000000E+00 0.  1.
         11    1    3    3    0    0 -0.13252784194E+02  0.35403820678E+02  0.14327598455E+02  0.40427056351E+02  0.51100000000E-03 0. -1.
        -11    1    3    3    0    0  0.83394992415E+01  0.84202181913E+00 -0.48822529547E+01  0.97001362113E+01  0.51100000000E-03 0.  1.
        -12    1    3    3    0    0 -0.22726895572E+01 -0.19064990925E+02 -0.11409877495E+02  0.22334374879E+02  0.00000000000E+00 0.  1.
</event>
<event>
 7    1  0.2809593E-013  0.7246176E+02  0.7816164E-02  0.1226707E+00
        -11   -1    0    0    0    0  0.00000000000E+00  0.00000000000E+00  0.45593999997E+02  0.45594000000E+02  0.51100000000E-03 0.  1.
         11   -1    0    0    0    0 -0.00000000000E+00 -0.00000000000E+00 -0.45593999997E+02  0.45594000000E+02  0.51100000000E-03 0. -1.
    9900012    2    1    2    0    0  0.89435582485E+00  0.18356712054E+02  0.35920968634E+01  0.72461764135E+02  0.70000252513E+02 0.  0.
        -12    1    1    2    0    0 -0.89435582485E+00 -0.18356712054E+02 -0.35920968634E+01  0.18726235865E+02  0.00000000000E+00 0.  1.
         11    1    3    3    0    0 -0.19221123257E+02  0.12368330093E+02 -0.82466175592E+01  0.24298845034E+02  0.51100000000E-03 0. -1.
        -11    1    3    3    0    0 -0.74502509440E+01  0.15505337246E+02  0.16902953832E+01  0.17285219726E+02  0.51100000000E-03 0.  1.
        -12    1    3    3    0    0  0.27565730026E+02 -0.95169552842E+01  0.10148419039E+02  0.30877699376E+02  0.00000000000E+00 0.  1.
</event>
<event>
 7    1  0.2809593E-013  0.7246152E+02  0.7816164E-02  0.1226708E+00
        -11   -1    0    0    0    0  0.00000000000E+00  0.00000000000E+00  0.45593999997E+02  0.45594000000E+02  0.51100000000E-03 0.  1.
         11   -1    0    0    0    0 -0.00000000000E+00 -0.00000000000E+00 -0.45593999997E+02  0.45594000000E+02  0.51100000000E-03 0. -1.
    9900012    2    1    2    0    0 -0.96096763858E+01 -0.24826809262E+01 -0.15879903144E+02  0.72461523858E+02  0.69999939509E+02 0.  0.
        -12    1    1    2    0    0  0.96096763858E+01  0.24826809262E+01  0.15879903144E+02  0.18726476142E+02  0.00000000000E+00 0.  1.
         11    1    3    3    0    0 -0.19269980360E+02  0.24373755652E+01  0.79500622149E+01  0.20987530398E+02  0.51100000000E-03 0. -1.
        -11    1    3    3    0    0  0.49200619060E+01  0.15616551596E+02  0.37160184956E+01  0.16789654154E+02  0.51100000000E-03 0.  1.
         12    1    3    3    0    0  0.47402420681E+01 -0.20536608087E+02 -0.27545983854E+02  0.34684339306E+02  0.00000000000E+00 0. -1.
</event>
<event>
 7    1  0.2809593E-013  0.7246157E+02  0.7816164E-02  0.1226708E+00
        -11   -1    0    0    0    0  0.00000000000E+00  0.00000000000E+00  0.45593999997E+02  0.45594000000E+02  0.51100000000E-03 0. -1.
         11   -1    0    0    0    0 -0.00000000000E+00 -0.00000000000E+00 -0.45593999997E+02  0.45594000000E+02  0.51100000000E-03 0.  1.
    9900012    2    1    2    0    0  0.16098439585E+02 -0.38675384004E+01  0.87499511244E+01  0.72461568011E+02  0.69999997026E+02 0.  0.
        -12    1    1    2    0    0 -0.16098439585E+02  0.38675384004E+01 -0.87499511244E+01  0.18726431989E+02  0.00000000000E+00 0.  1.
         11    1    3    3    0    0 -0.13992288271E+02 -0.13426336708E+02 -0.10245619582E+02  0.21932244968E+02  0.51100000000E-03 0. -1.
        -11    1    3    3    0    0 -0.20388081093E+01  0.14082297431E+02  0.39691977400E+01  0.14772351553E+02  0.51100000000E-03 0.  1.
         12    1    3    3    0    0  0.32129535965E+02 -0.45234991228E+01  0.15026372966E+02  0.35756971490E+02  0.00000000000E+00 0. -1.
</event>
<event>
 7    1  0.2809593E-013  0.7246167E+02  0.7816164E-02  0.1226708E+00
        -11   -1    0    0    0    0  0.00000000000E+00  0.00000000000E+00  0.45593999997E+02  0.45594000000E+02  0.51100000000E-03 0.  1.
         11   -1    0    0    0    0 -0.00000000000E+00 -0.00000000000E+00 -0.45593999997E+02  0.45594000000E+02  0.51100000000E-03 0. -1.
    9900012    2    1    2    0    0 -0.12690879255E+02 -0.13197107101E+02 -0.39310693433E+01  0.72461672056E+02  0.70000132563E+02 0.  0.
        -12    1    1    2    0    0  0.12690879255E+02  0.13197107101E+02  0.39310693433E+01  0.18726327944E+02  0.00000000000E+00 0.  1.
         11    1    3    3    0    0 -0.49858127583E+01 -0.18615357931E+01 -0.54086012558E+01  0.75879254197E+01  0.51100000000E-03 0. -1.
        -11    1    3    3    0    0  0.83189634389E+01 -0.22154744156E+02 -0.23457426034E+02  0.33320994549E+02  0.51100000000E-03 0.  1.
        -12    1    3    3    0    0 -0.16024029936E+02  0.10819172848E+02  0.24934957947E+02  0.31552752088E+02  0.00000000000E+00 0.  1.
</event>
<event>
 7    1  0.2809593E-013  0.7246156E+02  0.7816164E-02  0.1226708E+00
        -11   -1    0    0    0    0  0.00000000000E+00  0.00000000000E+00  0.45593999997E+02  0.45594000000E+02  0.51100000000E-03 0.  1.
         11   -1    0    0    0    0 -0.00000000000E+00 -0.00000000000E+00 -0.45593999997E+02  0.45594000000E+02  0.51100000000E-03 0. -1.
    9900012    2    1    2    0    0  0.17123560922E+02 -0.49739257386E+01 -0.57204121489E+01  0.72461564379E+02  0.69999992294E+02 0.  0.
        -12    1    1    2    0    0 -0.17123560922E+02  0.49739257386E+01  0.57204121489E+01  0.18726435621E+02  0.00000000000E+00 0.  1.
         11    1    3    3    0    0  0.14114862620E+02 -0.29660613940E+01 -0.21482413860E+02  0.25875103333E+02  0.51100000000E-03 0. -1.
        -11    1    3    3    0    0  0.15882957149E+01  0.19457983266E+02 -0.64155627290E+00  0.19533238102E+02  0.51100000000E-03 0.  1.
        -12    1    3    3    0    0  0.14204025876E+01 -0.21465847610E+02  0.16403557984E+02  0.27053222944E+02  0.00000000000E+00 0.  1.
</event>
<event>
 7    1  0.2809593E-013  0.7246155E+02  0.7816164E-02  0.1226708E+00
        -11   -1    0    0    0    0  0.00000000000E+00  0.00000000000E+00  0.45593999997E+02  0.45594000000E+02  0.51100000000E-03 0.  1.
         11   -1    0    0    0    0 -0.00000000000E+00 -0.00000000000E+00 -0.45593999997E+02  0.45594000000E+02  0.51100000000E-03 0. -1.
    9900012    2    1    2    0    0  0.16299515614E+02 -0.39242974190E+01 -0.83429895054E+01  0.72461553637E+02  0.69999978301E+02 0.  0.
        -12    1    1    2    0    0 -0.16299515614E+02  0.39242974190E+01  0.83429895054E+01  0.18726446363E+02  0.00000000000E+00 0.  1.
         11    1    3    3    0    0 -0.13124912533E+02 -0.18738984639E+01  0.70900209027E+01  0.15034733823E+02  0.51100000000E-03 0. -1.
        -11    1    3    3    0    0 -0.81088718388E+01  0.11761425719E+02 -0.90910626003E+01  0.16933173268E+02  0.51100000000E-03 0.  1.
        -12    1    3    3    0    0  0.37533299986E+02 -0.13811824674E+02 -0.63419478078E+01  0.40493646547E+02  0.00000000000E+00 0.  1.
</event>
<event>
 7    1  0.2809593E-013  0.7246155E+02  0.7816164E-02  0.1226708E+00
        -11   -1    0    0    0    0  0.00000000000E+00  0.00000000000E+00  0.45593999997E+02  0.45594000000E+02  0.51100000000E-03 0.  1.
         11   -1    0    0    0    0 -0.00000000000E+00 -0.00000000000E+00 -0.45593999997E+02  0.45594000000E+02  0.51100000000E-03 0. -1.
    9900012    2    1    2    0    0  0.35044523795E+01 -0.15390845069E+02 -0.10075743589E+02  0.72461550596E+02  0.69999974339E+02 0.  0.
        -12    1    1    2    0    0 -0.35044523795E+01  0.15390845069E+02  0.10075743589E+02  0.18726449404E+02  0.00000000000E+00 0.  1.
         11    1    3    3    0    0 -0.38964155644E+01 -0.27814827150E+02  0.74037845906E+01  0.29045872171E+02  0.51100000000E-03 0. -1.
        -11    1    3    3    0    0  0.28280769372E+01 -0.85230015254E+01  0.66222079836E+01  0.11157652665E+02  0.51100000000E-03 0.  1.
         12    1    3    3    0    0  0.45727910067E+01  0.20946983606E+02 -0.24101736163E+02  0.32258025759E+02  0.00000000000E+00 0. -1.
</event>
<event>
 7    1  0.2809593E-013  0.7246174E+02  0.7816164E-02  0.1226708E+00
        -11   -1    0    0    0    0  0.00000000000E+00  0.00000000000E+00  0.45593999997E+02  0.45594000000E+02  0.51100000000E-03 0. -1.
         11   -1    0    0    0    0 -0.00000000000E+00 -0.00000000000E+00 -0.45593999997E+02  0.45594000000E+02  0.51100000000E-03 0.  1.
    9900012    2    1    2    0    0 -0.66575842678E+01  0.35200344066E+01  0.17145227350E+02  0.72461737923E+02  0.70000218367E+02 0.  0.
        -12    1    1    2    0    0  0.66575842678E+01 -0.35200344066E+01 -0.17145227350E+02  0.18726262077E+02  0.00000000000E+00 0.  1.
         11    1    3    3    0    0 -0.21690493835E+02 -0.11430415548E+02  0.21440931400E+02  0.32570622683E+02  0.51100000000E-03 0. -1.
        -11    1    3    3    0    0  0.78952055224E+01 -0.10299192913E+02  0.13635633525E+01  0.13048637867E+02  0.51100000000E-03 0.  1.
        -12    1    3    3    0    0  0.71377040452E+01  0.25249642868E+02 -0.56592674025E+01  0.26842477373E+02  0.00000000000E+00 0.  1.
</event>
<event>
 7    1  0.2809593E-013  0.7246156E+02  0.7816164E-02  0.1226708E+00
        -11   -1    0    0    0    0  0.00000000000E+00  0.00000000000E+00  0.45593999997E+02  0.45594000000E+02  0.51100000000E-03 0. -1.
         11   -1    0    0    0    0 -0.00000000000E+00 -0.00000000000E+00 -0.45593999997E+02  0.45594000000E+02  0.51100000000E-03 0.  1.
    9900012    2    1    2    0    0  0.14911681170E+02  0.93357472508E+01  0.64160147537E+01  0.72461557268E+02  0.69999983031E+02 0.  0.
        -12    1    1    2    0    0 -0.14911681170E+02 -0.93357472508E+01 -0.64160147537E+01  0.18726442732E+02  0.00000000000E+00 0.  1.
         11    1    3    3    0    0 -0.75075537034E+01  0.52939355409E-01 -0.15202933191E+02  0.16955687631E+02  0.51100000000E-03 0. -1.
        -11    1    3    3    0    0  0.28487550352E+02 -0.73697905002E+01  0.26488340486E+01  0.29544384562E+02  0.51100000000E-03 0.  1.
         12    1    3    3    0    0 -0.60683154782E+01  0.16652598396E+02  0.18970113896E+02  0.25961485075E+02  0.00000000000E+00 0. -1.
</event>
<event>
 7    1  0.2809593E-013  0.7246155E+02  0.7816164E-02  0.1226708E+00
        -11   -1    0    0    0    0  0.00000000000E+00  0.00000000000E+00  0.45593999997E+02  0.45594000000E+02  0.51100000000E-03 0.  1.
         11   -1    0    0    0    0 -0.00000000000E+00 -0.00000000000E+00 -0.45593999997E+02  0.45594000000E+02  0.51100000000E-03 0. -1.
    9900012    2    1    2    0    0  0.18089674904E+02 -0.48232287832E+01 -0.42429051385E+00  0.72461550885E+02  0.69999974715E+02 0.  0.
        -12    1    1    2    0    0 -0.18089674904E+02  0.48232287832E+01  0.42429051385E+00  0.18726449115E+02  0.00000000000E+00 0.  1.
         11    1    3    3    0    0  0.78604115639E+01 -0.88959934902E+01 -0.11694304395E+02  0.16663778853E+02  0.51100000000E-03 0. -1.
        -11    1    3    3    0    0  0.23291350095E+02 -0.15852170956E+02 -0.24916859482E+01  0.28284038120E+02  0.51100000000E-03 0.  1.
         12    1    3    3    0    0 -0.13062086754E+02  0.19924935663E+02  0.13761699829E+02  0.27513733911E+02  0.00000000000E+00 0. -1.
</event>
<event>
 7    1  0.2809593E-013  0.7246159E+02  0.7816164E-02  0.1226708E+00
        -11   -1    0    0    0    0  0.00000000000E+00  0.00000000000E+00  0.45593999997E+02  0.45594000000E+02  0.51100000000E-03 0.  1.
         11   -1    0    0    0    0 -0.00000000000E+00 -0.00000000000E+00 -0.45593999997E+02  0.45594000000E+02  0.51100000000E-03 0. -1.
    9900012    2    1    2    0    0  0.88372857956E+01  0.98224501004E+01 -0.13270271597E+02  0.72461594727E+02  0.70000031828E+02 0.  0.
        -12    1    1    2    0    0 -0.88372857956E+01 -0.98224501004E+01  0.13270271597E+02  0.18726405273E+02  0.00000000000E+00 0.  1.
         11    1    3    3    0    0  0.32775931153E+00  0.16796668331E+02  0.11733361163E+02  0.20491638725E+02  0.51100000000E-03 0. -1.
        -11    1    3    3    0    0  0.71332618624E+01 -0.57134181905E+01  0.11908148490E+02  0.15011015053E+02  0.51100000000E-03 0.  1.
        -12    1    3    3    0    0  0.13762646217E+01 -0.12608000405E+01 -0.36911781249E+02  0.36958940948E+02  0.00000000000E+00 0.  1.
</event>
<event>
 7    1  0.2809593E-013  0.7246159E+02  0.7816164E-02  0.1226708E+00
        -11   -1    0    0    0    0  0.00000000000E+00  0.00000000000E+00  0.45593999997E+02  0.45594000000E+02  0.51100000000E-03 0.  1.
         11   -1    0    0    0    0 -0.00000000000E+00 -0.00000000000E+00 -0.45593999997E+02  0.45594000000E+02  0.51100000000E-03 0. -1.
    9900012    2    1    2    0    0  0.18267934309E+02 -0.40886864392E+01 -0.49365804414E+00  0.72461588732E+02  0.70000024019E+02 0.  0.
        -12    1    1    2    0    0 -0.18267934309E+02  0.40886864392E+01  0.49365804414E+00  0.18726411268E+02  0.00000000000E+00 0.  1.
         11    1    3    3    0    0  0.88680671850E+01  0.12574849169E+02 -0.21258146938E+02  0.26242680098E+02  0.51100000000E-03 0. -1.
        -11    1    3    3    0    0  0.20078381884E+02 -0.44683996410E+00  0.17275357074E+02  0.26491112611E+02  0.51100000000E-03 0.  1.
        -12    1    3    3    0    0 -0.10678514761E+02 -0.16216695644E+02  0.34891318197E+01  0.19727796024E+02  0.00000000000E+00 0.  1.
</event>
<event>
 7    1  0.2809593E-013  0.7246153E+02  0.7816164E-02  0.1226708E+00
        -11   -1    0    0    0    0  0.00000000000E+00  0.00000000000E+00  0.45593999997E+02  0.45594000000E+02  0.51100000000E-03 0.  1.
         11   -1    0    0    0    0 -0.00000000000E+00 -0.00000000000E+00 -0.45593999997E+02  0.45594000000E+02  0.51100000000E-03 0. -1.
    9900012    2    1    2    0    0 -0.92900383016E+01  0.15970813472E+02 -0.30510322745E+01  0.72461534969E+02  0.69999953983E+02 0.  0.
        -12    1    1    2    0    0  0.92900383016E+01 -0.15970813472E+02  0.30510322745E+01  0.18726465031E+02  0.00000000000E+00 0.  1.
         11    1    3    3    0    0  0.28569191447E+01  0.82129041368E+00 -0.16145790554E+02  0.16417157422E+02  0.51100000000E-03 0. -1.
        -11    1    3    3    0    0 -0.10706081921E+02 -0.81180234454E+01  0.26096144503E+02  0.29351852633E+02  0.51100000000E-03 0.  1.
         12    1    3    3    0    0 -0.14408755252E+01  0.23267546504E+02 -0.13001386224E+02  0.26692524915E+02  0.00000000000E+00 0. -1.
</event>
<event>
 7    1  0.2809593E-013  0.7246156E+02  0.7816164E-02  0.1226708E+00
        -11   -1    0    0    0    0  0.00000000000E+00  0.00000000000E+00  0.45593999997E+02  0.45594000000E+02  0.51100000000E-03 0.  1.
         11   -1    0    0    0    0 -0.00000000000E+00 -0.00000000000E+00 -0.45593999997E+02  0.45594000000E+02  0.51100000000E-03 0. -1.
    9900012    2    1    2    0    0  0.18689343136E+02  0.14498278122E+00  0.11692599474E+01  0.72461555178E+02  0.69999980308E+02 0.  0.
        -12    1    1    2    0    0 -0.18689343136E+02 -0.14498278122E+00 -0.11692599474E+01  0.18726444822E+02  0.00000000000E+00 0.  1.
         11    1    3    3    0    0  0.24764828512E+02  0.13654913603E+02 -0.24981015995E+02  0.37733334826E+02  0.51100000000E-03 0. -1.
        -11    1    3    3    0    0  0.12875277312E+01  0.32150042676E+00 -0.20646295342E+01  0.24543401470E+01  0.51100000000E-03 0.  1.
        -12    1    3    3    0    0 -0.73630131073E+01 -0.13831431249E+02  0.28214905477E+02  0.32273880205E+02  0.00000000000E+00 0.  1.
</event>
<event>
 7    1  0.2809593E-013  0.7246158E+02  0.7816164E-02  0.1226708E+00
        -11   -1    0    0    0    0  0.00000000000E+00  0.00000000000E+00  0.45593999997E+02  0.45594000000E+02  0.51100000000E-03 0.  1.
         11   -1    0    0    0    0 -0.00000000000E+00 -0.00000000000E+00 -0.45593999997E+02  0.45594000000E+02  0.51100000000E-03 0. -1.
    9900012    2    1    2    0    0  0.43104157378E+01  0.16603777793E+02 -0.75109124074E+01  0.72461576796E+02  0.70000008470E+02 0.  0.
        -12    1    1    2    0    0 -0.43104157378E+01 -0.16603777793E+02  0.75109124074E+01  0.18726423204E+02  0.00000000000E+00 0.  1.
         11    1    3    3    0    0  0.52685934798E+01  0.10424314022E+02 -0.40484488069E+01  0.12361809661E+02  0.51100000000E-03 0. -1.
        -11    1    3    3    0    0  0.24394682826E+02  0.17521035707E+02 -0.98349751400E+01  0.31604018395E+02  0.51100000000E-03 0.  1.
        -12    1    3    3    0    0 -0.25352860568E+02 -0.11341571937E+02  0.63725115395E+01  0.28495748741E+02  0.00000000000E+00 0.  1.
</event>
<event>
 7    1  0.2809593E-013  0.7246161E+02  0.7816164E-02  0.1226708E+00
        -11   -1    0    0    0    0  0.00000000000E+00  0.00000000000E+00  0.45593999997E+02  0.45594000000E+02  0.51100000000E-03 0. -1.
         11   -1    0    0    0    0 -0.00000000000E+00 -0.00000000000E+00 -0.45593999997E+02  0.45594000000E+02  0.51100000000E-03 0.  1.
    9900012    2    1    2    0    0 -0.57899372620E+01  0.17728789457E+02  0.16864868085E+01  0.72461612552E+02  0.70000055048E+02 0.  0.
        -12    1    1    2    0    0  0.57899372620E+01 -0.17728789457E+02 -0.16864868085E+01  0.18726387448E+02  0.00000000000E+00 0.  1.
         11    1    3    3    0    0 -0.72173080829E+01 -0.49269788036E+01  0.36699720919E+01  0.94780457644E+01  0.51100000000E-03 0. -1.
        -11    1    3    3    0    0 -0.74082842784E+01 -0.18666909999E+02  0.34551195866E+01  0.20378274129E+02  0.51100000000E-03 0.  1.
         12    1    3    3    0    0  0.88356550993E+01  0.41322678260E+02 -0.54386048699E+01  0.42605292658E+02  0.00000000000E+00 0. -1.
</event>
<event>
 7    1  0.2809593E-013  0.7246161E+02  0.7816164E-02  0.1226708E+00
        -11   -1    0    0    0    0  0.00000000000E+00  0.00000000000E+00  0.45593999997E+02  0.45594000000E+02  0.51100000000E-03 0.  1.
         11   -1    0    0    0    0 -0.00000000000E+00 -0.00000000000E+00 -0.45593999997E+02  0.45594000000E+02  0.51100000000E-03 0. -1.
    9900012    2    1    2    0    0 -0.50158437117E+01 -0.15501843112E+02 -0.92310317248E+01  0.72461607536E+02  0.70000048514E+02 0.  0.
        -12    1    1    2    0    0  0.50158437117E+01  0.15501843112E+02  0.92310317248E+01  0.18726392464E+02  0.00000000000E+00 0.  1.
         11    1    3    3    0    0  0.79617747139E+01 -0.10581675413E+02 -0.25408528410E+00  0.13244858275E+02  0.51100000000E-03 0. -1.
        -11    1    3    3    0    0 -0.31041375158E+02 -0.14576003466E+02  0.46620437648E+01  0.34608691120E+02  0.51100000000E-03 0.  1.
         12    1    3    3    0    0  0.18063756732E+02  0.96558357665E+01 -0.13638990206E+02  0.24608058140E+02  0.00000000000E+00 0. -1.
</event>
<event>
 7    1  0.2809593E-013  0.7246158E+02  0.7816164E-02  0.1226708E+00
        -11   -1    0    0    0    0  0.00000000000E+00  0.00000000000E+00  0.45593999997E+02  0.45594000000E+02  0.51100000000E-03 0.  1.
         11   -1    0    0    0    0 -0.00000000000E+00 -0.00000000000E+00 -0.45593999997E+02  0.45594000000E+02  0.51100000000E-03 0. -1.
    9900012    2    1    2    0    0 -0.28219049287E+01  0.99828270472E+01 -0.15590346028E+02  0.72461578223E+02  0.70000010329E+02 0.  0.
        -12    1    1    2    0    0  0.28219049287E+01 -0.99828270472E+01  0.15590346028E+02  0.18726421777E+02  0.00000000000E+00 0.  1.
         11    1    3    3    0    0  0.51137190068E+01  0.33529977811E+02 -0.21011369566E+02  0.39898460940E+02  0.51100000000E-03 0. -1.
        -11    1    3    3    0    0 -0.80313063119E+01  0.30776582470E+00 -0.25800022868E+00  0.80413410112E+01  0.51100000000E-03 0.  1.
        -12    1    3    3    0    0  0.95682376481E-01 -0.23854916589E+02  0.56790237664E+01  0.24521776272E+02  0.00000000000E+00 0.  1.
</event>
<event>
 7    1  0.2809593E-013  0.7246159E+02  0.7816164E-02  0.1226708E+00
        -11   -1    0    0    0    0  0.00000000000E+00  0.00000000000E+00  0.45593999997E+02  0.45594000000E+02  0.51100000000E-03 0.  1.
         11   -1    0    0    0    0 -0.00000000000E+00 -0.00000000000E+00 -0.45593999997E+02  0.45594000000E+02  0.51100000000E-03 0. -1.
    9900012    2    1    2    0    0  0.37584255516E+01  0.15381028856E+02 -0.99988342353E+01  0.72461588241E+02  0.70000023379E+02 0.  0.
        -12    1    1    2    0    0 -0.37584255516E+01 -0.15381028856E+02  0.99988342353E+01  0.18726411759E+02  0.00000000000E+00 0.  1.
         11    1    3    3    0    0 -0.95011233379E+01  0.10689376118E+02 -0.35023321291E+02  0.37830769765E+02  0.51100000000E-03 0. -1.
        -11    1    3    3    0    0  0.15692908709E+01  0.92950380456E+01  0.42225692870E+01  0.10329109243E+02  0.51100000000E-03 0.  1.
        -12    1    3    3    0    0  0.11690258019E+02 -0.46033853072E+01  0.20801917769E+02  0.24301709234E+02  0.00000000000E+00 0.  1.
</event>
<event>
 7    1  0.2809593E-013  0.7246161E+02  0.7816164E-02  0.1226708E+00
        -11   -1    0    0    0    0  0.00000000000E+00  0.00000000000E+00  0.45593999997E+02  0.45594000000E+02  0.51100000000E-03 0.  1.
         11   -1    0    0    0    0 -0.00000000000E+00 -0.00000000000E+00 -0.45593999997E+02  0.45594000000E+02  0.51100000000E-03 0. -1.
    9900012    2    1    2    0    0  0.40426723253E+01 -0.69480354534E+01 -0.16913286536E+02  0.72461610662E+02  0.70000052586E+02 0.  0.
        -12    1    1    2    0    0 -0.40426723253E+01  0.69480354534E+01  0.16913286536E+02  0.18726389338E+02  0.00000000000E+00 0.  1.
         11    1    3    3    0    0 -0.17686443921E+02 -0.30631904149E+01 -0.18626211153E+00  0.17950713855E+02  0.51100000000E-03 0. -1.
        -11    1    3    3    0    0  0.45528657223E+01  0.14195157792E+02  0.10004214835E+02  0.17953144731E+02  0.51100000000E-03 0.  1.
         12    1    3    3    0    0  0.17176250524E+02 -0.18080002831E+02 -0.26731239259E+02  0.36557752075E+02  0.00000000000E+00 0. -1.
</event>
<event>
 7    1  0.2809593E-013  0.7246155E+02  0.7816164E-02  0.1226708E+00
        -11   -1    0    0    0    0  0.00000000000E+00  0.00000000000E+00  0.45593999997E+02  0.45594000000E+02  0.51100000000E-03 0.  1.
         11   -1    0    0    0    0 -0.00000000000E+00 -0.00000000000E+00 -0.45593999997E+02  0.45594000000E+02  0.51100000000E-03 0. -1.
    9900012    2    1    2    0    0 -0.62192093507E+01  0.38863373578E+01 -0.17230719348E+02  0.72461551531E+02  0.69999975557E+02 0.  0.
        -12    1    1    2    0    0  0.62192093507E+01 -0.38863373578E+01  0.17230719348E+02  0.18726448469E+02  0.00000000000E+00 0.  1.
         11    1    3    3    0    0  0.15566460318E+02  0.32161149021E+01 -0.15201625023E+02  0.21994260285E+02  0.51100000000E-03 0. -1.
        -11    1    3    3    0    0  0.13837369147E+02 -0.19475542112E+01  0.32859974993E+01  0.14354913171E+02  0.51100000000E-03 0.  1.
         12    1    3    3    0    0 -0.35623038815E+02  0.26177766669E+01 -0.53150918243E+01  0.36112378075E+02  0.00000000000E+00 0. -1.
</event>
<event>
 7    1  0.2809593E-013  0.7246155E+02  0.7816164E-02  0.1226708E+00
        -11   -1    0    0    0    0  0.00000000000E+00  0.00000000000E+00  0.45593999997E+02  0.45594000000E+02  0.51100000000E-03 0.  1.
         11   -1    0    0    0    0 -0.00000000000E+00 -0.00000000000E+00 -0.45593999997E+02  0.45594000000E+02  0.51100000000E-03 0. -1.
    9900012    2    1    2    0    0  0.16530732529E+02  0.80302910992E+01 -0.35957359953E+01  0.72461547842E+02  0.69999970751E+02 0.  0.
        -12    1    1    2    0    0 -0.16530732529E+02 -0.80302910992E+01  0.35957359953E+01  0.18726452158E+02  0.00000000000E+00 0.  1.
         11    1    3    3    0    0  0.97390299197E+01 -0.68107032082E+01 -0.22819991814E+01  0.12101318213E+02  0.51100000000E-03 0. -1.
        -11    1    3    3    0    0  0.13741610009E+02 -0.84482446147E+01 -0.22793923182E+02  0.27924319454E+02  0.51100000000E-03 0.  1.
         12    1    3    3    0    0 -0.69499073991E+01  0.23289238922E+02  0.21480186368E+02  0.32435910174E+02  0.00000000000E+00 0. -1.
</event>
<event>
 7    1  0.2809593E-013  0.7246159E+02  0.7816164E-02  0.1226708E+00
        -11   -1    0    0    0    0  0.00000000000E+00  0.00000000000E+00  0.45593999997E+02  0.45594000000E+02  0.51100000000E-03 0. -1.
         11   -1    0    0    0    0 -0.00000000000E+00 -0.00000000000E+00 -0.45593999997E+02  0.45594000000E+02  0.51100000000E-03 0.  1.
    9900012    2    1    2    0    0  0.10257461161E+02  0.15357937624E+02  0.30978607492E+01  0.72461588204E+02  0.70000023331E+02 0.  0.
        -12    1    1    2    0    0 -0.10257461161E+02 -0.15357937624E+02 -0.30978607492E+01  0.18726411796E+02  0.00000000000E+00 0.  1.
         11    1    3    3    0    0 -0.20972056256E+01  0.95531146253E+01 -0.58606724426E+01  0.11402094203E+02  0.51100000000E-03 0. -1.
        -11    1    3    3    0    0 -0.13018988599E+02 -0.10336962372E+01 -0.18763633064E+02  0.22861244893E+02  0.51100000000E-03 0.  1.
         12    1    3    3    0    0  0.25373655386E+02  0.68385192360E+01  0.27722166256E+02  0.38198249107E+02  0.00000000000E+00 0. -1.
</event>
<event>
 7    1  0.2809593E-013  0.7246170E+02  0.7816164E-02  0.1226708E+00
        -11   -1    0    0    0    0  0.00000000000E+00  0.00000000000E+00  0.45593999997E+02  0.45594000000E+02  0.51100000000E-03 0.  1.
         11   -1    0    0    0    0 -0.00000000000E+00 -0.00000000000E+00 -0.45593999997E+02  0.45594000000E+02  0.51100000000E-03 0. -1.
    9900012    2    1    2    0    0  0.26986061895E+01 -0.13695572509E+02  0.12482912745E+02  0.72461700517E+02  0.70000169639E+02 0.  0.
        -12    1    1    2    0    0 -0.26986061895E+01  0.13695572509E+02 -0.12482912745E+02  0.18726299483E+02  0.00000000000E+00 0.  1.
         11    1    3    3    0    0 -0.10911022245E+02  0.35746716212E+01 -0.61001023768E+01  0.13001535790E+02  0.51100000000E-03 0. -1.
        -11    1    3    3    0    0  0.18906203122E+02  0.14760698417E+02  0.69407789786E+01  0.24969924857E+02  0.51100000000E-03 0.  1.
         12    1    3    3    0    0 -0.52965746878E+01 -0.32030942547E+02  0.11642236144E+02  0.34490239870E+02  0.00000000000E+00 0. -1.
</event>
<event>
 7    1  0.2809593E-013  0.7246163E+02  0.7816164E-02  0.1226708E+00
        -11   -1    0    0    0    0  0.00000000000E+00  0.00000000000E+00  0.45593999997E+02  0.45594000000E+02  0.51100000000E-03 0. -1.
         11   -1    0    0    0    0 -0.00000000000E+00 -0.00000000000E+00 -0.45593999997E+02  0.45594000000E+02  0.51100000000E-03 0.  1.
    9900012    2    1    2    0    0  0.54804774289E+01 -0.16753868699E+02  0.63205335103E+01  0.72461631075E+02  0.70000079178E+02 0.  0.
        -12    1    1    2    0    0 -0.54804774289E+01  0.16753868699E+02 -0.63205335103E+01  0.18726368925E+02  0.00000000000E+00 0.  1.
         11    1    3    3    0    0 -0.16983043556E+02 -0.18625657445E+02  0.17109919967E+02  0.30464540784E+02  0.51100000000E-03 0. -1.
        -11    1    3    3    0    0 -0.68043327777E+01 -0.42141747414E+01 -0.90082236404E+01  0.12050157954E+02  0.51100000000E-03 0.  1.
         12    1    3    3    0    0  0.29267853762E+02  0.60859634873E+01 -0.17811628160E+01  0.29946932337E+02  0.00000000000E+00 0. -1.
</event>
<event>
 7    1  0.2809593E-013  0.7246157E+02  0.7816164E-02  0.1226708E+00
        -11   -1    0    0    0    0  0.00000000000E+00  0.00000000000E+00  0.45593999997E+02  0.45594000000E+02  0.51100000000E-03 0. -1.
         11   -1    0    0    0    0 -0.00000000000E+00 -0.00000000000E+00 -0.45593999997E+02  0.45594000000E+02  0.51100000000E-03 0.  1.
    9900012    2    1    2    0    0 -0.37957804184E+01  0.45335606577E+01  0.17768455682E+02  0.72461571121E+02  0.70000001077E+02 0.  0.
        -12    1    1    2    0    0  0.37957804184E+01 -0.45335606577E+01 -0.17768455682E+02  0.18726428879E+02  0.00000000000E+00 0.  1.
         11    1    3    3    0    0  0.86406792412E+01 -0.14046394235E+02  0.69336313435E+01  0.17889599565E+02  0.51100000000E-03 0. -1.
        -11    1    3    3    0    0  0.99010348458E+01  0.14261700836E+02 -0.12948956428E+02  0.21658764383E+02  0.51100000000E-03 0.  1.
         12    1    3    3    0    0 -0.22337494505E+02  0.43182540566E+01  0.23783780767E+02  0.32913207173E+02  0.00000000000E+00 0. -1.
</event>
<event>
 7    1  0.2809593E-013  0.7246161E+02  0.7816164E-02  0.1226708E+00
        -11   -1    0    0    0    0  0.00000000000E+00  0.00000000000E+00  0.45593999997E+02  0.45594000000E+02  0.51100000000E-03 0. -1.
         11   -1    0    0    0    0 -0.00000000000E+00 -0.00000000000E+00 -0.45593999997E+02  0.45594000000E+02  0.51100000000E-03 0.  1.
    9900012    2    1    2    0    0 -0.70410558845E+01 -0.77863561829E+01  0.15507215725E+02  0.72461613533E+02  0.70000056327E+02 0.  0.
        -12    1    1    2    0    0  0.70410558845E+01  0.77863561829E+01 -0.15507215725E+02  0.18726386467E+02  0.00000000000E+00 0.  1.
         11    1    3    3    0    0  0.28101948347E+02  0.94859169105E+01  0.94470099524E+01  0.31127931473E+02  0.51100000000E-03 0. -1.
        -11    1    3    3    0    0 -0.52958755663E+01 -0.30534522932E+01  0.55684694899E+01  0.82690822732E+01  0.51100000000E-03 0.  1.
        -12    1    3    3    0    0 -0.29847128665E+02 -0.14218820800E+02  0.49173628233E+00  0.33064599787E+02  0.00000000000E+00 0.  1.
</event>
<event>
 7    1  0.2809593E-013  0.7246144E+02  0.7816164E-02  0.1226708E+00
        -11   -1    0    0    0    0  0.00000000000E+00  0.00000000000E+00  0.45593999997E+02  0.45594000000E+02  0.51100000000E-03 0.  1.
         11   -1    0    0    0    0 -0.00000000000E+00 -0.00000000000E+00 -0.45593999997E+02  0.45594000000E+02  0.51100000000E-03 0. -1.
    9900012    2    1    2    0    0  0.15974006667E+02  0.68997830044E+01 -0.69215791798E+01  0.72461437239E+02  0.69999826670E+02 0.  0.
        -12    1    1    2    0    0 -0.15974006667E+02 -0.68997830044E+01  0.69215791798E+01  0.18726562761E+02  0.00000000000E+00 0.  1.
         11    1    3    3    0    0 -0.79452700380E+01  0.14968898793E+02 -0.19472667587E+02  0.25814337688E+02  0.51100000000E-03 0. -1.
        -11    1    3    3    0    0 -0.34123694931E+00  0.10654416806E+02  0.11925419092E+02  0.15995269954E+02  0.51100000000E-03 0.  1.
        -12    1    3    3    0    0  0.24260513654E+02 -0.18723532594E+02  0.62566931469E+00  0.30651829597E+02  0.00000000000E+00 0.  1.
</event>
<event>
 7    1  0.2809593E-013  0.7246160E+02  0.7816164E-02  0.1226708E+00
        -11   -1    0    0    0    0  0.00000000000E+00  0.00000000000E+00  0.45593999997E+02  0.45594000000E+02  0.51100000000E-03 0.  1.
         11   -1    0    0    0    0 -0.00000000000E+00 -0.00000000000E+00 -0.45593999997E+02  0.45594000000E+02  0.51100000000E-03 0. -1.
    9900012    2    1    2    0    0 -0.58399212455E+01  0.14714287661E+02 -0.10003156398E+02  0.72461599400E+02  0.70000037916E+02 0.  0.
        -12    1    1    2    0    0  0.58399212455E+01 -0.14714287661E+02  0.10003156398E+02  0.18726400600E+02  0.00000000000E+00 0.  1.
         11    1    3    3    0    0  0.43652840472E+01 -0.23551411745E+01 -0.23076340703E+02  0.23603387368E+02  0.51100000000E-03 0. -1.
        -11    1    3    3    0    0 -0.15008262971E+02 -0.95221889216E+01 -0.20503757622E+01  0.17892011634E+02  0.51100000000E-03 0.  1.
        -12    1    3    3    0    0  0.48030576786E+01  0.26591617757E+02  0.15123560067E+02  0.30966200398E+02  0.00000000000E+00 0.  1.
</event>
<event>
 7    1  0.2809593E-013  0.7246160E+02  0.7816164E-02  0.1226708E+00
        -11   -1    0    0    0    0  0.00000000000E+00  0.00000000000E+00  0.45593999997E+02  0.45594000000E+02  0.51100000000E-03 0. -1.
         11   -1    0    0    0    0 -0.00000000000E+00 -0.00000000000E+00 -0.45593999997E+02  0.45594000000E+02  0.51100000000E-03 0.  1.
    9900012    2    1    2    0    0  0.16458675285E+02  0.18426604961E+01  0.87403957273E+01  0.72461603995E+02  0.70000043902E+02 0.  0.
        -12    1    1    2    0    0 -0.16458675285E+02 -0.18426604961E+01 -0.87403957273E+01  0.18726396005E+02  0.00000000000E+00 0.  1.
         11    1    3    3    0    0  0.77357167947E+01 -0.62148117224E+01 -0.19790625840E+01  0.10118393551E+02  0.51100000000E-03 0. -1.
        -11    1    3    3    0    0 -0.75495758603E+01 -0.10288191436E+02 -0.19575162785E+02  0.23367284331E+02  0.51100000000E-03 0.  1.
         12    1    3    3    0    0  0.16272534351E+02  0.18345663654E+02  0.30294621096E+02  0.38975926114E+02  0.00000000000E+00 0. -1.
</event>
<event>
 7    1  0.2809593E-013  0.7246153E+02  0.7816164E-02  0.1226708E+00
        -11   -1    0    0    0    0  0.00000000000E+00  0.00000000000E+00  0.45593999997E+02  0.45594000000E+02  0.51100000000E-03 0.  1.
         11   -1    0    0    0    0 -0.00000000000E+00 -0.00000000000E+00 -0.45593999997E+02  0.45594000000E+02  0.51100000000E-03 0. -1.
    9900012    2    1    2    0    0 -0.71576006555E+01 -0.14266059321E+02 -0.97943346646E+01  0.72461529772E+02  0.69999947212E+02 0.  0.
        -12    1    1    2    0    0  0.71576006555E+01  0.14266059321E+02  0.97943346646E+01  0.18726470228E+02  0.00000000000E+00 0.  1.
         11    1    3    3    0    0 -0.37426776357E-01 -0.13847493519E+02  0.48829880170E+01  0.14683257464E+02  0.51100000000E-03 0. -1.
        -11    1    3    3    0    0  0.10491678825E+02  0.74363947348E+01  0.16621585432E+02  0.21015527445E+02  0.51100000000E-03 0.  1.
         12    1    3    3    0    0 -0.17611852704E+02 -0.78549605365E+01 -0.31298908114E+02  0.36762744863E+02  0.00000000000E+00 0. -1.
</event>
<event>
 7    1  0.2809593E-013  0.7246142E+02  0.7816164E-02  0.1226708E+00
        -11   -1    0    0    0    0  0.00000000000E+00  0.00000000000E+00  0.45593999997E+02  0.45594000000E+02  0.51100000000E-03 0. -1.
         11   -1    0    0    0    0 -0.00000000000E+00 -0.00000000000E+00 -0.45593999997E+02  0.45594000000E+02  0.51100000000E-03 0.  1.
    9900012    2    1    2    0    0  0.16050087439E+02 -0.65866352281E+00  0.96252599536E+01  0.72461420664E+02  0.69999805079E+02 0.  0.
        -12    1    1    2    0    0 -0.16050087439E+02  0.65866352281E+00 -0.96252599536E+01  0.18726579336E+02  0.00000000000E+00 0.  1.
         11    1    3    3    0    0  0.17160252719E+02 -0.10439640274E+02  0.48837874262E+01  0.20671520078E+02  0.51100000000E-03 0. -1.
        -11    1    3    3    0    0  0.18146077339E+02 -0.95373073576E+01  0.11748805628E+02  0.23627839265E+02  0.51100000000E-03 0.  1.
        -12    1    3    3    0    0 -0.19256242618E+02  0.19318284109E+02 -0.70073331005E+01  0.28162061321E+02  0.00000000000E+00 0.  1.
</event>
<event>
 7    1  0.2809593E-013  0.7246157E+02  0.7816164E-02  0.1226708E+00
        -11   -1    0    0    0    0  0.00000000000E+00  0.00000000000E+00  0.45593999997E+02  0.45594000000E+02  0.51100000000E-03 0. -1.
         11   -1    0    0    0    0 -0.00000000000E+00 -0.00000000000E+00 -0.45593999997E+02  0.45594000000E+02  0.51100000000E-03 0.  1.
    9900012    2    1    2    0    0 -0.94470407155E+01  0.72615841049E+01  0.14446516530E+02  0.72461574237E+02  0.70000005136E+02 0.  0.
        -12    1    1    2    0    0  0.94470407155E+01 -0.72615841049E+01 -0.14446516530E+02  0.18726425763E+02  0.00000000000E+00 0.  1.
         11    1    3    3    0    0  0.56590262892E+01  0.22738421463E+02  0.30519351846E+01  0.23629953402E+02  0.51100000000E-03 0. -1.
        -11    1    3    3    0    0  0.15477280042E+01  0.13503897461E+02  0.64422520264E+01  0.15041719318E+02  0.51100000000E-03 0.  1.
         12    1    3    3    0    0 -0.16653795009E+02 -0.28980734819E+02  0.49523293192E+01  0.33789901517E+02  0.00000000000E+00 0. -1.
</event>
<event>
 7    1  0.2809593E-013  0.7246165E+02  0.7816164E-02  0.1226708E+00
        -11   -1    0    0    0    0  0.00000000000E+00  0.00000000000E+00  0.45593999997E+02  0.45594000000E+02  0.51100000000E-03 0.  1.
         11   -1    0    0    0    0 -0.00000000000E+00 -0.00000000000E+00 -0.45593999997E+02  0.45594000000E+02  0.51100000000E-03 0. -1.
    9900012    2    1    2    0    0  0.49967519733E+01  0.16654808140E+02 -0.69517026918E+01  0.72461645983E+02  0.70000098598E+02 0.  0.
        -12    1    1    2    0    0 -0.49967519733E+01 -0.16654808140E+02  0.69517026918E+01  0.18726354017E+02  0.00000000000E+00 0.  1.
         11    1    3    3    0    0  0.82486906872E+01  0.11926567416E+02  0.75890331824E+01  0.16366958584E+02  0.51100000000E-03 0. -1.
        -11    1    3    3    0    0  0.15426555497E+02  0.18688687416E+02 -0.20815919906E+02  0.31946019684E+02  0.51100000000E-03 0.  1.
        -12    1    3    3    0    0 -0.18678494211E+02 -0.13960446692E+02  0.62751840314E+01  0.24148667716E+02  0.00000000000E+00 0.  1.
</event>
<event>
 7    1  0.2809593E-013  0.7246163E+02  0.7816164E-02  0.1226708E+00
        -11   -1    0    0    0    0  0.00000000000E+00  0.00000000000E+00  0.45593999997E+02  0.45594000000E+02  0.51100000000E-03 0. -1.
         11   -1    0    0    0    0 -0.00000000000E+00 -0.00000000000E+00 -0.45593999997E+02  0.45594000000E+02  0.51100000000E-03 0.  1.
    9900012    2    1    2    0    0  0.11874084771E+02  0.12140197837E+02 -0.78929401110E+01  0.72461633661E+02  0.70000082547E+02 0.  0.
        -12    1    1    2    0    0 -0.11874084771E+02 -0.12140197837E+02  0.78929401110E+01  0.18726366339E+02  0.00000000000E+00 0.  1.
         11    1    3    3    0    0 -0.88229955544E+01  0.15162077891E+02 -0.15628799966E+02  0.23494536496E+02  0.51100000000E-03 0. -1.
        -11    1    3    3    0    0  0.55142147502E+01 -0.17340452547E+02 -0.10710047277E+02  0.21114046789E+02  0.51100000000E-03 0.  1.
         12    1    3    3    0    0  0.15182865575E+02  0.14318572493E+02  0.18445907132E+02  0.27853050376E+02  0.00000000000E+00 0. -1.
</event>
<event>
 7    1  0.2809593E-013  0.7246146E+02  0.7816164E-02  0.1226708E+00
        -11   -1    0    0    0    0  0.00000000000E+00  0.00000000000E+00  0.45593999997E+02  0.45594000000E+02  0.51100000000E-03 0.  1.
         11   -1    0    0    0    0 -0.00000000000E+00 -0.00000000000E+00 -0.45593999997E+02  0.45594000000E+02  0.51100000000E-03 0. -1.
    9900012    2    1    2    0    0  0.12606080524E+02  0.12354044696E+02 -0.62567931217E+01  0.72461464103E+02  0.69999861666E+02 0.  0.
        -12    1    1    2    0    0 -0.12606080524E+02 -0.12354044696E+02  0.62567931217E+01  0.18726535897E+02  0.00000000000E+00 0.  1.
         11    1    3    3    0    0  0.14361242796E+02  0.14393450344E+02 -0.60024796197E+01  0.21200152578E+02  0.51100000000E-03 0. -1.
        -11    1    3    3    0    0  0.62376662256E+01  0.35815143487E+01 -0.24280844172E+02  0.25323805380E+02  0.51100000000E-03 0.  1.
        -12    1    3    3    0    0 -0.79928284984E+01 -0.56209199967E+01  0.24026530670E+02  0.25937506145E+02  0.00000000000E+00 0.  1.
</event>
<event>
 7    1  0.2809593E-013  0.7246159E+02  0.7816164E-02  0.1226708E+00
        -11   -1    0    0    0    0  0.00000000000E+00  0.00000000000E+00  0.45593999997E+02  0.45594000000E+02  0.51100000000E-03 0. -1.
         11   -1    0    0    0    0 -0.00000000000E+00 -0.00000000000E+00 -0.45593999997E+02  0.45594000000E+02  0.51100000000E-03 0.  1.
    9900012    2    1    2    0    0  0.61457148029E+01  0.13387644279E+02 -0.11561997207E+02  0.72461585255E+02  0.70000019490E+02 0.  0.
        -12    1    1    2    0    0 -0.61457148029E+01 -0.13387644279E+02  0.11561997207E+02  0.18726414745E+02  0.00000000000E+00 0.  1.
         11    1    3    3    0    0  0.33268686158E+01  0.64013785503E+01  0.30192865393E+01  0.78206005906E+01  0.51100000000E-03 0. -1.
        -11    1    3    3    0    0 -0.24611745131E+02  0.20065622089E+02 -0.22149754547E+01  0.31831954146E+02  0.51100000000E-03 0.  1.
        -12    1    3    3    0    0  0.27430591318E+02 -0.13079356361E+02 -0.12366308291E+02  0.32809030519E+02  0.00000000000E+00 0.  1.
</event>
<event>
 7    1  0.2809593E-013  0.7246152E+02  0.7816164E-02  0.1226708E+00
        -11   -1    0    0    0    0  0.00000000000E+00  0.00000000000E+00  0.45593999997E+02  0.45594000000E+02  0.51100000000E-03 0. -1.
         11   -1    0    0    0    0 -0.00000000000E+00 -0.00000000000E+00 -0.45593999997E+02  0.45594000000E+02  0.51100000000E-03 0.  1.
    9900012    2    1    2    0    0 -0.18724951155E+02  0.19926204691E+00  0.13185989201E+00  0.72461524407E+02  0.69999940223E+02 0.  0.
        -12    1    1    2    0    0  0.18724951155E+02 -0.19926204691E+00 -0.13185989201E+00  0.18726475593E+02  0.00000000000E+00 0.  1.
         11    1    3    3    0    0  0.10602558996E+02  0.98701095888E+01  0.17860142872E+02  0.22996043665E+02  0.51100000000E-03 0. -1.
        -11    1    3    3    0    0 -0.37112204431E+01 -0.12291441854E+02  0.62500770912E+01  0.14279921706E+02  0.51100000000E-03 0.  1.
         12    1    3    3    0    0 -0.25616289708E+02  0.26205943122E+01 -0.23978360071E+02  0.35185559036E+02  0.00000000000E+00 0. -1.
</event>
<event>
 7    1  0.2809593E-013  0.7246152E+02  0.7816164E-02  0.1226708E+00
        -11   -1    0    0    0    0  0.00000000000E+00  0.00000000000E+00  0.45593999997E+02  0.45594000000E+02  0.51100000000E-03 0. -1.
         11   -1    0    0    0    0 -0.00000000000E+00 -0.00000000000E+00 -0.45593999997E+02  0.45594000000E+02  0.51100000000E-03 0.  1.
    9900012    2    1    2    0    0 -0.10075517989E+02  0.12635052068E+02  0.94615323508E+01  0.72461516135E+02  0.69999929448E+02 0.  0.
        -12    1    1    2    0    0  0.10075517989E+02 -0.12635052068E+02 -0.94615323508E+01  0.18726483865E+02  0.00000000000E+00 0.  1.
         11    1    3    3    0    0  0.99979537724E+01  0.21666163019E+02  0.22901461713E+02  0.33073533958E+02  0.51100000000E-03 0. -1.
        -11    1    3    3    0    0  0.66499194978E+01 -0.41689131376E+01  0.20600684617E+01  0.81145023510E+01  0.51100000000E-03 0.  1.
         12    1    3    3    0    0 -0.26723391259E+02 -0.48621978133E+01 -0.15499997824E+02  0.31273479827E+02  0.00000000000E+00 0. -1.
</event>
<event>
 7    1  0.2809593E-013  0.7246160E+02  0.7816164E-02  0.1226708E+00
        -11   -1    0    0    0    0  0.00000000000E+00  0.00000000000E+00  0.45593999997E+02  0.45594000000E+02  0.51100000000E-03 0.  1.
         11   -1    0    0    0    0 -0.00000000000E+00 -0.00000000000E+00 -0.45593999997E+02  0.45594000000E+02  0.51100000000E-03 0. -1.
    9900012    2    1    2    0    0  0.68500125473E+01  0.36291966168E+01 -0.17046536364E+02  0.72461597730E+02  0.70000035740E+02 0.  0.
        -12    1    1    2    0    0 -0.68500125473E+01 -0.36291966168E+01  0.17046536364E+02  0.18726402270E+02  0.00000000000E+00 0.  1.
         11    1    3    3    0    0 -0.92592466355E+01  0.14563494668E+01 -0.30966789016E+02  0.32354236573E+02  0.51100000000E-03 0. -1.
        -11    1    3    3    0    0  0.76672390346E+01  0.29987662074E+01 -0.11024814796E+02  0.13759567389E+02  0.51100000000E-03 0.  1.
        -12    1    3    3    0    0  0.84420201481E+01 -0.82591905736E+00  0.24945067448E+02  0.26347793768E+02  0.00000000000E+00 0.  1.
</event>
<event>
 7    1  0.2809593E-013  0.7246158E+02  0.7816164E-02  0.1226708E+00
        -11   -1    0    0    0    0  0.00000000000E+00  0.00000000000E+00  0.45593999997E+02  0.45594000000E+02  0.51100000000E-03 0.  1.
         11   -1    0    0    0    0 -0.00000000000E+00 -0.00000000000E+00 -0.45593999997E+02  0.45594000000E+02  0.51100000000E-03 0. -1.
    9900012    2    1    2    0    0  0.93996084020E+01  0.14107152698E+02 -0.79570266853E+01  0.72461583658E+02  0.70000017408E+02 0.  0.
        -12    1    1    2    0    0 -0.93996084020E+01 -0.14107152698E+02  0.79570266853E+01  0.18726416342E+02  0.00000000000E+00 0.  1.
         11    1    3    3    0    0  0.71156872251E+01  0.21754342433E+01 -0.10877771939E+02  0.13179204887E+02  0.51100000000E-03 0. -1.
        -11    1    3    3    0    0  0.15707719633E+02  0.11796970911E+02  0.25997568849E+02  0.32584882462E+02  0.51100000000E-03 0.  1.
         12    1    3    3    0    0 -0.13423798456E+02  0.13474754392E+00 -0.23076823596E+02  0.26697496309E+02  0.00000000000E+00 0. -1.
</event>
<event>
 7    1  0.2809593E-013  0.7246158E+02  0.7816164E-02  0.1226708E+00
        -11   -1    0    0    0    0  0.00000000000E+00  0.00000000000E+00  0.45593999997E+02  0.45594000000E+02  0.51100000000E-03 0.  1.
         11   -1    0    0    0    0 -0.00000000000E+00 -0.00000000000E+00 -0.45593999997E+02  0.45594000000E+02  0.51100000000E-03 0. -1.
    9900012    2    1    2    0    0 -0.12547860606E+02 -0.10859183513E+02 -0.86780340279E+01  0.72461576237E+02  0.70000007741E+02 0.  0.
        -12    1    1    2    0    0  0.12547860606E+02  0.10859183513E+02  0.86780340279E+01  0.18726423763E+02  0.00000000000E+00 0.  1.
         11    1    3    3    0    0 -0.10620521797E+02  0.15500880080E+02 -0.36667566170E+01  0.19144656457E+02  0.51100000000E-03 0. -1.
        -11    1    3    3    0    0 -0.81982704979E+01  0.96060811192E+01  0.75428936565E+01  0.14709985676E+02  0.51100000000E-03 0.  1.
         12    1    3    3    0    0  0.62709316882E+01 -0.35966144712E+02 -0.12554171067E+02  0.38606934104E+02  0.00000000000E+00 0. -1.
</event>
<event>
 7    1  0.2809593E-013  0.7246160E+02  0.7816164E-02  0.1226708E+00
        -11   -1    0    0    0    0  0.00000000000E+00  0.00000000000E+00  0.45593999997E+02  0.45594000000E+02  0.51100000000E-03 0.  1.
         11   -1    0    0    0    0 -0.00000000000E+00 -0.00000000000E+00 -0.45593999997E+02  0.45594000000E+02  0.51100000000E-03 0. -1.
    9900012    2    1    2    0    0  0.46663546608E+01  0.69326829308E+01 -0.16758316165E+02  0.72461598340E+02  0.70000036535E+02 0.  0.
        -12    1    1    2    0    0 -0.46663546608E+01 -0.69326829308E+01  0.16758316165E+02  0.18726401660E+02  0.00000000000E+00 0.  1.
         11    1    3    3    0    0  0.93759278274E+01 -0.13217006208E+02 -0.31242060078E+02  0.35194652917E+02  0.51100000000E-03 0. -1.
        -11    1    3    3    0    0  0.10275653355E+02  0.11981787410E+02  0.15646212605E+01  0.15861914177E+02  0.51100000000E-03 0.  1.
        -12    1    3    3    0    0 -0.14985226521E+02  0.81679017281E+01  0.12919122653E+02  0.21405031246E+02  0.00000000000E+00 0.  1.
</event>
<event>
 7    1  0.2809593E-013  0.7246149E+02  0.7816164E-02  0.1226708E+00
        -11   -1    0    0    0    0  0.00000000000E+00  0.00000000000E+00  0.45593999997E+02  0.45594000000E+02  0.51100000000E-03 0.  1.
         11   -1    0    0    0    0 -0.00000000000E+00 -0.00000000000E+00 -0.45593999997E+02  0.45594000000E+02  0.51100000000E-03 0. -1.
    9900012    2    1    2    0    0 -0.11663046422E+02  0.13986649321E+02  0.43622513025E+01  0.72461488112E+02  0.69999892942E+02 0.  0.
        -12    1    1    2    0    0  0.11663046422E+02 -0.13986649321E+02 -0.43622513025E+01  0.18726511888E+02  0.00000000000E+00 0.  1.
         11    1    3    3    0    0  0.10985043540E+02  0.51882957293E+01 -0.12542256706E+01  0.12213217285E+02  0.51100000000E-03 0. -1.
        -11    1    3    3    0    0  0.25516525916E+01  0.27324658443E+02  0.87747299989E+01  0.28812215757E+02  0.51100000000E-03 0.  1.
         12    1    3    3    0    0 -0.25199742553E+02 -0.18526304852E+02 -0.31582530258E+01  0.31436055070E+02  0.00000000000E+00 0. -1.
</event>
<event>
 7    1  0.2809593E-013  0.7246165E+02  0.7816164E-02  0.1226708E+00
        -11   -1    0    0    0    0  0.00000000000E+00  0.00000000000E+00  0.45593999997E+02  0.45594000000E+02  0.51100000000E-03 0.  1.
         11   -1    0    0    0    0 -0.00000000000E+00 -0.00000000000E+00 -0.45593999997E+02  0.45594000000E+02  0.51100000000E-03 0. -1.
    9900012    2    1    2    0    0  0.41207807896E+00  0.25782134123E+01 -0.18543437873E+02  0.72461652762E+02  0.70000107430E+02 0.  0.
        -12    1    1    2    0    0 -0.41207807896E+00 -0.25782134123E+01  0.18543437873E+02  0.18726347238E+02  0.00000000000E+00 0.  1.
         11    1    3    3    0    0  0.28440691670E+02  0.22853485442E+01 -0.10107256972E+02  0.30269661452E+02  0.51100000000E-03 0. -1.
        -11    1    3    3    0    0 -0.36817175625E+01 -0.31747572812E+00 -0.16210762162E+02  0.16626624588E+02  0.51100000000E-03 0.  1.
        -12    1    3    3    0    0 -0.24346896029E+02  0.61034059615E+00  0.77745812615E+01  0.25565366723E+02  0.00000000000E+00 0.  1.
</event>
<event>
 7    1  0.2809593E-013  0.7246185E+02  0.7816164E-02  0.1226707E+00
        -11   -1    0    0    0    0  0.00000000000E+00  0.00000000000E+00  0.45593999997E+02  0.45594000000E+02  0.51100000000E-03 0. -1.
         11   -1    0    0    0    0 -0.00000000000E+00 -0.00000000000E+00 -0.45593999997E+02  0.45594000000E+02  0.51100000000E-03 0.  1.
    9900012    2    1    2    0    0  0.11093838977E+02  0.21475591486E+01  0.14932624329E+02  0.72461854030E+02  0.70000369618E+02 0.  0.
        -12    1    1    2    0    0 -0.11093838977E+02 -0.21475591486E+01 -0.14932624329E+02  0.18726145970E+02  0.00000000000E+00 0.  1.
         11    1    3    3    0    0  0.30717600307E+02 -0.11794634418E+02  0.66065524228E+01  0.33560853757E+02  0.51100000000E-03 0. -1.
        -11    1    3    3    0    0  0.54382168981E+01  0.38945446942E+01 -0.54136223458E+01  0.86051721987E+01  0.51100000000E-03 0.  1.
        -12    1    3    3    0    0 -0.25061978229E+02  0.10047648873E+02  0.13739694252E+02  0.30295828075E+02  0.00000000000E+00 0.  1.
</event>
<event>
 7    1  0.2809593E-013  0.7246158E+02  0.7816164E-02  0.1226708E+00
        -11   -1    0    0    0    0  0.00000000000E+00  0.00000000000E+00  0.45593999997E+02  0.45594000000E+02  0.51100000000E-03 0.  1.
         11   -1    0    0    0    0 -0.00000000000E+00 -0.00000000000E+00 -0.45593999997E+02  0.45594000000E+02  0.51100000000E-03 0. -1.
    9900012    2    1    2    0    0  0.71326918342E+01  0.15817320651E+02 -0.70438669037E+01  0.72461575186E+02  0.70000006372E+02 0.  0.
        -12    1    1    2    0    0 -0.71326918342E+01 -0.15817320651E+02  0.70438669037E+01  0.18726424814E+02  0.00000000000E+00 0.  1.
         11    1    3    3    0    0 -0.49498849721E+01  0.75827845555E+01 -0.12611753138E+02  0.15525987902E+02  0.51100000000E-03 0. -1.
        -11    1    3    3    0    0 -0.10411403329E+01 -0.83553289456E+01  0.26119318635E+02  0.27442928073E+02  0.51100000000E-03 0.  1.
         12    1    3    3    0    0  0.13123717139E+02  0.16589865041E+02 -0.20551432401E+02  0.29492659211E+02  0.00000000000E+00 0. -1.
</event>
<event>
 7    1  0.2809593E-013  0.7246155E+02  0.7816164E-02  0.1226708E+00
        -11   -1    0    0    0    0  0.00000000000E+00  0.00000000000E+00  0.45593999997E+02  0.45594000000E+02  0.51100000000E-03 0.  1.
         11   -1    0    0    0    0 -0.00000000000E+00 -0.00000000000E+00 -0.45593999997E+02  0.45594000000E+02  0.51100000000E-03 0. -1.
    9900012    2    1    2    0    0  0.72215751841E+01  0.15689394343E+02 -0.72368222620E+01  0.72461552407E+02  0.69999976698E+02 0.  0.
        -12    1    1    2    0    0 -0.72215751841E+01 -0.15689394343E+02  0.72368222620E+01  0.18726447593E+02  0.00000000000E+00 0.  1.
         11    1    3    3    0    0 -0.41466398441E+00 -0.10886316009E+02  0.11231865831E+01  0.10951957397E+02  0.51100000000E-03 0. -1.
        -11    1    3    3    0    0 -0.23582192788E+01  0.23008944928E+02  0.20408643347E+02  0.30846158082E+02  0.51100000000E-03 0.  1.
         12    1    3    3    0    0  0.99944584473E+01  0.35667654241E+01 -0.28768652193E+02  0.30663436928E+02  0.00000000000E+00 0. -1.
</event>
<event>
 7    1  0.2809593E-013  0.7246156E+02  0.7816164E-02  0.1226708E+00
        -11   -1    0    0    0    0  0.00000000000E+00  0.00000000000E+00  0.45593999997E+02  0.45594000000E+02  0.51100000000E-03 0. -1.
         11   -1    0    0    0    0 -0.00000000000E+00 -0.00000000000E+00 -0.45593999997E+02  0.45594000000E+02  0.51100000000E-03 0.  1.
    9900012    2    1    2    0    0  0.67036308437E+00 -0.47643433013E+01  0.18097821123E+02  0.72461561920E+02  0.69999989092E+02 0.  0.
        -12    1    1    2    0    0 -0.67036308437E+00  0.47643433013E+01 -0.18097821123E+02  0.18726438080E+02  0.00000000000E+00 0.  1.
         11    1    3    3    0    0 -0.23540197450E+02  0.45365195579E+00  0.68416929211E+01  0.24518471778E+02  0.51100000000E-03 0. -1.
        -11    1    3    3    0    0 -0.11049176272E+01 -0.77114306748E+01 -0.11447652991E+02  0.13846868428E+02  0.51100000000E-03 0.  1.
         12    1    3    3    0    0  0.25315478161E+02  0.24934354177E+01  0.22703781192E+02  0.34096221714E+02  0.00000000000E+00 0. -1.
</event>
<event>
 7    1  0.2809593E-013  0.7246161E+02  0.7816164E-02  0.1226708E+00
        -11   -1    0    0    0    0  0.00000000000E+00  0.00000000000E+00  0.45593999997E+02  0.45594000000E+02  0.51100000000E-03 0. -1.
         11   -1    0    0    0    0 -0.00000000000E+00 -0.00000000000E+00 -0.45593999997E+02  0.45594000000E+02  0.51100000000E-03 0.  1.
    9900012    2    1    2    0    0  0.12345074095E+02 -0.73293633168E+01 -0.12023191489E+02  0.72461613412E+02  0.70000056169E+02 0.  0.
        -12    1    1    2    0    0 -0.12345074095E+02  0.73293633168E+01  0.12023191489E+02  0.18726386588E+02  0.00000000000E+00 0.  1.
         11    1    3    3    0    0 -0.29903713641E+01 -0.26315014104E+01  0.38398287466E+01  0.55327575071E+01  0.51100000000E-03 0. -1.
        -11    1    3    3    0    0 -0.12806403267E+01 -0.32467492095E+02 -0.10350732134E+02  0.34101550384E+02  0.51100000000E-03 0.  1.
         12    1    3    3    0    0  0.16616085786E+02  0.27769630189E+02 -0.55122881023E+01  0.32827305521E+02  0.00000000000E+00 0. -1.
</event>
<event>
 7    1  0.2809593E-013  0.7246152E+02  0.7816164E-02  0.1226708E+00
        -11   -1    0    0    0    0  0.00000000000E+00  0.00000000000E+00  0.45593999997E+02  0.45594000000E+02  0.51100000000E-03 0.  1.
         11   -1    0    0    0    0 -0.00000000000E+00 -0.00000000000E+00 -0.45593999997E+02  0.45594000000E+02  0.51100000000E-03 0. -1.
    9900012    2    1    2    0    0  0.84071420029E+01 -0.11325511194E+02 -0.12318026545E+02  0.72461520928E+02  0.69999935691E+02 0.  0.
        -12    1    1    2    0    0 -0.84071420029E+01  0.11325511194E+02  0.12318026545E+02  0.18726479072E+02  0.00000000000E+00 0.  1.
         11    1    3    3    0    0 -0.16941834745E+02 -0.22208491439E+02  0.14491561161E+02  0.31468209381E+02  0.51100000000E-03 0. -1.
        -11    1    3    3    0    0 -0.50246696939E+00 -0.18629994187E+01 -0.56117669125E+00  0.20095172130E+01  0.51100000000E-03 0.  1.
         12    1    3    3    0    0  0.25851443718E+02  0.12745979663E+02 -0.26248411015E+02  0.38983794334E+02  0.00000000000E+00 0. -1.
</event>
<event>
 7    1  0.2809593E-013  0.7246136E+02  0.7816164E-02  0.1226709E+00
        -11   -1    0    0    0    0  0.00000000000E+00  0.00000000000E+00  0.45593999997E+02  0.45594000000E+02  0.51100000000E-03 0.  1.
         11   -1    0    0    0    0 -0.00000000000E+00 -0.00000000000E+00 -0.45593999997E+02  0.45594000000E+02  0.51100000000E-03 0. -1.
    9900012    2    1    2    0    0  0.14577274116E+02  0.53174458957E+01 -0.10484036394E+02  0.72461356664E+02  0.69999721707E+02 0.  0.
        -12    1    1    2    0    0 -0.14577274116E+02 -0.53174458957E+01  0.10484036394E+02  0.18726643336E+02  0.00000000000E+00 0.  1.
         11    1    3    3    0    0  0.22236618996E+02 -0.95025242848E+01 -0.49373018694E+01  0.24680805136E+02  0.51100000000E-03 0. -1.
        -11    1    3    3    0    0  0.17155619590E+02 -0.15638273516E+01 -0.53700303318E+01  0.18044336107E+02  0.51100000000E-03 0.  1.
        -12    1    3    3    0    0 -0.24814964470E+02  0.16383797532E+02 -0.17670419235E+00  0.29736215421E+02  0.00000000000E+00 0.  1.
</event>
<event>
 7    1  0.2809593E-013  0.7246158E+02  0.7816164E-02  0.1226708E+00
        -11   -1    0    0    0    0  0.00000000000E+00  0.00000000000E+00  0.45593999997E+02  0.45594000000E+02  0.51100000000E-03 0.  1.
         11   -1    0    0    0    0 -0.00000000000E+00 -0.00000000000E+00 -0.45593999997E+02  0.45594000000E+02  0.51100000000E-03 0. -1.
    9900012    2    1    2    0    0 -0.56740254095E+01  0.15635936887E+02  0.86024289288E+01  0.72461578287E+02  0.70000010412E+02 0.  0.
        -12    1    1    2    0    0  0.56740254095E+01 -0.15635936887E+02 -0.86024289288E+01  0.18726421713E+02  0.00000000000E+00 0.  1.
         11    1    3    3    0    0 -0.38528953762E+01 -0.26186662108E+01  0.56091115606E+01  0.72913886376E+01  0.51100000000E-03 0. -1.
        -11    1    3    3    0    0  0.14396347056E+02  0.15997236393E+02  0.27978235059E+02  0.35297988867E+02  0.51100000000E-03 0.  1.
         12    1    3    3    0    0 -0.16217477089E+02  0.22573667050E+01 -0.24984917691E+02  0.29872200783E+02  0.00000000000E+00 0. -1.
</event>
<event>
 7    1  0.2809593E-013  0.7246159E+02  0.7816164E-02  0.1226708E+00
        -11   -1    0    0    0    0  0.00000000000E+00  0.00000000000E+00  0.45593999997E+02  0.45594000000E+02  0.51100000000E-03 0.  1.
         11   -1    0    0    0    0 -0.00000000000E+00 -0.00000000000E+00 -0.45593999997E+02  0.45594000000E+02  0.51100000000E-03 0. -1.
    9900012    2    1    2    0    0 -0.16765475636E+01  0.15988252809E+02 -0.96043346054E+01  0.72461593969E+02  0.70000030841E+02 0.  0.
        -12    1    1    2    0    0  0.16765475636E+01 -0.15988252809E+02  0.96043346054E+01  0.18726406031E+02  0.00000000000E+00 0.  1.
         11    1    3    3    0    0 -0.16159696680E+02  0.81050428661E+01 -0.52410153154E+01  0.18822745773E+02  0.51100000000E-03 0. -1.
        -11    1    3    3    0    0 -0.18519346633E+02  0.28333377297E+01 -0.73365347852E+01  0.20120107984E+02  0.51100000000E-03 0.  1.
        -12    1    3    3    0    0  0.33002495749E+02  0.50498722130E+01  0.29732154952E+01  0.33518740212E+02  0.00000000000E+00 0.  1.
</event>
<event>
 7    1  0.2809593E-013  0.7246155E+02  0.7816164E-02  0.1226708E+00
        -11   -1    0    0    0    0  0.00000000000E+00  0.00000000000E+00  0.45593999997E+02  0.45594000000E+02  0.51100000000E-03 0.  1.
         11   -1    0    0    0    0 -0.00000000000E+00 -0.00000000000E+00 -0.45593999997E+02  0.45594000000E+02  0.51100000000E-03 0. -1.
    9900012    2    1    2    0    0 -0.68825043669E+01  0.13689417885E+02 -0.10766200571E+02  0.72461545367E+02  0.69999967527E+02 0.  0.
        -12    1    1    2    0    0  0.68825043669E+01 -0.13689417885E+02  0.10766200571E+02  0.18726454633E+02  0.00000000000E+00 0.  1.
         11    1    3    3    0    0 -0.64312400110E+01  0.22302950291E+01 -0.71109202178E+01  0.98437924907E+01  0.51100000000E-03 0. -1.
        -11    1    3    3    0    0  0.41595185095E+01 -0.23576076809E+02  0.82609066283E+01  0.25325393788E+02  0.51100000000E-03 0.  1.
         12    1    3    3    0    0 -0.46107828654E+01  0.35035199665E+02 -0.11916186982E+02  0.37292359088E+02  0.00000000000E+00 0. -1.
</event>
<event>
 7    1  0.2809593E-013  0.7246159E+02  0.7816164E-02  0.1226708E+00
        -11   -1    0    0    0    0  0.00000000000E+00  0.00000000000E+00  0.45593999997E+02  0.45594000000E+02  0.51100000000E-03 0. -1.
         11   -1    0    0    0    0 -0.00000000000E+00 -0.00000000000E+00 -0.45593999997E+02  0.45594000000E+02  0.51100000000E-03 0.  1.
    9900012    2    1    2    0    0 -0.71162039645E+01 -0.28536868322E+00  0.17319252261E+02  0.72461593697E+02  0.70000030487E+02 0.  0.
        -12    1    1    2    0    0  0.71162039645E+01  0.28536868322E+00 -0.17319252261E+02  0.18726406303E+02  0.00000000000E+00 0.  1.
         11    1    3    3    0    0 -0.94544223495E+01  0.54327977825E+01 -0.86288017569E+01  0.13905308833E+02  0.51100000000E-03 0. -1.
        -11    1    3    3    0    0  0.19788904205E+02  0.28134843830E+01 -0.62590189646E+01  0.20944969388E+02  0.51100000000E-03 0.  1.
        -12    1    3    3    0    0 -0.17450685820E+02 -0.85316508487E+01  0.32207072982E+02  0.37611315476E+02  0.00000000000E+00 0.  1.
</event>
<event>
 7    1  0.2809593E-013  0.7246158E+02  0.7816164E-02  0.1226708E+00
        -11   -1    0    0    0    0  0.00000000000E+00  0.00000000000E+00  0.45593999997E+02  0.45594000000E+02  0.51100000000E-03 0.  1.
         11   -1    0    0    0    0 -0.00000000000E+00 -0.00000000000E+00 -0.45593999997E+02  0.45594000000E+02  0.51100000000E-03 0. -1.
    9900012    2    1    2    0    0  0.15608416763E+02 -0.61174807350E+01 -0.83446043860E+01  0.72461583719E+02  0.70000017488E+02 0.  0.
        -12    1    1    2    0    0 -0.15608416763E+02  0.61174807350E+01  0.83446043860E+01  0.18726416281E+02  0.00000000000E+00 0.  1.
         11    1    3    3    0    0 -0.15915850334E+01 -0.30405370174E+01  0.74335790736E+01  0.81875580228E+01  0.51100000000E-03 0. -1.
        -11    1    3    3    0    0 -0.58689356295E+01  0.16464715800E+02  0.13577847373E+02  0.22133441019E+02  0.51100000000E-03 0.  1.
         12    1    3    3    0    0  0.23068937425E+02 -0.19541659518E+02 -0.29356030833E+02  0.42140584677E+02  0.00000000000E+00 0. -1.
</event>
<event>
 7    1  0.2809593E-013  0.7246160E+02  0.7816164E-02  0.1226708E+00
        -11   -1    0    0    0    0  0.00000000000E+00  0.00000000000E+00  0.45593999997E+02  0.45594000000E+02  0.51100000000E-03 0.  1.
         11   -1    0    0    0    0 -0.00000000000E+00 -0.00000000000E+00 -0.45593999997E+02  0.45594000000E+02  0.51100000000E-03 0. -1.
    9900012    2    1    2    0    0  0.87738704094E+01  0.15892791505E+02  0.45952821203E+01  0.72461595071E+02  0.70000032277E+02 0.  0.
        -12    1    1    2    0    0 -0.87738704094E+01 -0.15892791505E+02 -0.45952821203E+01  0.18726404929E+02  0.00000000000E+00 0.  1.
         11    1    3    3    0    0  0.89130125642E+01  0.17020356770E+02 -0.29637699951E+02  0.35320356683E+02  0.51100000000E-03 0. -1.
        -11    1    3    3    0    0  0.94320257533E+00 -0.86580648756E-03 -0.12821768167E+01  0.15917316037E+01  0.51100000000E-03 0.  1.
        -12    1    3    3    0    0 -0.10823447302E+01 -0.11266994580E+01  0.35515158888E+02  0.35549506785E+02  0.00000000000E+00 0.  1.
</event>
<event>
 7    1  0.2809593E-013  0.7246156E+02  0.7816164E-02  0.1226708E+00
        -11   -1    0    0    0    0  0.00000000000E+00  0.00000000000E+00  0.45593999997E+02  0.45594000000E+02  0.51100000000E-03 0. -1.
         11   -1    0    0    0    0 -0.00000000000E+00 -0.00000000000E+00 -0.45593999997E+02  0.45594000000E+02  0.51100000000E-03 0.  1.
    9900012    2    1    2    0    0  0.15701071940E+02 -0.37894800729E+01  0.94760576954E+01  0.72461561772E+02  0.69999988898E+02 0.  0.
        -12    1    1    2    0    0 -0.15701071940E+02  0.37894800729E+01 -0.94760576954E+01  0.18726438228E+02  0.00000000000E+00 0.  1.
         11    1    3    3    0    0  0.26028020594E+02 -0.18591143580E+01  0.24118257525E+02  0.35533146618E+02  0.51100000000E-03 0. -1.
        -11    1    3    3    0    0  0.89050173349E+01 -0.76619348304E+01 -0.11816889656E+02  0.16662636661E+02  0.51100000000E-03 0.  1.
         12    1    3    3    0    0 -0.19231965990E+02  0.57315691155E+01 -0.28253101734E+01  0.20265778493E+02  0.00000000000E+00 0. -1.
</event>
<event>
 7    1  0.2809593E-013  0.7246149E+02  0.7816164E-02  0.1226708E+00
        -11   -1    0    0    0    0  0.00000000000E+00  0.00000000000E+00  0.45593999997E+02  0.45594000000E+02  0.51100000000E-03 0.  1.
         11   -1    0    0    0    0 -0.00000000000E+00 -0.00000000000E+00 -0.45593999997E+02  0.45594000000E+02  0.51100000000E-03 0. -1.
    9900012    2    1    2    0    0 -0.66370951628E+01 -0.78519552718E+01 -0.15651768717E+02  0.72461492110E+02  0.69999898150E+02 0.  0.
        -12    1    1    2    0    0  0.66370951628E+01  0.78519552718E+01  0.15651768717E+02  0.18726507890E+02  0.00000000000E+00 0.  1.
         11    1    3    3    0    0  0.16139640419E+01 -0.20605152248E+02  0.34582516436E+01  0.20955588366E+02  0.51100000000E-03 0. -1.
        -11    1    3    3    0    0 -0.24417375511E+02  0.99907239978E-01 -0.19061035439E+02  0.30976463332E+02  0.51100000000E-03 0.  1.
        -12    1    3    3    0    0  0.16166316307E+02  0.12653289736E+02 -0.48984921921E-01  0.20529440411E+02  0.00000000000E+00 0.  1.
</event>
<event>
 7    1  0.2809593E-013  0.7246153E+02  0.7816164E-02  0.1226708E+00
        -11   -1    0    0    0    0  0.00000000000E+00  0.00000000000E+00  0.45593999997E+02  0.45594000000E+02  0.51100000000E-03 0.  1.
         11   -1    0    0    0    0 -0.00000000000E+00 -0.00000000000E+00 -0.45593999997E+02  0.45594000000E+02  0.51100000000E-03 0. -1.
    9900012    2    1    2    0    0 -0.37708854534E+01  0.38670346830E+00 -0.18338794743E+02  0.72461534522E+02  0.69999953400E+02 0.  0.
        -12    1    1    2    0    0  0.37708854534E+01 -0.38670346830E+00  0.18338794743E+02  0.18726465478E+02  0.00000000000E+00 0.  1.
         11    1    3    3    0    0  0.68731789762E+01  0.24573419569E+02 -0.58924760341E+01  0.26188066225E+02  0.51100000000E-03 0. -1.
        -11    1    3    3    0    0 -0.19429293719E+02 -0.24448455780E+01 -0.11700778684E+02  0.22811903612E+02  0.51100000000E-03 0.  1.
        -12    1    3    3    0    0  0.87852292899E+01 -0.21741870523E+02 -0.74554002467E+00  0.23461564684E+02  0.00000000000E+00 0.  1.
</event>
<event>
 7    1  0.2809593E-013  0.7246158E+02  0.7816164E-02  0.1226708E+00
        -11   -1    0    0    0    0  0.00000000000E+00  0.00000000000E+00  0.45593999997E+02  0.45594000000E+02  0.51100000000E-03 0.  1.
         11   -1    0    0    0    0 -0.00000000000E+00 -0.00000000000E+00 -0.45593999997E+02  0.45594000000E+02  0.51100000000E-03 0. -1.
    9900012    2    1    2    0    0 -0.15446142693E+02  0.62875138757E+01 -0.85183616057E+01  0.72461584452E+02  0.70000018443E+02 0.  0.
        -12    1    1    2    0    0  0.15446142693E+02 -0.62875138757E+01  0.85183616057E+01  0.18726415548E+02  0.00000000000E+00 0.  1.
         11    1    3    3    0    0  0.70329945081E+01  0.15823653812E+02 -0.19689398109E+02  0.26220667990E+02  0.51100000000E-03 0. -1.
        -11    1    3    3    0    0  0.60595713294E+01  0.88149725616E+01  0.47725761141E+01  0.11713224534E+02  0.51100000000E-03 0.  1.
         12    1    3    3    0    0 -0.28538708531E+02 -0.18351112498E+02  0.63984603892E+01  0.34527691928E+02  0.00000000000E+00 0. -1.
</event>
<event>
 7    1  0.2809593E-013  0.7246156E+02  0.7816164E-02  0.1226708E+00
        -11   -1    0    0    0    0  0.00000000000E+00  0.00000000000E+00  0.45593999997E+02  0.45594000000E+02  0.51100000000E-03 0.  1.
         11   -1    0    0    0    0 -0.00000000000E+00 -0.00000000000E+00 -0.45593999997E+02  0.45594000000E+02  0.51100000000E-03 0. -1.
    9900012    2    1    2    0    0 -0.48599835639E+01 -0.13235589908E+02 -0.12323924341E+02  0.72461564365E+02  0.69999992276E+02 0.  0.
        -12    1    1    2    0    0  0.48599835639E+01  0.13235589908E+02  0.12323924341E+02  0.18726435635E+02  0.00000000000E+00 0.  1.
         11    1    3    3    0    0 -0.20984490613E+02 -0.38736290713E+01 -0.35223955485E+02  0.41183502628E+02  0.51100000000E-03 0. -1.
        -11    1    3    3    0    0  0.11271516028E+02 -0.85852697623E+00  0.10069999450E+02  0.15138990433E+02  0.51100000000E-03 0.  1.
        -12    1    3    3    0    0  0.48529910209E+01 -0.85034338600E+01  0.12830031695E+02  0.16139071304E+02  0.00000000000E+00 0.  1.
</event>
<event>
 7    1  0.2809593E-013  0.7246155E+02  0.7816164E-02  0.1226708E+00
        -11   -1    0    0    0    0  0.00000000000E+00  0.00000000000E+00  0.45593999997E+02  0.45594000000E+02  0.51100000000E-03 0.  1.
         11   -1    0    0    0    0 -0.00000000000E+00 -0.00000000000E+00 -0.45593999997E+02  0.45594000000E+02  0.51100000000E-03 0. -1.
    9900012    2    1    2    0    0 -0.11163400295E+02 -0.14814512264E+02 -0.25668100123E+01  0.72461553637E+02  0.69999978301E+02 0.  0.
        -12    1    1    2    0    0  0.11163400295E+02  0.14814512264E+02  0.25668100123E+01  0.18726446363E+02  0.00000000000E+00 0.  1.
         11    1    3    3    0    0 -0.21191926257E+02  0.11877313982E+01  0.65158678922E-01  0.21225284221E+02  0.51100000000E-03 0. -1.
        -11    1    3    3    0    0  0.11131267381E+02  0.99863409086E+01  0.13898888131E+02  0.20415954785E+02  0.51100000000E-03 0.  1.
         12    1    3    3    0    0 -0.11027414188E+01 -0.25988584571E+02 -0.16530856822E+02  0.30820314630E+02  0.00000000000E+00 0. -1.
</event>
<event>
 7    1  0.2809593E-013  0.7246161E+02  0.7816164E-02  0.1226708E+00
        -11   -1    0    0    0    0  0.00000000000E+00  0.00000000000E+00  0.45593999997E+02  0.45594000000E+02  0.51100000000E-03 0. -1.
         11   -1    0    0    0    0 -0.00000000000E+00 -0.00000000000E+00 -0.45593999997E+02  0.45594000000E+02  0.51100000000E-03 0.  1.
    9900012    2    1    2    0    0  0.14301952007E+02  0.10896080022E+02 -0.52351834602E+01  0.72461613886E+02  0.70000056786E+02 0.  0.
        -12    1    1    2    0    0 -0.14301952007E+02 -0.10896080022E+02  0.52351834602E+01  0.18726386114E+02  0.00000000000E+00 0.  1.
         11    1    3    3    0    0  0.16543662651E+02 -0.11922372587E+02  0.88530444410E+01  0.22230882532E+02  0.51100000000E-03 0. -1.
        -11    1    3    3    0    0  0.68342198068E+01  0.22469207459E+00 -0.23235429328E+02  0.24220698240E+02  0.51100000000E-03 0.  1.
         12    1    3    3    0    0 -0.90759304508E+01  0.22593760535E+02  0.91472014269E+01  0.26010033114E+02  0.00000000000E+00 0. -1.
</event>
<event>
 7    1  0.2809593E-013  0.7246160E+02  0.7816164E-02  0.1226708E+00
        -11   -1    0    0    0    0  0.00000000000E+00  0.00000000000E+00  0.45593999997E+02  0.45594000000E+02  0.51100000000E-03 0. -1.
         11   -1    0    0    0    0 -0.00000000000E+00 -0.00000000000E+00 -0.45593999997E+02  0.45594000000E+02  0.51100000000E-03 0.  1.
    9900012    2    1    2    0    0 -0.16300052697E+02  0.88865836530E+01 -0.24525533017E+01  0.72461598727E+02  0.70000037039E+02 0.  0.
        -12    1    1    2    0    0  0.16300052697E+02 -0.88865836530E+01  0.24525533017E+01  0.18726401273E+02  0.00000000000E+00 0.  1.
         11    1    3    3    0    0  0.57309806158E+01 -0.84093166631E+01 -0.55438933458E+00  0.10191569720E+02  0.51100000000E-03 0. -1.
        -11    1    3    3    0    0  0.38293614554E+01  0.22663802526E+02 -0.19821272573E+02  0.30351191093E+02  0.51100000000E-03 0.  1.
         12    1    3    3    0    0 -0.25860394768E+02 -0.53679022096E+01  0.17923108606E+02  0.31918837914E+02  0.00000000000E+00 0. -1.
</event>
<event>
 7    1  0.2809593E-013  0.7246153E+02  0.7816164E-02  0.1226708E+00
        -11   -1    0    0    0    0  0.00000000000E+00  0.00000000000E+00  0.45593999997E+02  0.45594000000E+02  0.51100000000E-03 0.  1.
         11   -1    0    0    0    0 -0.00000000000E+00 -0.00000000000E+00 -0.45593999997E+02  0.45594000000E+02  0.51100000000E-03 0. -1.
    9900012    2    1    2    0    0  0.93496031420E+01  0.63906443123E+01 -0.14913933611E+02  0.72461525975E+02  0.69999942266E+02 0.  0.
        -12    1    1    2    0    0 -0.93496031420E+01 -0.63906443123E+01  0.14913933611E+02  0.18726474025E+02  0.00000000000E+00 0.  1.
         11    1    3    3    0    0 -0.12871389847E+01  0.59897207762E+00 -0.32362890986E+01  0.35339866590E+01  0.51100000000E-03 0. -1.
        -11    1    3    3    0    0 -0.17485995996E+02 -0.19374971361E+02 -0.16506502435E+02  0.30880644328E+02  0.51100000000E-03 0.  1.
         12    1    3    3    0    0  0.28122738123E+02  0.25166643596E+02  0.48288579221E+01  0.38046894988E+02  0.00000000000E+00 0. -1.
</event>
<event>
 7    1  0.2809593E-013  0.7246165E+02  0.7816164E-02  0.1226708E+00
        -11   -1    0    0    0    0  0.00000000000E+00  0.00000000000E+00  0.45593999997E+02  0.45594000000E+02  0.51100000000E-03 0.  1.
         11   -1    0    0    0    0 -0.00000000000E+00 -0.00000000000E+00 -0.45593999997E+02  0.45594000000E+02  0.51100000000E-03 0. -1.
    9900012    2    1    2    0    0 -0.17562487382E+02  0.48953137376E+01 -0.42744827475E+01  0.72461647916E+02  0.70000101116E+02 0.  0.
        -12    1    1    2    0    0  0.17562487382E+02 -0.48953137376E+01  0.42744827475E+01  0.18726352084E+02  0.00000000000E+00 0.  1.
         11    1    3    3    0    0 -0.11187328807E+02 -0.11013568103E+02 -0.43271374663E+01  0.16284321513E+02  0.51100000000E-03 0. -1.
        -11    1    3    3    0    0 -0.26541662185E+02  0.53160440329E+01 -0.12886461784E+02  0.29979677338E+02  0.51100000000E-03 0.  1.
        -12    1    3    3    0    0  0.20166503610E+02  0.10592837808E+02  0.12939116503E+02  0.26197649066E+02  0.00000000000E+00 0.  1.
</event>
<event>
 7    1  0.2809593E-013  0.7246185E+02  0.7816164E-02  0.1226707E+00
        -11   -1    0    0    0    0  0.00000000000E+00  0.00000000000E+00  0.45593999997E+02  0.45594000000E+02  0.51100000000E-03 0.  1.
         11   -1    0    0    0    0 -0.00000000000E+00 -0.00000000000E+00 -0.45593999997E+02  0.45594000000E+02  0.51100000000E-03 0. -1.
    9900012    2    1    2    0    0 -0.91369098453E+01 -0.14742464143E+02 -0.70601257763E+01  0.72461848594E+02  0.70000362536E+02 0.  0.
        -12    1    1    2    0    0  0.91369098453E+01  0.14742464143E+02  0.70601257763E+01  0.18726151406E+02  0.00000000000E+00 0.  1.
         11    1    3    3    0    0  0.11161997535E+02  0.33005946716E+01  0.13815929132E+02  0.18065547659E+02  0.51100000000E-03 0. -1.
        -11    1    3    3    0    0 -0.16159205707E+01 -0.28364050063E+02 -0.15593199452E+02  0.32407999085E+02  0.51100000000E-03 0.  1.
         12    1    3    3    0    0 -0.18682986810E+02  0.10320991248E+02 -0.52828554562E+01  0.21988301850E+02  0.00000000000E+00 0. -1.
</event>
<event>
 7    1  0.2809593E-013  0.7246156E+02  0.7816164E-02  0.1226708E+00
        -11   -1    0    0    0    0  0.00000000000E+00  0.00000000000E+00  0.45593999997E+02  0.45594000000E+02  0.51100000000E-03 0.  1.
         11   -1    0    0    0    0 -0.00000000000E+00 -0.00000000000E+00 -0.45593999997E+02  0.45594000000E+02  0.51100000000E-03 0. -1.
    9900012    2    1    2    0    0 -0.66024031162E+00 -0.43075310187E+00 -0.18709836356E+02  0.72461563020E+02  0.69999990523E+02 0.  0.
        -12    1    1    2    0    0  0.66024031162E+00  0.43075310187E+00  0.18709836356E+02  0.18726436980E+02  0.00000000000E+00 0.  1.
         11    1    3    3    0    0 -0.16283985077E+02 -0.20800567573E+02  0.11992444951E+01  0.26443713222E+02  0.51100000000E-03 0. -1.
        -11    1    3    3    0    0 -0.79960852988E+01 -0.13480141220E+01 -0.90310050803E+01  0.12137280387E+02  0.51100000000E-03 0.  1.
        -12    1    3    3    0    0  0.23619830064E+02  0.21717828593E+02 -0.10878075771E+02  0.33880569410E+02  0.00000000000E+00 0.  1.
</event>
<event>
 7    1  0.2809593E-013  0.7246159E+02  0.7816164E-02  0.1226708E+00
        -11   -1    0    0    0    0  0.00000000000E+00  0.00000000000E+00  0.45593999997E+02  0.45594000000E+02  0.51100000000E-03 0.  1.
         11   -1    0    0    0    0 -0.00000000000E+00 -0.00000000000E+00 -0.45593999997E+02  0.45594000000E+02  0.51100000000E-03 0. -1.
    9900012    2    1    2    0    0  0.36517289440E+01  0.14591564869E+02 -0.11154800635E+02  0.72461589057E+02  0.70000024442E+02 0.  0.
        -12    1    1    2    0    0 -0.36517289440E+01 -0.14591564869E+02  0.11154800635E+02  0.18726410943E+02  0.00000000000E+00 0.  1.
         11    1    3    3    0    0 -0.43557439353E+01 -0.88209820221E+01  0.43271417451E+01  0.10747389683E+02  0.51100000000E-03 0. -1.
        -11    1    3    3    0    0 -0.67377977388E+00  0.17038227099E+02  0.19035261654E+02  0.25555749810E+02  0.51100000000E-03 0.  1.
         12    1    3    3    0    0  0.86812526532E+01  0.63743197922E+01 -0.34517204034E+02  0.36158449563E+02  0.00000000000E+00 0. -1.
</event>
<event>
 7    1  0.2809593E-013  0.7246143E+02  0.7816164E-02  0.1226708E+00
        -11   -1    0    0    0    0  0.00000000000E+00  0.00000000000E+00  0.45593999997E+02  0.45594000000E+02  0.51100000000E-03 0.  1.
         11   -1    0    0    0    0 -0.00000000000E+00 -0.00000000000E+00 -0.45593999997E+02  0.45594000000E+02  0.51100000000E-03 0. -1.
    9900012    2    1    2    0    0 -0.14938524997E+02  0.44774268774E+01 -0.10367141696E+02  0.72461427770E+02  0.69999814336E+02 0.  0.
        -12    1    1    2    0    0  0.14938524997E+02 -0.44774268774E+01  0.10367141696E+02  0.18726572230E+02  0.00000000000E+00 0.  1.
         11    1    3    3    0    0 -0.17781535568E+01 -0.82666750714E+01  0.14216257992E+02  0.16540911050E+02  0.51100000000E-03 0. -1.
        -11    1    3    3    0    0 -0.75850781839E+01 -0.16249207492E+01  0.13090224986E+02  0.15216036571E+02  0.51100000000E-03 0.  1.
         12    1    3    3    0    0 -0.55752932563E+01  0.14369022698E+02 -0.37673624673E+02  0.40704480149E+02  0.00000000000E+00 0. -1.
</event>
<event>
 7    1  0.2809593E-013  0.7246157E+02  0.7816164E-02  0.1226708E+00
        -11   -1    0    0    0    0  0.00000000000E+00  0.00000000000E+00  0.45593999997E+02  0.45594000000E+02  0.51100000000E-03 0.  1.
         11   -1    0    0    0    0 -0.00000000000E+00 -0.00000000000E+00 -0.45593999997E+02  0.45594000000E+02  0.51100000000E-03 0. -1.
    9900012    2    1    2    0    0 -0.15609367564E+02 -0.83884287809E+01 -0.60548493437E+01  0.72461566978E+02  0.69999995680E+02 0.  0.
        -12    1    1    2    0    0  0.15609367564E+02  0.83884287809E+01  0.60548493437E+01  0.18726433022E+02  0.00000000000E+00 0.  1.
         11    1    3    3    0    0  0.21824605921E+01 -0.32813096996E+01  0.77215690258E+01  0.86690689271E+01  0.51100000000E-03 0.  1.
        -11    1    3    3    0    0 -0.32069900602E+02 -0.56114795053E+01 -0.28505438865E+02  0.43272708165E+02  0.51100000000E-03 0. -1.
         12    1    3    3    0    0  0.14278072446E+02  0.50436042399E+00  0.14729020495E+02  0.20519789886E+02  0.00000000000E+00 0. -1.
</event>
<event>
 7    1  0.2809593E-013  0.7246158E+02  0.7816164E-02  0.1226708E+00
        -11   -1    0    0    0    0  0.00000000000E+00  0.00000000000E+00  0.45593999997E+02  0.45594000000E+02  0.51100000000E-03 0.  1.
         11   -1    0    0    0    0 -0.00000000000E+00 -0.00000000000E+00 -0.45593999997E+02  0.45594000000E+02  0.51100000000E-03 0. -1.
    9900012    2    1    2    0    0  0.71555644870E+01  0.10599129731E+02 -0.13679734471E+02  0.72461580444E+02  0.70000013222E+02 0.  0.
        -12    1    1    2    0    0 -0.71555644870E+01 -0.10599129731E+02  0.13679734471E+02  0.18726419556E+02  0.00000000000E+00 0.  1.
         11    1    3    3    0    0  0.26913324920E+00  0.32408588902E+02 -0.26846270223E+02  0.42084573093E+02  0.51100000000E-03 0. -1.
        -11    1    3    3    0    0 -0.15018960785E+01  0.16924723247E+01  0.24521911848E+00  0.22760244018E+01  0.51100000000E-03 0.  1.
        -12    1    3    3    0    0  0.83883273163E+01 -0.23501931495E+02  0.12921316633E+02  0.28100982949E+02  0.00000000000E+00 0.  1.
</event>
<event>
 7    1  0.2809593E-013  0.7246155E+02  0.7816164E-02  0.1226708E+00
        -11   -1    0    0    0    0  0.00000000000E+00  0.00000000000E+00  0.45593999997E+02  0.45594000000E+02  0.51100000000E-03 0. -1.
         11   -1    0    0    0    0 -0.00000000000E+00 -0.00000000000E+00 -0.45593999997E+02  0.45594000000E+02  0.51100000000E-03 0.  1.
    9900012    2    1    2    0    0  0.10838506715E+02  0.68745473162E+01  0.13636246281E+02  0.72461552359E+02  0.69999976636E+02 0.  0.
        -12    1    1    2    0    0 -0.10838506715E+02 -0.68745473162E+01 -0.13636246281E+02  0.18726447641E+02  0.00000000000E+00 0.  1.
         11    1    3    3    0    0 -0.13266464142E+02  0.23398858607E+02  0.13254718772E+02  0.29986550734E+02  0.51100000000E-03 0. -1.
        -11    1    3    3    0    0  0.18381190453E+01  0.15694787739E+01 -0.11256496576E+02  0.11513064782E+02  0.51100000000E-03 0.  1.
        -12    1    3    3    0    0  0.22266851812E+02 -0.18093790065E+02  0.11638024085E+02  0.30961936844E+02  0.00000000000E+00 0.  1.
</event>
<event>
 7    1  0.2809593E-013  0.7246158E+02  0.7816164E-02  0.1226708E+00
        -11   -1    0    0    0    0  0.00000000000E+00  0.00000000000E+00  0.45593999997E+02  0.45594000000E+02  0.51100000000E-03 0.  1.
         11   -1    0    0    0    0 -0.00000000000E+00 -0.00000000000E+00 -0.45593999997E+02  0.45594000000E+02  0.51100000000E-03 0. -1.
    9900012    2    1    2    0    0 -0.18231630003E+02  0.58631816344E-01 -0.42758450580E+01  0.72461584934E+02  0.70000019071E+02 0.  0.
        -12    1    1    2    0    0  0.18231630003E+02 -0.58631816344E-01  0.42758450580E+01  0.18726415066E+02  0.00000000000E+00 0.  1.
         11    1    3    3    0    0  0.12714577005E+02  0.13690068080E+02 -0.14321032935E+02  0.23540824477E+02  0.51100000000E-03 0. -1.
        -11    1    3    3    0    0  0.29295477469E+01  0.63539683216E+01 -0.28123011670E+01  0.75408356001E+01  0.51100000000E-03 0.  1.
        -12    1    3    3    0    0 -0.33875754755E+02 -0.19985404585E+02  0.12857489044E+02  0.41379924857E+02  0.00000000000E+00 0.  1.
</event>
<event>
 7    1  0.2809593E-013  0.7246159E+02  0.7816164E-02  0.1226708E+00
        -11   -1    0    0    0    0  0.00000000000E+00  0.00000000000E+00  0.45593999997E+02  0.45594000000E+02  0.51100000000E-03 0.  1.
         11   -1    0    0    0    0 -0.00000000000E+00 -0.00000000000E+00 -0.45593999997E+02  0.45594000000E+02  0.51100000000E-03 0. -1.
    9900012    2    1    2    0    0  0.13633212041E+02 -0.28557372238E+01 -0.12516338873E+02  0.72461589654E+02  0.70000025220E+02 0.  0.
        -12    1    1    2    0    0 -0.13633212041E+02  0.28557372238E+01  0.12516338873E+02  0.18726410346E+02  0.00000000000E+00 0.  1.
         11    1    3    3    0    0  0.47544504766E+01  0.34585140308E+01 -0.77550951408E+01  0.97317839854E+01  0.51100000000E-03 0. -1.
        -11    1    3    3    0    0 -0.13417320969E+02  0.18485369256E+02  0.11561403437E+02  0.25600770071E+02  0.51100000000E-03 0.  1.
         12    1    3    3    0    0  0.22296082533E+02 -0.24799620511E+02 -0.16322647170E+02  0.37129035598E+02  0.00000000000E+00 0. -1.
</event>
<event>
 7    1  0.2809593E-013  0.7246154E+02  0.7816164E-02  0.1226708E+00
        -11   -1    0    0    0    0  0.00000000000E+00  0.00000000000E+00  0.45593999997E+02  0.45594000000E+02  0.51100000000E-03 0. -1.
         11   -1    0    0    0    0 -0.00000000000E+00 -0.00000000000E+00 -0.45593999997E+02  0.45594000000E+02  0.51100000000E-03 0.  1.
    9900012    2    1    2    0    0 -0.15424924467E+02 -0.10566516344E+02  0.10490744992E+01  0.72461544923E+02  0.69999966949E+02 0.  0.
        -12    1    1    2    0    0  0.15424924467E+02  0.10566516344E+02 -0.10490744992E+01  0.18726455077E+02  0.00000000000E+00 0.  1.
         11    1    3    3    0    0 -0.24236626080E+01  0.19549865061E+01 -0.60597547884E+01  0.68129832697E+01  0.51100000000E-03 0. -1.
        -11    1    3    3    0    0  0.76167845117E+01 -0.16610825744E+02 -0.22720388328E+02  0.29157348718E+02  0.51100000000E-03 0.  1.
        -12    1    3    3    0    0 -0.20618046371E+02  0.40893228945E+01  0.29829217616E+02  0.36491212935E+02  0.00000000000E+00 0.  1.
</event>
<event>
 7    1  0.2809593E-013  0.7246156E+02  0.7816164E-02  0.1226708E+00
        -11   -1    0    0    0    0  0.00000000000E+00  0.00000000000E+00  0.45593999997E+02  0.45594000000E+02  0.51100000000E-03 0. -1.
         11   -1    0    0    0    0 -0.00000000000E+00 -0.00000000000E+00 -0.45593999997E+02  0.45594000000E+02  0.51100000000E-03 0.  1.
    9900012    2    1    2    0    0  0.18212406161E+02  0.20018724487E+01 -0.38704291584E+01  0.72461562716E+02  0.69999990128E+02 0.  0.
        -12    1    1    2    0    0 -0.18212406161E+02 -0.20018724487E+01  0.38704291584E+01  0.18726437284E+02  0.00000000000E+00 0.  1.
         11    1    3    3    0    0 -0.52237313820E+01  0.19211805581E+02 -0.87729053703E+01  0.21756486668E+02  0.51100000000E-03 0. -1.
        -11    1    3    3    0    0  0.31388515862E+01  0.67724935414E+00 -0.16124075066E+02  0.16440707191E+02  0.51100000000E-03 0.  1.
        -12    1    3    3    0    0  0.20297285957E+02 -0.17887182487E+02  0.21026551278E+02  0.34264368857E+02  0.00000000000E+00 0.  1.
</event>
<event>
 7    1  0.2809593E-013  0.7246156E+02  0.7816164E-02  0.1226708E+00
        -11   -1    0    0    0    0  0.00000000000E+00  0.00000000000E+00  0.45593999997E+02  0.45594000000E+02  0.51100000000E-03 0. -1.
         11   -1    0    0    0    0 -0.00000000000E+00 -0.00000000000E+00 -0.45593999997E+02  0.45594000000E+02  0.51100000000E-03 0.  1.
    9900012    2    1    2    0    0  0.37225393908E+01 -0.11522578995E+02  0.14284692736E+02  0.72461559527E+02  0.69999985974E+02 0.  0.
        -12    1    1    2    0    0 -0.37225393908E+01  0.11522578995E+02 -0.14284692736E+02  0.18726440473E+02  0.00000000000E+00 0.  1.
         11    1    3    3    0    0 -0.76209744733E+01 -0.49815872466E+01 -0.88146495508E+01  0.12672549482E+02  0.51100000000E-03 0. -1.
        -11    1    3    3    0    0  0.35468936608E+01  0.67006449877E+01 -0.16039851274E+02  0.17741362041E+02  0.51100000000E-03 0.  1.
         12    1    3    3    0    0  0.77966202033E+01 -0.13241636736E+02  0.39139193562E+02  0.42047648004E+02  0.00000000000E+00 0. -1.
</event>
<event>
 7    1  0.2809593E-013  0.7246150E+02  0.7816164E-02  0.1226708E+00
        -11   -1    0    0    0    0  0.00000000000E+00  0.00000000000E+00  0.45593999997E+02  0.45594000000E+02  0.51100000000E-03 0.  1.
         11   -1    0    0    0    0 -0.00000000000E+00 -0.00000000000E+00 -0.45593999997E+02  0.45594000000E+02  0.51100000000E-03 0. -1.
    9900012    2    1    2    0    0  0.11231259698E+01 -0.12407485185E+02 -0.13981222303E+02  0.72461503327E+02  0.69999912763E+02 0.  0.
        -12    1    1    2    0    0 -0.11231259698E+01  0.12407485185E+02  0.13981222303E+02  0.18726496673E+02  0.00000000000E+00 0.  1.
         11    1    3    3    0    0 -0.20562993387E+01  0.14465527810E+01  0.97144087939E+01  0.10034471605E+02  0.51100000000E-03 0. -1.
        -11    1    3    3    0    0 -0.13267175950E+02  0.12537067593E+02  0.62127971434E+01  0.19281983045E+02  0.51100000000E-03 0.  1.
         12    1    3    3    0    0  0.16446601259E+02 -0.26391105559E+02 -0.29908428240E+02  0.43145048677E+02  0.00000000000E+00 0. -1.
</event>
<event>
 7    1  0.2809593E-013  0.7246149E+02  0.7816164E-02  0.1226708E+00
        -11   -1    0    0    0    0  0.00000000000E+00  0.00000000000E+00  0.45593999997E+02  0.45594000000E+02  0.51100000000E-03 0. -1.
         11   -1    0    0    0    0 -0.00000000000E+00 -0.00000000000E+00 -0.45593999997E+02  0.45594000000E+02  0.51100000000E-03 0.  1.
    9900012    2    1    2    0    0  0.11601749615E+02 -0.11299097781E+02  0.94027714881E+01  0.72461486271E+02  0.69999890544E+02 0.  0.
        -12    1    1    2    0    0 -0.11601749615E+02  0.11299097781E+02 -0.94027714881E+01  0.18726513729E+02  0.00000000000E+00 0.  1.
         11    1    3    3    0    0  0.11853443451E+02  0.57029151835E+01 -0.68862797077E+01  0.14847498500E+02  0.51100000000E-03 0. -1.
        -11    1    3    3    0    0 -0.17020658677E+02  0.12629937055E+02  0.70199609941E+01  0.22327068425E+02  0.51100000000E-03 0.  1.
         12    1    3    3    0    0  0.16768964840E+02 -0.29631950019E+02  0.92690902017E+01  0.35286919346E+02  0.00000000000E+00 0. -1.
</event>
<event>
 7    1  0.2809593E-013  0.7246158E+02  0.7816164E-02  0.1226708E+00
        -11   -1    0    0    0    0  0.00000000000E+00  0.00000000000E+00  0.45593999997E+02  0.45594000000E+02  0.51100000000E-03 0.  1.
         11   -1    0    0    0    0 -0.00000000000E+00 -0.00000000000E+00 -0.45593999997E+02  0.45594000000E+02  0.51100000000E-03 0. -1.
    9900012    2    1    2    0    0  0.95063577149E+01  0.15222423695E+02 -0.53465623096E+01  0.72461581531E+02  0.70000014638E+02 0.  0.
        -12    1    1    2    0    0 -0.95063577149E+01 -0.15222423695E+02  0.53465623096E+01  0.18726418469E+02  0.00000000000E+00 0.  1.
         11    1    3    3    0    0  0.27761815673E+02  0.61147352570E+01 -0.24403436161E+02  0.37465131702E+02  0.51100000000E-03 0. -1.
        -11    1    3    3    0    0 -0.32218826581E+01 -0.67517509812E+01  0.43137962033E+01  0.86357111531E+01  0.51100000000E-03 0.  1.
        -12    1    3    3    0    0 -0.15033575300E+02  0.15859439419E+02  0.14743077649E+02  0.26360738676E+02  0.00000000000E+00 0.  1.
</event>
<event>
 7    1  0.2809593E-013  0.7246157E+02  0.7816164E-02  0.1226708E+00
        -11   -1    0    0    0    0  0.00000000000E+00  0.00000000000E+00  0.45593999997E+02  0.45594000000E+02  0.51100000000E-03 0. -1.
         11   -1    0    0    0    0 -0.00000000000E+00 -0.00000000000E+00 -0.45593999997E+02  0.45594000000E+02  0.51100000000E-03 0.  1.
    9900012    2    1    2    0    0  0.14328729099E+02  0.17379708236E+01  0.11930883672E+02  0.72461574677E+02  0.70000005710E+02 0.  0.
        -12    1    1    2    0    0 -0.14328729099E+02 -0.17379708236E+01 -0.11930883672E+02  0.18726425323E+02  0.00000000000E+00 0.  1.
         11    1    3    3    0    0  0.23472500937E+02  0.18179688346E+02 -0.13175700100E+02  0.32481663166E+02  0.51100000000E-03 0. -1.
        -11    1    3    3    0    0 -0.80866654956E+01  0.21723052060E+01 -0.40343772422E+00  0.83830681140E+01  0.51100000000E-03 0.  1.
         12    1    3    3    0    0 -0.10571063430E+01 -0.18614022729E+02  0.25510021496E+02  0.31596843398E+02  0.00000000000E+00 0. -1.
</event>
<event>
 7    1  0.2809593E-013  0.7246152E+02  0.7816164E-02  0.1226708E+00
        -11   -1    0    0    0    0  0.00000000000E+00  0.00000000000E+00  0.45593999997E+02  0.45594000000E+02  0.51100000000E-03 0.  1.
         11   -1    0    0    0    0 -0.00000000000E+00 -0.00000000000E+00 -0.45593999997E+02  0.45594000000E+02  0.51100000000E-03 0. -1.
    9900012    2    1    2    0    0 -0.12745526282E+01 -0.18679407390E+02 -0.36914058764E+00  0.72461521163E+02  0.69999935998E+02 0.  0.
        -12    1    1    2    0    0  0.12745526282E+01  0.18679407390E+02  0.36914058764E+00  0.18726478837E+02  0.00000000000E+00 0.  1.
         11    1    3    3    0    0 -0.51297413150E+01 -0.27899591285E+02 -0.14591961601E+02  0.31900263062E+02  0.51100000000E-03 0. -1.
        -11    1    3    3    0    0 -0.14185996501E+02 -0.33431395258E+01  0.37606539336E+00  0.14579454862E+02  0.51100000000E-03 0.  1.
        -12    1    3    3    0    0  0.18041185188E+02  0.12563323421E+02  0.13846755620E+02  0.25981803239E+02  0.00000000000E+00 0.  1.
</event>
<event>
 7    1  0.2809593E-013  0.7246165E+02  0.7816164E-02  0.1226708E+00
        -11   -1    0    0    0    0  0.00000000000E+00  0.00000000000E+00  0.45593999997E+02  0.45594000000E+02  0.51100000000E-03 0.  1.
         11   -1    0    0    0    0 -0.00000000000E+00 -0.00000000000E+00 -0.45593999997E+02  0.45594000000E+02  0.51100000000E-03 0. -1.
    9900012    2    1    2    0    0  0.91832449019E+01 -0.16313701567E+02  0.45539780759E+00  0.72461648702E+02  0.70000102141E+02 0.  0.
        -12    1    1    2    0    0 -0.91832449019E+01  0.16313701567E+02 -0.45539780759E+00  0.18726351298E+02  0.00000000000E+00 0.  1.
         11    1    3    3    0    0  0.17266227892E+02 -0.34528754058E+02 -0.16001492148E+02  0.41790013563E+02  0.51100000000E-03 0. -1.
        -11    1    3    3    0    0  0.30979648398E+01 -0.52233015769E+00  0.53092017396E+01  0.61691035260E+01  0.51100000000E-03 0.  1.
        -12    1    3    3    0    0 -0.11180947830E+02  0.18737382648E+02  0.11147688216E+02  0.24502531613E+02  0.00000000000E+00 0.  1.
</event>
<event>
 7    1  0.2809593E-013  0.7246157E+02  0.7816164E-02  0.1226708E+00
        -11   -1    0    0    0    0  0.00000000000E+00  0.00000000000E+00  0.45593999997E+02  0.45594000000E+02  0.51100000000E-03 0. -1.
         11   -1    0    0    0    0 -0.00000000000E+00 -0.00000000000E+00 -0.45593999997E+02  0.45594000000E+02  0.51100000000E-03 0.  1.
    9900012    2    1    2    0    0  0.54903008693E+00 -0.11283151388E+02  0.14935463883E+02  0.72461574268E+02  0.70000005176E+02 0.  0.
        -12    1    1    2    0    0 -0.54903008693E+00  0.11283151388E+02 -0.14935463883E+02  0.18726425732E+02  0.00000000000E+00 0.  1.
         11    1    3    3    0    0 -0.22965972931E+02  0.65617607959E+01  0.12033363804E+02  0.26744989477E+02  0.51100000000E-03 0. -1.
        -11    1    3    3    0    0  0.94613043289E+01  0.10403472053E+02  0.43393008335E+00  0.14069001597E+02  0.51100000000E-03 0.  1.
        -12    1    3    3    0    0  0.14053698689E+02 -0.28248384237E+02  0.24681699957E+01  0.31647583194E+02  0.00000000000E+00 0.  1.
</event>
<event>
 7    1  0.2809593E-013  0.7246159E+02  0.7816164E-02  0.1226708E+00
        -11   -1    0    0    0    0  0.00000000000E+00  0.00000000000E+00  0.45593999997E+02  0.45594000000E+02  0.51100000000E-03 0.  1.
         11   -1    0    0    0    0 -0.00000000000E+00 -0.00000000000E+00 -0.45593999997E+02  0.45594000000E+02  0.51100000000E-03 0. -1.
    9900012    2    1    2    0    0 -0.16838701067E+02 -0.45387426241E+01 -0.68217622332E+01  0.72461588753E+02  0.70000024045E+02 0.  0.
        -12    1    1    2    0    0  0.16838701067E+02  0.45387426241E+01  0.68217622332E+01  0.18726411247E+02  0.00000000000E+00 0.  1.
         11    1    3    3    0    0  0.93602335333E+01  0.42967622773E+01 -0.16807387725E+02  0.19712037446E+02  0.51100000000E-03 0. -1.
        -11    1    3    3    0    0  0.42131079295E+01  0.11265312201E+02  0.10974176129E+02  0.16281587127E+02  0.51100000000E-03 0.  1.
        -12    1    3    3    0    0 -0.30412042530E+02 -0.20100817102E+02 -0.98855063677E+00  0.36467964179E+02  0.00000000000E+00 0.  1.
</event>
<event>
 7    1  0.2809593E-013  0.7246172E+02  0.7816164E-02  0.1226708E+00
        -11   -1    0    0    0    0  0.00000000000E+00  0.00000000000E+00  0.45593999997E+02  0.45594000000E+02  0.51100000000E-03 0. -1.
         11   -1    0    0    0    0 -0.00000000000E+00 -0.00000000000E+00 -0.45593999997E+02  0.45594000000E+02  0.51100000000E-03 0.  1.
    9900012    2    1    2    0    0 -0.15554739025E+02  0.10212705424E+02  0.21033879685E+01  0.72461721694E+02  0.70000197226E+02 0.  0.
        -12    1    1    2    0    0  0.15554739025E+02 -0.10212705424E+02 -0.21033879685E+01  0.18726278306E+02  0.00000000000E+00 0.  1.
         11    1    3    3    0    0 -0.97582899413E+01  0.93564463363E+00  0.15212204184E+02  0.18097259733E+02  0.51100000000E-03 0. -1.
        -11    1    3    3    0    0 -0.21186956543E+02 -0.12485178407E+02  0.15419684899E+00  0.24592490406E+02  0.51100000000E-03 0.  1.
         12    1    3    3    0    0  0.15390507459E+02  0.21762239198E+02 -0.13263013064E+02  0.29771971555E+02  0.00000000000E+00 0. -1.
</event>
<event>
 7    1  0.2809593E-013  0.7246166E+02  0.7816164E-02  0.1226708E+00
        -11   -1    0    0    0    0  0.00000000000E+00  0.00000000000E+00  0.45593999997E+02  0.45594000000E+02  0.51100000000E-03 0.  1.
         11   -1    0    0    0    0 -0.00000000000E+00 -0.00000000000E+00 -0.45593999997E+02  0.45594000000E+02  0.51100000000E-03 0. -1.
    9900012    2    1    2    0    0  0.11294355996E+00  0.18620268900E+02  0.19871430398E+01  0.72461657388E+02  0.70000113456E+02 0.  0.
        -12    1    1    2    0    0 -0.11294355996E+00 -0.18620268900E+02 -0.19871430398E+01  0.18726342612E+02  0.00000000000E+00 0.  1.
         11    1    3    3    0    0 -0.91993051662E+01 -0.32680910786E+01 -0.28649495078E+01  0.10174260208E+02  0.51100000000E-03 0. -1.
        -11    1    3    3    0    0  0.30386874502E+02 -0.16836610862E+01  0.35694729540E+01  0.30642095132E+02  0.51100000000E-03 0.  1.
         12    1    3    3    0    0 -0.21074625776E+02  0.23572021065E+02  0.12826195937E+01  0.31645302048E+02  0.00000000000E+00 0. -1.
</event>
<event>
 7    1  0.2809593E-013  0.7246150E+02  0.7816164E-02  0.1226708E+00
        -11   -1    0    0    0    0  0.00000000000E+00  0.00000000000E+00  0.45593999997E+02  0.45594000000E+02  0.51100000000E-03 0. -1.
         11   -1    0    0    0    0 -0.00000000000E+00 -0.00000000000E+00 -0.45593999997E+02  0.45594000000E+02  0.51100000000E-03 0.  1.
    9900012    2    1    2    0    0  0.70772420192E+01  0.98586757429E+00  0.17309610681E+02  0.72461497086E+02  0.69999904632E+02 0.  0.
        -12    1    1    2    0    0 -0.70772420192E+01 -0.98586757429E+00 -0.17309610681E+02  0.18726502914E+02  0.00000000000E+00 0.  1.
         11    1    3    3    0    0  0.19705507496E+01 -0.48804147956E+01  0.62978976176E+01  0.82076204528E+01  0.51100000000E-03 0. -1.
        -11    1    3    3    0    0  0.16394052499E+02 -0.22920883394E+02  0.16782328207E+02  0.32799060859E+02  0.51100000000E-03 0.  1.
         12    1    3    3    0    0 -0.11287361230E+02  0.28787165764E+02 -0.57706151435E+01  0.31454815774E+02  0.00000000000E+00 0. -1.
</event>
<event>
 7    1  0.2809593E-013  0.7246163E+02  0.7816164E-02  0.1226708E+00
        -11   -1    0    0    0    0  0.00000000000E+00  0.00000000000E+00  0.45593999997E+02  0.45594000000E+02  0.51100000000E-03 0.  1.
         11   -1    0    0    0    0 -0.00000000000E+00 -0.00000000000E+00 -0.45593999997E+02  0.45594000000E+02  0.51100000000E-03 0. -1.
    9900012    2    1    2    0    0 -0.17488616985E+02  0.61341006586E+01  0.26828779385E+01  0.72461634924E+02  0.70000084192E+02 0.  0.
        -12    1    1    2    0    0  0.17488616985E+02 -0.61341006586E+01 -0.26828779385E+01  0.18726365076E+02  0.00000000000E+00 0.  1.
         11    1    3    3    0    0  0.84285558083E+00 -0.85996034417E+00  0.36611569341E+01  0.38540897344E+01  0.51100000000E-03 0. -1.
        -11    1    3    3    0    0  0.12197744872E+02  0.15514272159E+02  0.21927898509E+02  0.29501022929E+02  0.51100000000E-03 0.  1.
         12    1    3    3    0    0 -0.30529217437E+02 -0.85202111564E+01 -0.22906177504E+02  0.39106522261E+02  0.00000000000E+00 0. -1.
</event>
<event>
 7    1  0.3869013E-013  0.7246181E+02  0.7816164E-02  0.1226707E+00
        -11   -1    0    0    0    0  0.00000000000E+00  0.00000000000E+00  0.45593999997E+02  0.45594000000E+02  0.51100000000E-03 0. -1.
         11   -1    0    0    0    0 -0.00000000000E+00 -0.00000000000E+00 -0.45593999997E+02  0.45594000000E+02  0.51100000000E-03 0.  1.
    9900012    2    1    2    0    0  0.10385280956E+02  0.81128136404E+01  0.13304074948E+02  0.72461809358E+02  0.70000311425E+02 0.  0.
        -12    1    1    2    0    0 -0.10385280956E+02 -0.81128136404E+01 -0.13304074948E+02  0.18726190642E+02  0.00000000000E+00 0.  1.
         11    1    3    3    0    0  0.68536006961E+01  0.52782982662E+01  0.28409335173E+02  0.29697181690E+02  0.51100000000E-03 0. -1.
        -11    1    3    3    0    0  0.19758739955E+02  0.10097753813E+02 -0.93366233169E+01  0.24073740297E+02  0.51100000000E-03 0.  1.
        -12    1    3    3    0    0 -0.16227059695E+02 -0.72632384383E+01 -0.57686369081E+01  0.18690887371E+02  0.00000000000E+00 0.  1.
</event>
<event>
 7    1  0.2809593E-013  0.7246156E+02  0.7816164E-02  0.1226708E+00
        -11   -1    0    0    0    0  0.00000000000E+00  0.00000000000E+00  0.45593999997E+02  0.45594000000E+02  0.51100000000E-03 0.  1.
         11   -1    0    0    0    0 -0.00000000000E+00 -0.00000000000E+00 -0.45593999997E+02  0.45594000000E+02  0.51100000000E-03 0. -1.
    9900012    2    1    2    0    0 -0.77953076685E+01  0.13228282750E+02 -0.10720313870E+02  0.72461563723E+02  0.69999991440E+02 0.  0.
        -12    1    1    2    0    0  0.77953076685E+01 -0.13228282750E+02  0.10720313870E+02  0.18726436277E+02  0.00000000000E+00 0.  1.
         11    1    3    3    0    0 -0.45054260526E+01  0.13241359777E+02 -0.63397778402E+01  0.15356603009E+02  0.51100000000E-03 0. -1.
        -11    1    3    3    0    0  0.10041189184E+00  0.26133005199E+02  0.88700651695E+01  0.27597501692E+02  0.51100000000E-03 0.  1.
         12    1    3    3    0    0 -0.33902935078E+01 -0.26146082225E+02 -0.13250601199E+02  0.29507459022E+02  0.00000000000E+00 0. -1.
</event>
<event>
 7    1  0.2809593E-013  0.7246159E+02  0.7816164E-02  0.1226708E+00
        -11   -1    0    0    0    0  0.00000000000E+00  0.00000000000E+00  0.45593999997E+02  0.45594000000E+02  0.51100000000E-03 0.  1.
         11   -1    0    0    0    0 -0.00000000000E+00 -0.00000000000E+00 -0.45593999997E+02  0.45594000000E+02  0.51100000000E-03 0. -1.
    9900012    2    1    2    0    0  0.12654012333E+01  0.18078429664E+02 -0.47167232934E+01  0.72461592496E+02  0.70000028922E+02 0.  0.
        -12    1    1    2    0    0 -0.12654012333E+01 -0.18078429664E+02  0.47167232934E+01  0.18726407504E+02  0.00000000000E+00 0.  1.
         11    1    3    3    0    0  0.25192056148E+01 -0.69833064268E+01  0.11930730316E+02  0.14051878583E+02  0.51100000000E-03 0. -1.
        -11    1    3    3    0    0 -0.12515768006E+02  0.86318359930E+01  0.14778441513E+02  0.21202720939E+02  0.51100000000E-03 0.  1.
         12    1    3    3    0    0  0.11261963625E+02  0.16429900098E+02 -0.31425895123E+02  0.37206992974E+02  0.00000000000E+00 0. -1.
</event>
<event>
 7    1  0.2809593E-013  0.7246155E+02  0.7816164E-02  0.1226708E+00
        -11   -1    0    0    0    0  0.00000000000E+00  0.00000000000E+00  0.45593999997E+02  0.45594000000E+02  0.51100000000E-03 0.  1.
         11   -1    0    0    0    0 -0.00000000000E+00 -0.00000000000E+00 -0.45593999997E+02  0.45594000000E+02  0.51100000000E-03 0. -1.
    9900012    2    1    2    0    0  0.44539308960E+01 -0.90228101121E+01 -0.15793394563E+02  0.72461550401E+02  0.69999974085E+02 0.  0.
        -12    1    1    2    0    0 -0.44539308960E+01  0.90228101121E+01  0.15793394563E+02  0.18726449599E+02  0.00000000000E+00 0.  1.
         11    1    3    3    0    0  0.12853659726E+02  0.15890325959E+01 -0.28368635726E+02  0.31185270340E+02  0.51100000000E-03 0. -1.
        -11    1    3    3    0    0 -0.11693848939E+02 -0.12608852292E+01 -0.10748305121E+02  0.15933047348E+02  0.51100000000E-03 0.  1.
         12    1    3    3    0    0  0.32941201092E+01 -0.93509574788E+01  0.23323546284E+02  0.25343232713E+02  0.00000000000E+00 0. -1.
</event>
<event>
 7    1  0.2809593E-013  0.7246156E+02  0.7816164E-02  0.1226708E+00
        -11   -1    0    0    0    0  0.00000000000E+00  0.00000000000E+00  0.45593999997E+02  0.45594000000E+02  0.51100000000E-03 0. -1.
         11   -1    0    0    0    0 -0.00000000000E+00 -0.00000000000E+00 -0.45593999997E+02  0.45594000000E+02  0.51100000000E-03 0.  1.
    9900012    2    1    2    0    0 -0.12330243998E+02 -0.15406808859E+01  0.14009670692E+02  0.72461561803E+02  0.69999988939E+02 0.  0.
        -12    1    1    2    0    0  0.12330243998E+02  0.15406808859E+01 -0.14009670692E+02  0.18726438197E+02  0.00000000000E+00 0.  1.
         11    1    3    3    0    0  0.84147484170E+00 -0.10683121808E+02 -0.99519023482E+00  0.10762322023E+02  0.51100000000E-03 0.  1.
        -11    1    3    3    0    0  0.14754741305E+02  0.20389025117E+02  0.18717801237E+02  0.31365121068E+02  0.51100000000E-03 0. -1.
         12    1    3    3    0    0 -0.27926460145E+02 -0.11246584195E+02 -0.37129403102E+01  0.30334118712E+02  0.00000000000E+00 0. -1.
</event>
<event>
 7    1  0.2809593E-013  0.7246156E+02  0.7816164E-02  0.1226708E+00
        -11   -1    0    0    0    0  0.00000000000E+00  0.00000000000E+00  0.45593999997E+02  0.45594000000E+02  0.51100000000E-03 0.  1.
         11   -1    0    0    0    0 -0.00000000000E+00 -0.00000000000E+00 -0.45593999997E+02  0.45594000000E+02  0.51100000000E-03 0. -1.
    9900012    2    1    2    0    0 -0.10268576216E+02 -0.13995586792E+02 -0.70256177318E+01  0.72461563829E+02  0.69999991578E+02 0.  0.
        -12    1    1    2    0    0  0.10268576216E+02  0.13995586792E+02  0.70256177318E+01  0.18726436171E+02  0.00000000000E+00 0.  1.
         11    1    3    3    0    0 -0.19685426915E+02 -0.10142523118E+02 -0.55777040913E+01  0.22836321754E+02  0.51100000000E-03 0. -1.
        -11    1    3    3    0    0  0.10074543566E+02 -0.36323253757E+01  0.22893185429E+02  0.25274258744E+02  0.51100000000E-03 0.  1.
        -12    1    3    3    0    0 -0.65769286682E+00 -0.22073829833E+00 -0.24341099069E+02  0.24350983331E+02  0.00000000000E+00 0.  1.
</event>
<event>
 7    1  0.2809593E-013  0.7246167E+02  0.7816164E-02  0.1226708E+00
        -11   -1    0    0    0    0  0.00000000000E+00  0.00000000000E+00  0.45593999997E+02  0.45594000000E+02  0.51100000000E-03 0.  1.
         11   -1    0    0    0    0 -0.00000000000E+00 -0.00000000000E+00 -0.45593999997E+02  0.45594000000E+02  0.51100000000E-03 0. -1.
    9900012    2    1    2    0    0  0.16192804733E+02  0.70680514726E+01  0.62057504741E+01  0.72461665183E+02  0.70000123610E+02 0.  0.
        -12    1    1    2    0    0 -0.16192804733E+02 -0.70680514726E+01 -0.62057504741E+01  0.18726334817E+02  0.00000000000E+00 0.  1.
         11    1    3    3    0    0  0.72498616534E+01 -0.16291069441E+02  0.86188675756E+01  0.19805158825E+02  0.51100000000E-03 0. -1.
        -11    1    3    3    0    0 -0.18889910222E+02  0.67539993648E+01 -0.27242910278E+01  0.20245171708E+02  0.51100000000E-03 0.  1.
        -12    1    3    3    0    0  0.27832853302E+02  0.16605121549E+02  0.31117392634E+00  0.32411334650E+02  0.00000000000E+00 0.  1.
</event>
<event>
 7    1  0.2809593E-013  0.7246146E+02  0.7816164E-02  0.1226708E+00
        -11   -1    0    0    0    0  0.00000000000E+00  0.00000000000E+00  0.45593999997E+02  0.45594000000E+02  0.51100000000E-03 0.  1.
         11   -1    0    0    0    0 -0.00000000000E+00 -0.00000000000E+00 -0.45593999997E+02  0.45594000000E+02  0.51100000000E-03 0. -1.
    9900012    2    1    2    0    0  0.95979828776E+01  0.15443876379E+02 -0.44775711515E+01  0.72461461710E+02  0.69999858548E+02 0.  0.
        -12    1    1    2    0    0 -0.95979828776E+01 -0.15443876379E+02  0.44775711515E+01  0.18726538290E+02  0.00000000000E+00 0.  1.
         11    1    3    3    0    0 -0.96501974055E+01  0.34062543102E+02 -0.11190009472E+02  0.37129495887E+02  0.51100000000E-03 0. -1.
        -11    1    3    3    0    0  0.84870201588E+01  0.15790904814E+00 -0.58494028574E+01  0.10308732245E+02  0.51100000000E-03 0.  1.
        -12    1    3    3    0    0  0.10761160124E+02 -0.18776575772E+02  0.12561841178E+02  0.25023233578E+02  0.00000000000E+00 0.  1.
</event>
<event>
 7    1  0.2809593E-013  0.7246154E+02  0.7816164E-02  0.1226708E+00
        -11   -1    0    0    0    0  0.00000000000E+00  0.00000000000E+00  0.45593999997E+02  0.45594000000E+02  0.51100000000E-03 0.  1.
         11   -1    0    0    0    0 -0.00000000000E+00 -0.00000000000E+00 -0.45593999997E+02  0.45594000000E+02  0.51100000000E-03 0. -1.
    9900012    2    1    2    0    0  0.18410870979E+01  0.18342331149E+02 -0.32938451339E+01  0.72461544664E+02  0.69999966612E+02 0.  0.
        -12    1    1    2    0    0 -0.18410870979E+01 -0.18342331149E+02  0.32938451339E+01  0.18726455336E+02  0.00000000000E+00 0.  1.
         11    1    3    3    0    0  0.63427775839E+01  0.30371406423E+02 -0.23063982527E+02  0.38660062672E+02  0.51100000000E-03 0. -1.
        -11    1    3    3    0    0 -0.43649175155E+01  0.66884915893E+01  0.96376676700E+01  0.12516911082E+02  0.51100000000E-03 0.  1.
        -12    1    3    3    0    0 -0.13677297053E+00 -0.18717566863E+02  0.10132469723E+02  0.21284570909E+02  0.00000000000E+00 0.  1.
</event>
<event>
 7    1  0.2809593E-013  0.7246157E+02  0.7816164E-02  0.1226708E+00
        -11   -1    0    0    0    0  0.00000000000E+00  0.00000000000E+00  0.45593999997E+02  0.45594000000E+02  0.51100000000E-03 0.  1.
         11   -1    0    0    0    0 -0.00000000000E+00 -0.00000000000E+00 -0.45593999997E+02  0.45594000000E+02  0.51100000000E-03 0. -1.
    9900012    2    1    2    0    0  0.47602489983E+01  0.18094129201E+02 -0.78853734302E+00  0.72461567526E+02  0.69999996394E+02 0.  0.
        -12    1    1    2    0    0 -0.47602489983E+01 -0.18094129201E+02  0.78853734302E+00  0.18726432474E+02  0.00000000000E+00 0.  1.
         11    1    3    3    0    0 -0.12442126143E+02  0.38035852944E+01 -0.10541087359E+02  0.16744798805E+02  0.51100000000E-03 0. -1.
        -11    1    3    3    0    0 -0.96884529858E+01  0.21364687230E+02  0.14399105837E+02  0.27525446970E+02  0.51100000000E-03 0.  1.
         12    1    3    3    0    0  0.26890828127E+02 -0.70741433241E+01 -0.46465558217E+01  0.28191321752E+02  0.00000000000E+00 0. -1.
</event>
<event>
 7    1  0.2809593E-013  0.7246162E+02  0.7816164E-02  0.1226708E+00
        -11   -1    0    0    0    0  0.00000000000E+00  0.00000000000E+00  0.45593999997E+02  0.45594000000E+02  0.51100000000E-03 0.  1.
         11   -1    0    0    0    0 -0.00000000000E+00 -0.00000000000E+00 -0.45593999997E+02  0.45594000000E+02  0.51100000000E-03 0. -1.
    9900012    2    1    2    0    0  0.39000918144E+01 -0.18260340870E+02  0.14235402446E+01  0.72461622035E+02  0.70000067402E+02 0.  0.
        -12    1    1    2    0    0 -0.39000918144E+01  0.18260340870E+02 -0.14235402446E+01  0.18726377965E+02  0.00000000000E+00 0.  1.
         11    1    3    3    0    0 -0.27841203541E+01 -0.48047847112E+01 -0.29572750596E+02  0.30089613828E+02  0.51100000000E-03 0. -1.
        -11    1    3    3    0    0  0.10307235192E+02 -0.16914349648E+02  0.13002054088E+02  0.23693622182E+02  0.51100000000E-03 0.  1.
        -12    1    3    3    0    0 -0.36230230232E+01  0.34587934890E+01  0.17994236752E+02  0.18678386025E+02  0.00000000000E+00 0.  1.
</event>
<event>
 7    1  0.2809593E-013  0.7246156E+02  0.7816164E-02  0.1226708E+00
        -11   -1    0    0    0    0  0.00000000000E+00  0.00000000000E+00  0.45593999997E+02  0.45594000000E+02  0.51100000000E-03 0.  1.
         11   -1    0    0    0    0 -0.00000000000E+00 -0.00000000000E+00 -0.45593999997E+02  0.45594000000E+02  0.51100000000E-03 0. -1.
    9900012    2    1    2    0    0  0.22318565450E+01 -0.15229165208E+02 -0.10666347154E+02  0.72461558315E+02  0.69999984395E+02 0.  0.
        -12    1    1    2    0    0 -0.22318565450E+01  0.15229165208E+02  0.10666347154E+02  0.18726441685E+02  0.00000000000E+00 0.  1.
         11    1    3    3    0    0 -0.70934220286E+01 -0.99525500242E+01  0.19756069508E+01  0.12380343741E+02  0.51100000000E-03 0. -1.
        -11    1    3    3    0    0 -0.22607759385E+02 -0.11692805077E+02 -0.93421961668E+00  0.25469692608E+02  0.51100000000E-03 0.  1.
         12    1    3    3    0    0  0.31933037958E+02  0.64161898936E+01 -0.11707734488E+02  0.34611521966E+02  0.00000000000E+00 0. -1.
</event>
<event>
 7    1  0.2809593E-013  0.7246160E+02  0.7816164E-02  0.1226708E+00
        -11   -1    0    0    0    0  0.00000000000E+00  0.00000000000E+00  0.45593999997E+02  0.45594000000E+02  0.51100000000E-03 0. -1.
         11   -1    0    0    0    0 -0.00000000000E+00 -0.00000000000E+00 -0.45593999997E+02  0.45594000000E+02  0.51100000000E-03 0.  1.
    9900012    2    1    2    0    0 -0.11195014683E+02 -0.10822857332E+02 -0.10402674678E+02  0.72461595245E+02  0.70000032503E+02 0.  0.
        -12    1    1    2    0    0  0.11195014683E+02  0.10822857332E+02  0.10402674678E+02  0.18726404755E+02  0.00000000000E+00 0.  1.
         11    1    3    3    0    0  0.15808619892E+02  0.10524740849E+02  0.44790721188E+01  0.19512681008E+02  0.51100000000E-03 0. -1.
        -11    1    3    3    0    0  0.38685246008E+01  0.40988735074E+01  0.56499088472E+01  0.79804584366E+01  0.51100000000E-03 0.  1.
        -12    1    3    3    0    0 -0.30872159176E+02 -0.25446471688E+02 -0.20531655644E+02  0.44968455800E+02  0.00000000000E+00 0.  1.
</event>
<event>
 7    1  0.2809593E-013  0.7246156E+02  0.7816164E-02  0.1226708E+00
        -11   -1    0    0    0    0  0.00000000000E+00  0.00000000000E+00  0.45593999997E+02  0.45594000000E+02  0.51100000000E-03 0.  1.
         11   -1    0    0    0    0 -0.00000000000E+00 -0.00000000000E+00 -0.45593999997E+02  0.45594000000E+02  0.51100000000E-03 0. -1.
    9900012    2    1    2    0    0  0.11442335896E+02 -0.14652068238E+02  0.22515391139E+01  0.72461559260E+02  0.69999985626E+02 0.  0.
        -12    1    1    2    0    0 -0.11442335896E+02  0.14652068238E+02 -0.22515391139E+01  0.18726440740E+02  0.00000000000E+00 0.  1.
         11    1    3    3    0    0 -0.23072312970E+01 -0.45361037081E+01 -0.16747104563E+02  0.17503287252E+02  0.51100000000E-03 0. -1.
        -11    1    3    3    0    0 -0.17052205650E+01  0.15848993468E+02 -0.46310466783E+01  0.16599547124E+02  0.51100000000E-03 0.  1.
        -12    1    3    3    0    0  0.15454787758E+02 -0.25964957998E+02  0.23629690355E+02  0.38358724884E+02  0.00000000000E+00 0.  1.
</event>
<event>
 7    1  0.2809593E-013  0.7246152E+02  0.7816164E-02  0.1226708E+00
        -11   -1    0    0    0    0  0.00000000000E+00  0.00000000000E+00  0.45593999997E+02  0.45594000000E+02  0.51100000000E-03 0. -1.
         11   -1    0    0    0    0 -0.00000000000E+00 -0.00000000000E+00 -0.45593999997E+02  0.45594000000E+02  0.51100000000E-03 0.  1.
    9900012    2    1    2    0    0  0.14678512929E+02 -0.10604072271E+02  0.47724226320E+01  0.72461518528E+02  0.69999932565E+02 0.  0.
        -12    1    1    2    0    0 -0.14678512929E+02  0.10604072271E+02 -0.47724226320E+01  0.18726481472E+02  0.00000000000E+00 0.  1.
         11    1    3    3    0    0 -0.96255303609E+01 -0.67343615849E+01 -0.18536984577E+01  0.11892798616E+02  0.51100000000E-03 0. -1.
        -11    1    3    3    0    0  0.16601064032E+02 -0.13655932745E+02 -0.21132651191E+02  0.30144133306E+02  0.51100000000E-03 0.  1.
         12    1    3    3    0    0  0.77029792583E+01  0.97862220596E+01  0.27758772280E+02  0.30424586606E+02  0.00000000000E+00 0. -1.
</event>
<event>
 7    1  0.2809593E-013  0.7246159E+02  0.7816164E-02  0.1226708E+00
        -11   -1    0    0    0    0  0.00000000000E+00  0.00000000000E+00  0.45593999997E+02  0.45594000000E+02  0.51100000000E-03 0.  1.
         11   -1    0    0    0    0 -0.00000000000E+00 -0.00000000000E+00 -0.45593999997E+02  0.45594000000E+02  0.51100000000E-03 0. -1.
    9900012    2    1    2    0    0 -0.12910807523E+02  0.43957952622E+01 -0.12832243025E+02  0.72461590095E+02  0.70000025795E+02 0.  0.
        -12    1    1    2    0    0  0.12910807523E+02 -0.43957952622E+01  0.12832243025E+02  0.18726409905E+02  0.00000000000E+00 0.  1.
         11    1    3    3    0    0 -0.13292824839E+02  0.20156465720E+02 -0.18432164871E+02  0.30376421854E+02  0.51100000000E-03 0. -1.
        -11    1    3    3    0    0  0.60358419378E-01  0.19753434098E+01 -0.14868714181E+02  0.14999476203E+02  0.51100000000E-03 0.  1.
        -12    1    3    3    0    0  0.32165889749E+00 -0.17736013868E+02  0.20468636027E+02  0.27085692038E+02  0.00000000000E+00 0.  1.
</event>
<event>
 7    1  0.2809593E-013  0.7246159E+02  0.7816164E-02  0.1226708E+00
        -11   -1    0    0    0    0  0.00000000000E+00  0.00000000000E+00  0.45593999997E+02  0.45594000000E+02  0.51100000000E-03 0. -1.
         11   -1    0    0    0    0 -0.00000000000E+00 -0.00000000000E+00 -0.45593999997E+02  0.45594000000E+02  0.51100000000E-03 0.  1.
    9900012    2    1    2    0    0  0.16475774909E+02  0.89004943583E+01 -0.92849755827E-01  0.72461586042E+02  0.70000020514E+02 0.  0.
        -12    1    1    2    0    0 -0.16475774909E+02 -0.89004943583E+01  0.92849755827E-01  0.18726413958E+02  0.00000000000E+00 0.  1.
         11    1    3    3    0    0 -0.16646583746E+02  0.10886256435E+02  0.12788940026E+02  0.23646909245E+02  0.51100000000E-03 0. -1.
        -11    1    3    3    0    0 -0.44821835714E+01 -0.15086534209E+01 -0.10042172496E+02  0.11100055559E+02  0.51100000000E-03 0.  1.
        -12    1    3    3    0    0  0.37604542227E+02 -0.47710865570E+00 -0.28396172855E+01  0.37714621237E+02  0.00000000000E+00 0.  1.
</event>
<event>
 7    1  0.2809593E-013  0.7246159E+02  0.7816164E-02  0.1226708E+00
        -11   -1    0    0    0    0  0.00000000000E+00  0.00000000000E+00  0.45593999997E+02  0.45594000000E+02  0.51100000000E-03 0. -1.
         11   -1    0    0    0    0 -0.00000000000E+00 -0.00000000000E+00 -0.45593999997E+02  0.45594000000E+02  0.51100000000E-03 0.  1.
    9900012    2    1    2    0    0  0.14636440634E+02  0.11674387749E+02  0.40201555554E+00  0.72461592436E+02  0.70000028844E+02 0.  0.
        -12    1    1    2    0    0 -0.14636440634E+02 -0.11674387749E+02 -0.40201555554E+00  0.18726407564E+02  0.00000000000E+00 0.  1.
         11    1    3    3    0    0  0.10865063095E+02  0.18608466604E+02  0.95640224263E+01  0.23575308071E+02  0.51100000000E-03 0. -1.
        -11    1    3    3    0    0 -0.15244772000E+02  0.50550731190E+01  0.10360247788E+02  0.19112602441E+02  0.51100000000E-03 0.  1.
        -12    1    3    3    0    0  0.19016149538E+02 -0.11989151975E+02 -0.19522254659E+02  0.29773681924E+02  0.00000000000E+00 0.  1.
</event>
<event>
 7    1  0.2809593E-013  0.7246160E+02  0.7816164E-02  0.1226708E+00
        -11   -1    0    0    0    0  0.00000000000E+00  0.00000000000E+00  0.45593999997E+02  0.45594000000E+02  0.51100000000E-03 0.  1.
         11   -1    0    0    0    0 -0.00000000000E+00 -0.00000000000E+00 -0.45593999997E+02  0.45594000000E+02  0.51100000000E-03 0. -1.
    9900012    2    1    2    0    0 -0.14507325236E+02 -0.67160923081E+01  0.97524244590E+01  0.72461597136E+02  0.70000034966E+02 0.  0.
        -12    1    1    2    0    0  0.14507325236E+02  0.67160923081E+01 -0.97524244590E+01  0.18726402864E+02  0.00000000000E+00 0.  1.
         11    1    3    3    0    0 -0.82516711356E+01 -0.36492664308E+02  0.79633428086E+01  0.38252051628E+02  0.51100000000E-03 0. -1.
        -11    1    3    3    0    0  0.46429010390E+01  0.62970036310E+01  0.27855158065E+01  0.83046904431E+01  0.51100000000E-03 0.  1.
        -12    1    3    3    0    0 -0.10898555140E+02  0.23479568368E+02 -0.99643415600E+00  0.25904855065E+02  0.00000000000E+00 0.  1.
</event>
<event>
 7    1  0.2809593E-013  0.7246159E+02  0.7816164E-02  0.1226708E+00
        -11   -1    0    0    0    0  0.00000000000E+00  0.00000000000E+00  0.45593999997E+02  0.45594000000E+02  0.51100000000E-03 0. -1.
         11   -1    0    0    0    0 -0.00000000000E+00 -0.00000000000E+00 -0.45593999997E+02  0.45594000000E+02  0.51100000000E-03 0.  1.
    9900012    2    1    2    0    0 -0.11413212824E+02  0.13972932346E+02  0.50173870192E+01  0.72461589831E+02  0.70000025450E+02 0.  0.
        -12    1    1    2    0    0  0.11413212824E+02 -0.13972932346E+02 -0.50173870192E+01  0.18726410169E+02  0.00000000000E+00 0.  1.
         11    1    3    3    0    0 -0.18105351998E+02 -0.16437908008E+02 -0.90748140391E+01  0.26083727509E+02  0.51100000000E-03 0.  1.
        -11    1    3    3    0    0 -0.81990304743E+01 -0.25881573447E+00  0.85284741655E+01  0.11833256448E+02  0.51100000000E-03 0. -1.
        -12    1    3    3    0    0  0.14891169649E+02  0.30669656088E+02  0.55637268928E+01  0.34544605875E+02  0.00000000000E+00 0.  1.
</event>
<event>
 8    1  0.2809593E-013  0.7246155E+02  0.7816164E-02  0.1226708E+00
        -11   -1    0    0    0    0  0.00000000000E+00  0.00000000000E+00  0.45593999997E+02  0.45594000000E+02  0.51100000000E-03 0.  1.
         11   -1    0    0    0    0 -0.00000000000E+00 -0.00000000000E+00 -0.45593999997E+02  0.45594000000E+02  0.51100000000E-03 0. -1.
    9900012    2    1    2    0    0  0.49678841482E+01 -0.17424107698E+02 -0.47329193081E+01  0.72461550065E+02  0.69999973647E+02 0.  0.
         23    2    3    3    0    0  0.51363342365E+01 -0.17338693589E+02  0.99091988687E+01  0.57818213843E+02  0.54016121714E+02 0.  0.
        -12    1    1    2    0    0 -0.49678841482E+01  0.17424107698E+02  0.47329193081E+01  0.18726449935E+02  0.00000000000E+00 0.  1.
         11    1    4    4    0    0  0.17888198778E+02  0.92248160705E+01 -0.97825580061E+01  0.22378188677E+02  0.51100000000E-03 0. -1.
        -11    1    4    4    0    0 -0.12751864542E+02 -0.26563509659E+02  0.19691756875E+02  0.35440025166E+02  0.51100000000E-03 0.  1.
         12    1    3    3    0    0 -0.16845008835E+00 -0.85414109760E-01 -0.14642118177E+02  0.14643336222E+02  0.00000000000E+00 0. -1.
</event>
<event>
 7    1  0.2809593E-013  0.7246159E+02  0.7816164E-02  0.1226708E+00
        -11   -1    0    0    0    0  0.00000000000E+00  0.00000000000E+00  0.45593999997E+02  0.45594000000E+02  0.51100000000E-03 0.  1.
         11   -1    0    0    0    0 -0.00000000000E+00 -0.00000000000E+00 -0.45593999997E+02  0.45594000000E+02  0.51100000000E-03 0. -1.
    9900012    2    1    2    0    0  0.89965582258E+01  0.10003995246E+02 -0.13025381698E+02  0.72461586858E+02  0.70000021577E+02 0.  0.
        -12    1    1    2    0    0 -0.89965582258E+01 -0.10003995246E+02  0.13025381698E+02  0.18726413142E+02  0.00000000000E+00 0.  1.
         11    1    3    3    0    0  0.19417949585E+01  0.63578480598E+01 -0.25851571430E+02  0.26692630917E+02  0.51100000000E-03 0. -1.
        -11    1    3    3    0    0  0.22774037925E+02  0.94518155156E+01  0.15015081525E+02  0.28869469919E+02  0.51100000000E-03 0.  1.
         12    1    3    3    0    0 -0.15719274658E+02 -0.58056683296E+01 -0.21888917938E+01  0.16899486022E+02  0.00000000000E+00 0. -1.
</event>
<event>
 7    1  0.2809593E-013  0.7246156E+02  0.7816164E-02  0.1226708E+00
        -11   -1    0    0    0    0  0.00000000000E+00  0.00000000000E+00  0.45593999997E+02  0.45594000000E+02  0.51100000000E-03 0.  1.
         11   -1    0    0    0    0 -0.00000000000E+00 -0.00000000000E+00 -0.45593999997E+02  0.45594000000E+02  0.51100000000E-03 0. -1.
    9900012    2    1    2    0    0 -0.36713057639E+01 -0.18185659833E+02 -0.25461772084E+01  0.72461555384E+02  0.69999980576E+02 0.  0.
        -12    1    1    2    0    0  0.36713057639E+01  0.18185659833E+02  0.25461772084E+01  0.18726444616E+02  0.00000000000E+00 0.  1.
         11    1    3    3    0    0  0.11800922530E+02  0.36798833328E+01  0.72371168481E+01  0.14324076739E+02  0.51100000000E-03 0. -1.
        -11    1    3    3    0    0 -0.22733757486E+02 -0.10962159265E+02  0.15530897207E+02  0.29634463611E+02  0.51100000000E-03 0.  1.
         12    1    3    3    0    0  0.72615291922E+01 -0.10903383901E+02 -0.25314191264E+02  0.28503015034E+02  0.00000000000E+00 0. -1.
</event>
<event>
 7    1  0.2809593E-013  0.7246154E+02  0.7816164E-02  0.1226708E+00
        -11   -1    0    0    0    0  0.00000000000E+00  0.00000000000E+00  0.45593999997E+02  0.45594000000E+02  0.51100000000E-03 0.  1.
         11   -1    0    0    0    0 -0.00000000000E+00 -0.00000000000E+00 -0.45593999997E+02  0.45594000000E+02  0.51100000000E-03 0. -1.
    9900012    2    1    2    0    0  0.13919783514E+02  0.58090525739E+01 -0.11098417231E+02  0.72461539312E+02  0.69999959640E+02 0.  0.
        -12    1    1    2    0    0 -0.13919783514E+02 -0.58090525739E+01  0.11098417231E+02  0.18726460688E+02  0.00000000000E+00 0.  1.
         11    1    3    3    0    0 -0.57772853779E+01  0.33878325096E+02 -0.13241034942E+02  0.36829919145E+02  0.51100000000E-03 0. -1.
        -11    1    3    3    0    0  0.27403963117E+01 -0.31861295030E+01  0.35298017718E+01  0.54882323169E+01  0.51100000000E-03 0.  1.
        -12    1    3    3    0    0  0.16956672580E+02 -0.24883143019E+02 -0.13871840608E+01  0.30143387850E+02  0.00000000000E+00 0.  1.
</event>
<event>
 7    1  0.2809593E-013  0.7246155E+02  0.7816164E-02  0.1226708E+00
        -11   -1    0    0    0    0  0.00000000000E+00  0.00000000000E+00  0.45593999997E+02  0.45594000000E+02  0.51100000000E-03 0. -1.
         11   -1    0    0    0    0 -0.00000000000E+00 -0.00000000000E+00 -0.45593999997E+02  0.45594000000E+02  0.51100000000E-03 0.  1.
    9900012    2    1    2    0    0 -0.14535424489E+02  0.11505456360E+02 -0.26506147737E+01  0.72461552131E+02  0.69999976339E+02 0.  0.
        -12    1    1    2    0    0  0.14535424489E+02 -0.11505456360E+02  0.26506147737E+01  0.18726447869E+02  0.00000000000E+00 0.  1.
         11    1    3    3    0    0  0.26556086033E+02  0.69744319970E+01 -0.11333601780E+02  0.29703853903E+02  0.51100000000E-03 0. -1.
        -11    1    3    3    0    0  0.65944174617E-01 -0.25337519005E+00  0.43866844325E+00  0.51085994687E+00  0.51100000000E-03 0.  1.
        -12    1    3    3    0    0 -0.41157454697E+02  0.47843995526E+01  0.82443185634E+01  0.42246838281E+02  0.00000000000E+00 0.  1.
</event>
