<event>
 7    1  0.6489567E-013  0.5930194E+02  0.7816164E-02  0.1266605E+00
        -11   -1    0    0    0    0  0.00000000000E+00  0.00000000000E+00  0.45593999997E+02  0.45594000000E+02  0.51100000000E-03 0.  1.
         11   -1    0    0    0    0 -0.00000000000E+00 -0.00000000000E+00 -0.45593999997E+02  0.45594000000E+02  0.51100000000E-03 0. -1.
    9900012    2    1    2    0    0 -0.28307920339E+01  0.26863830795E+01 -0.31646340725E+02  0.59301938486E+02  0.49999989892E+02 0.  0.
        -12    1    1    2    0    0  0.28307920339E+01 -0.26863830795E+01  0.31646340725E+02  0.31886061514E+02  0.00000000000E+00 0.  1.
         11    1    3    3    0    0 -0.72366970530E+01 -0.71815847493E+01 -0.85004897720E+01  0.13274157991E+02  0.51100000000E-03 0. -1.
        -11    1    3    3    0    0 -0.43219641724E+01  0.14341123012E+02 -0.30359396421E+02  0.33853214542E+02  0.51100000000E-03 0.  1.
        -12    1    3    3    0    0  0.87278691915E+01 -0.44731551829E+01  0.72135454674E+01  0.12174565952E+02  0.00000000000E+00 0.  1.
</event>
<event>
 7    1  0.6489567E-013  0.5930193E+02  0.7816164E-02  0.1266605E+00
        -11   -1    0    0    0    0  0.00000000000E+00  0.00000000000E+00  0.45593999997E+02  0.45594000000E+02  0.51100000000E-03 0.  1.
         11   -1    0    0    0    0 -0.00000000000E+00 -0.00000000000E+00 -0.45593999997E+02  0.45594000000E+02  0.51100000000E-03 0. -1.
    9900012    2    1    2    0    0 -0.19155117356E+02  0.94285388854E+01 -0.23683441027E+02  0.59301933367E+02  0.49999980557E+02 0.  0.
        -12    1    1    2    0    0  0.19155117356E+02 -0.94285388854E+01  0.23683441027E+02  0.31886066633E+02  0.00000000000E+00 0.  1.
         11    1    3    3    0    0 -0.91598847196E+01 -0.11649900557E+02 -0.55326454231E+00  0.14830029433E+02  0.51100000000E-03 0. -1.
        -11    1    3    3    0    0 -0.96644806709E+01  0.21821628800E+02 -0.26917665041E+01  0.24017312033E+02  0.51100000000E-03 0.  1.
         12    1    3    3    0    0 -0.33075196533E+00 -0.74318935722E+00 -0.20438409981E+02  0.20454591901E+02  0.00000000000E+00 0. -1.
</event>
<event>
 7    1  0.6489567E-013  0.5930175E+02  0.7816164E-02  0.1266605E+00
        -11   -1    0    0    0    0  0.00000000000E+00  0.00000000000E+00  0.45593999997E+02  0.45594000000E+02  0.51100000000E-03 0. -1.
         11   -1    0    0    0    0 -0.00000000000E+00 -0.00000000000E+00 -0.45593999997E+02  0.45594000000E+02  0.51100000000E-03 0.  1.
    9900012    2    1    2    0    0 -0.23434415713E+02  0.57669453374E+01  0.20839947674E+02  0.59301750340E+02  0.49999646759E+02 0.  0.
        -12    1    1    2    0    0  0.23434415713E+02 -0.57669453374E+01 -0.20839947674E+02  0.31886249660E+02  0.00000000000E+00 0.  1.
         11    1    3    3    0    0  0.20960011687E+01  0.12915716204E+02  0.97317832693E+01  0.16306947962E+02  0.51100000000E-03 0. -1.
        -11    1    3    3    0    0 -0.79386080395E+01  0.12700860618E+02  0.48482665976E+01  0.15742904665E+02  0.51100000000E-03 0.  1.
        -12    1    3    3    0    0 -0.17591808842E+02 -0.19849631484E+02  0.62598978073E+01  0.27251897713E+02  0.00000000000E+00 0.  1.
</event>
<event>
 7    1  0.6489567E-013  0.5930195E+02  0.7816164E-02  0.1266605E+00
        -11   -1    0    0    0    0  0.00000000000E+00  0.00000000000E+00  0.45593999997E+02  0.45594000000E+02  0.51100000000E-03 0. -1.
         11   -1    0    0    0    0 -0.00000000000E+00 -0.00000000000E+00 -0.45593999997E+02  0.45594000000E+02  0.51100000000E-03 0.  1.
    9900012    2    1    2    0    0  0.10339088510E+02  0.25320868925E+02  0.16391374036E+02  0.59301948236E+02  0.50000007674E+02 0.  0.
        -12    1    1    2    0    0 -0.10339088510E+02 -0.25320868925E+02 -0.16391374036E+02  0.31886051764E+02  0.00000000000E+00 0.  1.
         11    1    3    3    0    0  0.92558607026E+01 -0.94545744503E+00 -0.13110204607E+01  0.93959364640E+01  0.51100000000E-03 0. -1.
        -11    1    3    3    0    0 -0.15872450819E+02  0.45709939613E+01  0.14871266821E+02  0.22225734137E+02  0.51100000000E-03 0.  1.
         12    1    3    3    0    0  0.16955678626E+02  0.21695332409E+02  0.28311276755E+01  0.27680277635E+02  0.00000000000E+00 0. -1.
</event>
<event>
 7    1  0.6489567E-013  0.5930198E+02  0.7816164E-02  0.1266605E+00
        -11   -1    0    0    0    0  0.00000000000E+00  0.00000000000E+00  0.45593999997E+02  0.45594000000E+02  0.51100000000E-03 0. -1.
         11   -1    0    0    0    0 -0.00000000000E+00 -0.00000000000E+00 -0.45593999997E+02  0.45594000000E+02  0.51100000000E-03 0.  1.
    9900012    2    1    2    0    0 -0.30361885539E+02 -0.77178867917E+01  0.59420662662E+01  0.59301983919E+02  0.50000072753E+02 0.  0.
        -12    1    1    2    0    0  0.30361885539E+02  0.77178867917E+01 -0.59420662662E+01  0.31886016081E+02  0.00000000000E+00 0.  1.
         11    1    3    3    0    0 -0.28458513581E+02 -0.42956552026E+01  0.11749422630E+02  0.31086791106E+02  0.51100000000E-03 0. -1.
        -11    1    3    3    0    0 -0.14351103322E+02 -0.46921129975E+01 -0.31457451685E+01  0.15422898686E+02  0.51100000000E-03 0.  1.
        -12    1    3    3    0    0  0.12447731364E+02  0.12698814084E+01 -0.26616111948E+01  0.12792294128E+02  0.00000000000E+00 0.  1.
</event>
<event>
 7    1  0.6489567E-013  0.5930195E+02  0.7816164E-02  0.1266605E+00
        -11   -1    0    0    0    0  0.00000000000E+00  0.00000000000E+00  0.45593999997E+02  0.45594000000E+02  0.51100000000E-03 0.  1.
         11   -1    0    0    0    0 -0.00000000000E+00 -0.00000000000E+00 -0.45593999997E+02  0.45594000000E+02  0.51100000000E-03 0. -1.
    9900012    2    1    2    0    0  0.28908257202E+02 -0.11722597117E+02  0.66040515036E+01  0.59301951109E+02  0.50000012915E+02 0.  0.
        -12    1    1    2    0    0 -0.28908257202E+02  0.11722597117E+02 -0.66040515036E+01  0.31886048891E+02  0.00000000000E+00 0.  1.
         11    1    3    3    0    0  0.13972097791E+02 -0.17034852994E+01 -0.12948493135E+02  0.19125502701E+02  0.51100000000E-03 0. -1.
        -11    1    3    3    0    0  0.73587964441E+01 -0.17719280347E+02  0.16376993293E+01  0.19256345460E+02  0.51100000000E-03 0.  1.
        -12    1    3    3    0    0  0.75773629671E+01  0.77001685297E+01  0.17914845309E+02  0.20920102948E+02  0.00000000000E+00 0.  1.
</event>
<event>
 7    1  0.6489567E-013  0.5930197E+02  0.7816164E-02  0.1266605E+00
        -11   -1    0    0    0    0  0.00000000000E+00  0.00000000000E+00  0.45593999997E+02  0.45594000000E+02  0.51100000000E-03 0.  1.
         11   -1    0    0    0    0 -0.00000000000E+00 -0.00000000000E+00 -0.45593999997E+02  0.45594000000E+02  0.51100000000E-03 0. -1.
    9900012    2    1    2    0    0 -0.14974873719E+02  0.11118539848E+02 -0.25862138023E+02  0.59301969291E+02  0.50000046073E+02 0.  0.
        -12    1    1    2    0    0  0.14974873719E+02 -0.11118539848E+02  0.25862138023E+02  0.31886030709E+02  0.00000000000E+00 0.  1.
         11    1    3    3    0    0 -0.15969700515E+02  0.10760614305E+02 -0.37621028322E+01  0.19620794396E+02  0.51100000000E-03 0.  1.
        -11    1    3    3    0    0 -0.10935024749E+02  0.11935179178E+02 -0.12771259596E+02  0.20618640600E+02  0.51100000000E-03 0. -1.
         12    1    3    3    0    0  0.11929851545E+02 -0.11577253635E+02 -0.93287755955E+01  0.19062534294E+02  0.00000000000E+00 0. -1.
</event>
<event>
 7    1  0.6489567E-013  0.5930194E+02  0.7816164E-02  0.1266605E+00
        -11   -1    0    0    0    0  0.00000000000E+00  0.00000000000E+00  0.45593999997E+02  0.45594000000E+02  0.51100000000E-03 0. -1.
         11   -1    0    0    0    0 -0.00000000000E+00 -0.00000000000E+00 -0.45593999997E+02  0.45594000000E+02  0.51100000000E-03 0.  1.
    9900012    2    1    2    0    0 -0.17030055397E+02 -0.22019175129E+02  0.15551649094E+02  0.59301942707E+02  0.49999997591E+02 0.  0.
        -12    1    1    2    0    0  0.17030055397E+02  0.22019175129E+02 -0.15551649094E+02  0.31886057293E+02  0.00000000000E+00 0.  1.
         11    1    3    3    0    0 -0.64895754828E+00  0.43715747697E+01  0.14557623065E+02  0.15213684677E+02  0.51100000000E-03 0. -1.
        -11    1    3    3    0    0 -0.86827163895E+01  0.52148834395E+01  0.50308794374E+01  0.11309037155E+02  0.51100000000E-03 0.  1.
        -12    1    3    3    0    0 -0.76983814590E+01 -0.31605633338E+02 -0.40368534084E+01  0.32779220876E+02  0.00000000000E+00 0.  1.
</event>
<event>
 7    1  0.6489567E-013  0.5930192E+02  0.7816164E-02  0.1266605E+00
        -11   -1    0    0    0    0  0.00000000000E+00  0.00000000000E+00  0.45593999997E+02  0.45594000000E+02  0.51100000000E-03 0.  1.
         11   -1    0    0    0    0 -0.00000000000E+00 -0.00000000000E+00 -0.45593999997E+02  0.45594000000E+02  0.51100000000E-03 0. -1.
    9900012    2    1    2    0    0  0.14744703072E+01 -0.19764223849E+02 -0.24978454654E+02  0.59301924607E+02  0.49999964582E+02 0.  0.
        -12    1    1    2    0    0 -0.14744703072E+01  0.19764223849E+02  0.24978454654E+02  0.31886075393E+02  0.00000000000E+00 0.  1.
         11    1    3    3    0    0 -0.12583498736E+01  0.40628103944E+01  0.24332956198E+01  0.49000816870E+01  0.51100000000E-03 0. -1.
        -11    1    3    3    0    0  0.69492447384E+01 -0.61332651180E+01  0.94871778290E+01  0.13263313570E+02  0.51100000000E-03 0.  1.
         12    1    3    3    0    0 -0.42164245576E+01 -0.17693769126E+02 -0.36898928103E+02  0.41138529350E+02  0.00000000000E+00 0. -1.
</event>
<event>
 7    1  0.6489567E-013  0.5930193E+02  0.7816164E-02  0.1266605E+00
        -11   -1    0    0    0    0  0.00000000000E+00  0.00000000000E+00  0.45593999997E+02  0.45594000000E+02  0.51100000000E-03 0.  1.
         11   -1    0    0    0    0 -0.00000000000E+00 -0.00000000000E+00 -0.45593999997E+02  0.45594000000E+02  0.51100000000E-03 0. -1.
    9900012    2    1    2    0    0  0.54953727242E+01 -0.22460196494E+02 -0.21955903829E+02  0.59301933124E+02  0.49999980114E+02 0.  0.
        -12    1    1    2    0    0 -0.54953727242E+01  0.22460196494E+02  0.21955903829E+02  0.31886066876E+02  0.00000000000E+00 0.  1.
         11    1    3    3    0    0 -0.70844361930E+00 -0.16884055950E+02 -0.20064494351E+02  0.26232749979E+02  0.51100000000E-03 0. -1.
        -11    1    3    3    0    0  0.14880806825E+02  0.78480635831E+01 -0.28184888853E+01  0.17057971557E+02  0.51100000000E-03 0.  1.
         12    1    3    3    0    0 -0.86769904817E+01 -0.13424204127E+02  0.92707940749E+00  0.16011211587E+02  0.00000000000E+00 0. -1.
</event>
<event>
 7    1  0.6489567E-013  0.5930194E+02  0.7816164E-02  0.1266605E+00
        -11   -1    0    0    0    0  0.00000000000E+00  0.00000000000E+00  0.45593999997E+02  0.45594000000E+02  0.51100000000E-03 0.  1.
         11   -1    0    0    0    0 -0.00000000000E+00 -0.00000000000E+00 -0.45593999997E+02  0.45594000000E+02  0.51100000000E-03 0. -1.
    9900012    2    1    2    0    0  0.21465865317E+02 -0.41776097408E+01 -0.23205278396E+02  0.59301941253E+02  0.49999994940E+02 0.  0.
        -12    1    1    2    0    0 -0.21465865317E+02  0.41776097408E+01  0.23205278396E+02  0.31886058747E+02  0.00000000000E+00 0.  1.
         11    1    3    3    0    0  0.25409988041E+02  0.19397318531E+01 -0.20602305869E+02  0.32770185524E+02  0.51100000000E-03 0. -1.
        -11    1    3    3    0    0 -0.36709980684E+01  0.72559217469E+01 -0.86326465810E+01  0.11859477833E+02  0.51100000000E-03 0.  1.
        -12    1    3    3    0    0 -0.27312465575E+00 -0.13373263341E+02  0.60296740539E+01  0.14672277896E+02  0.00000000000E+00 0.  1.
</event>
<event>
 7    1  0.6489567E-013  0.5930207E+02  0.7816164E-02  0.1266604E+00
        -11   -1    0    0    0    0  0.00000000000E+00  0.00000000000E+00  0.45593999997E+02  0.45594000000E+02  0.51100000000E-03 0. -1.
         11   -1    0    0    0    0 -0.00000000000E+00 -0.00000000000E+00 -0.45593999997E+02  0.45594000000E+02  0.51100000000E-03 0.  1.
    9900012    2    1    2    0    0 -0.10315368141E+01  0.23762526219E+02  0.21236538095E+02  0.59302074096E+02  0.50000237212E+02 0.  0.
        -12    1    1    2    0    0  0.10315368141E+01 -0.23762526219E+02 -0.21236538095E+02  0.31885925904E+02  0.00000000000E+00 0.  1.
         11    1    3    3    0    0  0.11590390682E+02  0.26408527444E+02 -0.38836870455E+00  0.28842647389E+02  0.51100000000E-03 0. -1.
        -11    1    3    3    0    0  0.87163161238E+00 -0.26833362163E+01 -0.18562889401E+01  0.33772538855E+01  0.51100000000E-03 0.  1.
         12    1    3    3    0    0 -0.13493559109E+02  0.37334991873E-01  0.23481195740E+02  0.27082172821E+02  0.00000000000E+00 0. -1.
</event>
<event>
 7    1  0.6489567E-013  0.5930194E+02  0.7816164E-02  0.1266605E+00
        -11   -1    0    0    0    0  0.00000000000E+00  0.00000000000E+00  0.45593999997E+02  0.45594000000E+02  0.51100000000E-03 0.  1.
         11   -1    0    0    0    0 -0.00000000000E+00 -0.00000000000E+00 -0.45593999997E+02  0.45594000000E+02  0.51100000000E-03 0. -1.
    9900012    2    1    2    0    0 -0.26329627540E+02 -0.11327062372E+02 -0.13970293105E+02  0.59301941639E+02  0.49999995643E+02 0.  0.
        -12    1    1    2    0    0  0.26329627540E+02  0.11327062372E+02  0.13970293105E+02  0.31886058361E+02  0.00000000000E+00 0.  1.
         11    1    3    3    0    0 -0.88306685664E+01  0.13366175870E+01  0.42938981829E+01  0.99098342958E+01  0.51100000000E-03 0. -1.
        -11    1    3    3    0    0  0.71087733625E+01 -0.74074055416E+01  0.80028575021E+01  0.13017297878E+02  0.51100000000E-03 0.  1.
         12    1    3    3    0    0 -0.24607732336E+02 -0.52562744170E+01 -0.26267048790E+02  0.36374809465E+02  0.00000000000E+00 0. -1.
</event>
<event>
 7    1  0.6489567E-013  0.5930193E+02  0.7816164E-02  0.1266605E+00
        -11   -1    0    0    0    0  0.00000000000E+00  0.00000000000E+00  0.45593999997E+02  0.45594000000E+02  0.51100000000E-03 0.  1.
         11   -1    0    0    0    0 -0.00000000000E+00 -0.00000000000E+00 -0.45593999997E+02  0.45594000000E+02  0.51100000000E-03 0. -1.
    9900012    2    1    2    0    0 -0.22597753755E+02 -0.16506906839E+02 -0.15283484373E+02  0.59301931839E+02  0.49999977770E+02 0.  0.
        -12    1    1    2    0    0  0.22597753755E+02  0.16506906839E+02  0.15283484373E+02  0.31886068161E+02  0.00000000000E+00 0.  1.
         11    1    3    3    0    0 -0.26278273641E+02 -0.12746254034E+02 -0.11859311675E+02  0.31522340191E+02  0.51100000000E-03 0. -1.
        -11    1    3    3    0    0 -0.75212967591E+01 -0.10998576624E+02  0.18215653571E+01  0.13448297041E+02  0.51100000000E-03 0.  1.
        -12    1    3    3    0    0  0.11201816645E+02  0.72379238188E+01 -0.52457380558E+01  0.14331294607E+02  0.00000000000E+00 0.  1.
</event>
<event>
 7    1  0.6489567E-013  0.5930192E+02  0.7816164E-02  0.1266605E+00
        -11   -1    0    0    0    0  0.00000000000E+00  0.00000000000E+00  0.45593999997E+02  0.45594000000E+02  0.51100000000E-03 0.  1.
         11   -1    0    0    0    0 -0.00000000000E+00 -0.00000000000E+00 -0.45593999997E+02  0.45594000000E+02  0.51100000000E-03 0. -1.
    9900012    2    1    2    0    0  0.28844441096E+01 -0.69937727895E+01 -0.30975619236E+02  0.59301923686E+02  0.49999962902E+02 0.  0.
        -12    1    1    2    0    0 -0.28844441096E+01  0.69937727895E+01  0.30975619236E+02  0.31886076314E+02  0.00000000000E+00 0.  1.
         11    1    3    3    0    0 -0.47225652000E+01 -0.89942594092E+01  0.37496099262E+00  0.10165624447E+02  0.51100000000E-03 0.  1.
        -11    1    3    3    0    0  0.22123012645E+02 -0.52014135892E+00 -0.13231451984E+02  0.25783125438E+02  0.51100000000E-03 0. -1.
         12    1    3    3    0    0 -0.14516003335E+02  0.25206279786E+01 -0.18119128245E+02  0.23353173801E+02  0.00000000000E+00 0. -1.
</event>
<event>
 7    1  0.6489567E-013  0.5930197E+02  0.7816164E-02  0.1266605E+00
        -11   -1    0    0    0    0  0.00000000000E+00  0.00000000000E+00  0.45593999997E+02  0.45594000000E+02  0.51100000000E-03 0.  1.
         11   -1    0    0    0    0 -0.00000000000E+00 -0.00000000000E+00 -0.45593999997E+02  0.45594000000E+02  0.51100000000E-03 0. -1.
    9900012    2    1    2    0    0  0.22410006328E+02  0.47246872134E+01 -0.22185307111E+02  0.59301970073E+02  0.50000047500E+02 0.  0.
        -12    1    1    2    0    0 -0.22410006328E+02 -0.47246872134E+01  0.22185307111E+02  0.31886029927E+02  0.00000000000E+00 0.  1.
         11    1    3    3    0    0  0.18252675105E+01  0.80072764257E+01  0.14560317535E+01  0.83407497248E+01  0.51100000000E-03 0. -1.
        -11    1    3    3    0    0  0.29909904039E+02  0.63119628522E+01 -0.21592481203E+02  0.37425639332E+02  0.51100000000E-03 0.  1.
         12    1    3    3    0    0 -0.93251652210E+01 -0.95945520645E+01 -0.20488576622E+01  0.13535581016E+02  0.00000000000E+00 0. -1.
</event>
<event>
 7    1  0.6489567E-013  0.5930198E+02  0.7816164E-02  0.1266605E+00
        -11   -1    0    0    0    0  0.00000000000E+00  0.00000000000E+00  0.45593999997E+02  0.45594000000E+02  0.51100000000E-03 0.  1.
         11   -1    0    0    0    0 -0.00000000000E+00 -0.00000000000E+00 -0.45593999997E+02  0.45594000000E+02  0.51100000000E-03 0. -1.
    9900012    2    1    2    0    0 -0.10299374197E+02  0.32283709459E+01 -0.30003642880E+02  0.59301983098E+02  0.50000071254E+02 0.  0.
        -12    1    1    2    0    0  0.10299374197E+02 -0.32283709459E+01  0.30003642880E+02  0.31886016902E+02  0.00000000000E+00 0.  1.
         11    1    3    3    0    0 -0.22585989875E+02  0.59496113991E+01 -0.59158690915E+01  0.24094030833E+02  0.51100000000E-03 0. -1.
        -11    1    3    3    0    0 -0.32397576808E+01 -0.16774131883E+01  0.24848447086E+01  0.44140908828E+01  0.51100000000E-03 0.  1.
         12    1    3    3    0    0  0.15526373358E+02 -0.10438272649E+01 -0.26572618497E+02  0.30793861382E+02  0.00000000000E+00 0. -1.
</event>
<event>
 7    1  0.6489567E-013  0.5930186E+02  0.7816164E-02  0.1266605E+00
        -11   -1    0    0    0    0  0.00000000000E+00  0.00000000000E+00  0.45593999997E+02  0.45594000000E+02  0.51100000000E-03 0.  1.
         11   -1    0    0    0    0 -0.00000000000E+00 -0.00000000000E+00 -0.45593999997E+02  0.45594000000E+02  0.51100000000E-03 0. -1.
    9900012    2    1    2    0    0 -0.35361213811E+01 -0.12376091173E+02 -0.29172832613E+02  0.59301859597E+02  0.49999846018E+02 0.  0.
        -12    1    1    2    0    0  0.35361213811E+01  0.12376091173E+02  0.29172832613E+02  0.31886140403E+02  0.00000000000E+00 0.  1.
         11    1    3    3    0    0 -0.21527700299E+01 -0.43595373572E+01  0.86392376062E+01  0.99134459927E+01  0.51100000000E-03 0. -1.
        -11    1    3    3    0    0 -0.15296894658E+02 -0.71164177500E+01 -0.26589364021E+02  0.31490199540E+02  0.51100000000E-03 0.  1.
         12    1    3    3    0    0  0.13913543307E+02 -0.90013606607E+00 -0.11222706198E+02  0.17898214065E+02  0.00000000000E+00 0. -1.
</event>
<event>
 7    1  0.6489567E-013  0.5930199E+02  0.7816164E-02  0.1266605E+00
        -11   -1    0    0    0    0  0.00000000000E+00  0.00000000000E+00  0.45593999997E+02  0.45594000000E+02  0.51100000000E-03 0.  1.
         11   -1    0    0    0    0 -0.00000000000E+00 -0.00000000000E+00 -0.45593999997E+02  0.45594000000E+02  0.51100000000E-03 0. -1.
    9900012    2    1    2    0    0  0.27522435502E+02  0.15412652441E+02 -0.46565284894E+01  0.59301991019E+02  0.50000085700E+02 0.  0.
        -12    1    1    2    0    0 -0.27522435502E+02 -0.15412652441E+02  0.46565284894E+01  0.31886008981E+02  0.00000000000E+00 0.  1.
         11    1    3    3    0    0  0.24517548592E+02  0.26226503908E+02 -0.46888808301E+01  0.36206702417E+02  0.51100000000E-03 0. -1.
        -11    1    3    3    0    0  0.11226933922E+02 -0.29426958296E+01 -0.10926839380E+01  0.11657506701E+02  0.51100000000E-03 0.  1.
        -12    1    3    3    0    0 -0.82220470131E+01 -0.78711556382E+01  0.11250362787E+01  0.11437781900E+02  0.00000000000E+00 0.  1.
</event>
<event>
 7    1  0.6489567E-013  0.5930195E+02  0.7816164E-02  0.1266605E+00
        -11   -1    0    0    0    0  0.00000000000E+00  0.00000000000E+00  0.45593999997E+02  0.45594000000E+02  0.51100000000E-03 0. -1.
         11   -1    0    0    0    0 -0.00000000000E+00 -0.00000000000E+00 -0.45593999997E+02  0.45594000000E+02  0.51100000000E-03 0.  1.
    9900012    2    1    2    0    0  0.30120634091E+02  0.10394828309E+02  0.11894700965E+01  0.59301954577E+02  0.50000019239E+02 0.  0.
        -12    1    1    2    0    0 -0.30120634091E+02 -0.10394828309E+02 -0.11894700965E+01  0.31886045423E+02  0.00000000000E+00 0.  1.
         11    1    3    3    0    0 -0.69535577193E+01 -0.90383133142E+01 -0.24661263401E+01  0.11667255543E+02  0.51100000000E-03 0. -1.
        -11    1    3    3    0    0  0.86869558059E+01  0.21270131259E+01 -0.84000437410E+01  0.12269805260E+02  0.51100000000E-03 0.  1.
         12    1    3    3    0    0  0.28387236004E+02  0.17306128497E+02  0.12055640178E+02  0.35364893774E+02  0.00000000000E+00 0. -1.
</event>
<event>
 7    1  0.6489567E-013  0.5930194E+02  0.7816164E-02  0.1266605E+00
        -11   -1    0    0    0    0  0.00000000000E+00  0.00000000000E+00  0.45593999997E+02  0.45594000000E+02  0.51100000000E-03 0. -1.
         11   -1    0    0    0    0 -0.00000000000E+00 -0.00000000000E+00 -0.45593999997E+02  0.45594000000E+02  0.51100000000E-03 0.  1.
    9900012    2    1    2    0    0  0.83086154417E+01 -0.43349010540E+01  0.30477796981E+02  0.59301944011E+02  0.49999999970E+02 0.  0.
        -12    1    1    2    0    0 -0.83086154417E+01  0.43349010540E+01 -0.30477796981E+02  0.31886055989E+02  0.00000000000E+00 0.  1.
         11    1    3    3    0    0  0.24482087109E+02 -0.11484567106E+02  0.16478773461E+02  0.31667299314E+02  0.51100000000E-03 0. -1.
        -11    1    3    3    0    0 -0.91299462540E+01  0.43793590154E+00  0.15296357569E+02  0.17819266584E+02  0.51100000000E-03 0.  1.
        -12    1    3    3    0    0 -0.70435254134E+01  0.67117301503E+01 -0.12973340495E+01  0.98153781127E+01  0.00000000000E+00 0.  1.
</event>
<event>
 7    1  0.6489567E-013  0.5930196E+02  0.7816164E-02  0.1266605E+00
        -11   -1    0    0    0    0  0.00000000000E+00  0.00000000000E+00  0.45593999997E+02  0.45594000000E+02  0.51100000000E-03 0. -1.
         11   -1    0    0    0    0 -0.00000000000E+00 -0.00000000000E+00 -0.45593999997E+02  0.45594000000E+02  0.51100000000E-03 0.  1.
    9900012    2    1    2    0    0 -0.29037992594E+02  0.53818171960E+01  0.12022908512E+02  0.59301963883E+02  0.50000036211E+02 0.  0.
        -12    1    1    2    0    0  0.29037992594E+02 -0.53818171960E+01 -0.12022908512E+02  0.31886036117E+02  0.00000000000E+00 0.  1.
         11    1    3    3    0    0 -0.15840059407E+02  0.15293581670E+02 -0.33299348439E+01  0.22268578505E+02  0.51100000000E-03 0. -1.
        -11    1    3    3    0    0 -0.92744942298E+01 -0.86435261107E+01 -0.68780074093E+01  0.14423375923E+02  0.51100000000E-03 0.  1.
        -12    1    3    3    0    0 -0.39234389569E+01 -0.12682383632E+01  0.22230850765E+02  0.22610009454E+02  0.00000000000E+00 0.  1.
</event>
<event>
 7    1  0.6489567E-013  0.5930218E+02  0.7816164E-02  0.1266604E+00
        -11   -1    0    0    0    0  0.00000000000E+00  0.00000000000E+00  0.45593999997E+02  0.45594000000E+02  0.51100000000E-03 0.  1.
         11   -1    0    0    0    0 -0.00000000000E+00 -0.00000000000E+00 -0.45593999997E+02  0.45594000000E+02  0.51100000000E-03 0. -1.
    9900012    2    1    2    0    0 -0.84811057159E+01  0.25965771045E+02 -0.16448556056E+02  0.59302181578E+02  0.50000433233E+02 0.  0.
        -12    1    1    2    0    0  0.84811057159E+01 -0.25965771045E+02  0.16448556056E+02  0.31885818422E+02  0.00000000000E+00 0.  1.
         11    1    3    3    0    0  0.95491006330E+01  0.20943206901E+02 -0.17298022810E+02  0.28792791313E+02  0.51100000000E-03 0. -1.
        -11    1    3    3    0    0 -0.35890495300E+01  0.92719909544E+01 -0.82499791528E+01  0.12919491053E+02  0.51100000000E-03 0.  1.
        -12    1    3    3    0    0 -0.14441156819E+02 -0.42494268109E+01  0.90994459069E+01  0.17589899212E+02  0.00000000000E+00 0.  1.
</event>
<event>
 7    1  0.6489567E-013  0.5930197E+02  0.7816164E-02  0.1266605E+00
        -11   -1    0    0    0    0  0.00000000000E+00  0.00000000000E+00  0.45593999997E+02  0.45594000000E+02  0.51100000000E-03 0.  1.
         11   -1    0    0    0    0 -0.00000000000E+00 -0.00000000000E+00 -0.45593999997E+02  0.45594000000E+02  0.51100000000E-03 0. -1.
    9900012    2    1    2    0    0  0.86984578420E+01  0.65743336050E+01 -0.29963874839E+02  0.59301971296E+02  0.50000049730E+02 0.  0.
        -12    1    1    2    0    0 -0.86984578420E+01 -0.65743336050E+01  0.29963874839E+02  0.31886028704E+02  0.00000000000E+00 0.  1.
         11    1    3    3    0    0  0.24217829162E+01  0.43364143405E+01 -0.20387042101E+02  0.20983350727E+02  0.51100000000E-03 0. -1.
        -11    1    3    3    0    0 -0.92341788519E+01 -0.63711735555E+01 -0.15922565362E+02  0.19477936223E+02  0.51100000000E-03 0.  1.
        -12    1    3    3    0    0  0.15510853778E+02  0.86090928200E+01  0.63457326238E+01  0.18840684346E+02  0.00000000000E+00 0.  1.
</event>
<event>
 7    1  0.6489567E-013  0.5930191E+02  0.7816164E-02  0.1266605E+00
        -11   -1    0    0    0    0  0.00000000000E+00  0.00000000000E+00  0.45593999997E+02  0.45594000000E+02  0.51100000000E-03 0. -1.
         11   -1    0    0    0    0 -0.00000000000E+00 -0.00000000000E+00 -0.45593999997E+02  0.45594000000E+02  0.51100000000E-03 0.  1.
    9900012    2    1    2    0    0 -0.11884598002E+02  0.25028983721E+02  0.15780659936E+02  0.59301907047E+02  0.49999932556E+02 0.  0.
        -12    1    1    2    0    0  0.11884598002E+02 -0.25028983721E+02 -0.15780659936E+02  0.31886092953E+02  0.00000000000E+00 0.  1.
         11    1    3    3    0    0  0.42257024098E+01 -0.10409851864E+01  0.16113184361E+02  0.16690563847E+02  0.51100000000E-03 0. -1.
        -11    1    3    3    0    0  0.24351139885E+01 -0.50872723241E+01 -0.27444610794E+01  0.62723350288E+01  0.51100000000E-03 0.  1.
         12    1    3    3    0    0 -0.18545414400E+02  0.31157241232E+02  0.24119366540E+01  0.36339008171E+02  0.00000000000E+00 0. -1.
</event>
<event>
 7    1  0.6489567E-013  0.5930201E+02  0.7816164E-02  0.1266605E+00
        -11   -1    0    0    0    0  0.00000000000E+00  0.00000000000E+00  0.45593999997E+02  0.45594000000E+02  0.51100000000E-03 0.  1.
         11   -1    0    0    0    0 -0.00000000000E+00 -0.00000000000E+00 -0.45593999997E+02  0.45594000000E+02  0.51100000000E-03 0. -1.
    9900012    2    1    2    0    0  0.84641780422E+01 -0.28882650284E+02 -0.10529326404E+02  0.59302007592E+02  0.50000115925E+02 0.  0.
        -12    1    1    2    0    0 -0.84641780422E+01  0.28882650284E+02  0.10529326404E+02  0.31885992408E+02  0.00000000000E+00 0.  1.
         11    1    3    3    0    0  0.11054162839E+02 -0.23464348274E+02  0.67426710362E+01  0.26799883749E+02  0.51100000000E-03 0.  1.
        -11    1    3    3    0    0 -0.25900087449E+01  0.55045969119E+01  0.48830259687E+01  0.78008124790E+01  0.51100000000E-03 0. -1.
        -12    1    3    3    0    0  0.23948149082E-04 -0.10922898922E+02 -0.22155023409E+02  0.24701311364E+02  0.00000000000E+00 0.  1.
</event>
<event>
 7    1  0.6489567E-013  0.5930200E+02  0.7816164E-02  0.1266605E+00
        -11   -1    0    0    0    0  0.00000000000E+00  0.00000000000E+00  0.45593999997E+02  0.45594000000E+02  0.51100000000E-03 0.  1.
         11   -1    0    0    0    0 -0.00000000000E+00 -0.00000000000E+00 -0.45593999997E+02  0.45594000000E+02  0.51100000000E-03 0. -1.
    9900012    2    1    2    0    0 -0.99525907478E+01 -0.10035652100E+02 -0.28582317792E+02  0.59301995766E+02  0.50000094358E+02 0.  0.
        -12    1    1    2    0    0  0.99525907478E+01  0.10035652100E+02  0.28582317792E+02  0.31886004234E+02  0.00000000000E+00 0.  1.
         11    1    3    3    0    0 -0.58529284192E+01 -0.11485962434E+00 -0.25285133367E+02  0.25953957954E+02  0.51100000000E-03 0. -1.
        -11    1    3    3    0    0 -0.12697145553E+02  0.62432835230E+01 -0.48908020950E+01  0.14970505661E+02  0.51100000000E-03 0.  1.
        -12    1    3    3    0    0  0.85974832246E+01 -0.16164075999E+02  0.15936176704E+01  0.18377532151E+02  0.00000000000E+00 0.  1.
</event>
<event>
 7    1  0.6489567E-013  0.5930192E+02  0.7816164E-02  0.1266605E+00
        -11   -1    0    0    0    0  0.00000000000E+00  0.00000000000E+00  0.45593999997E+02  0.45594000000E+02  0.51100000000E-03 0.  1.
         11   -1    0    0    0    0 -0.00000000000E+00 -0.00000000000E+00 -0.45593999997E+02  0.45594000000E+02  0.51100000000E-03 0. -1.
    9900012    2    1    2    0    0  0.21691551291E+02  0.97230873165E+00 -0.23350658183E+02  0.59301921231E+02  0.49999958424E+02 0.  0.
        -12    1    1    2    0    0 -0.21691551291E+02 -0.97230873165E+00  0.23350658183E+02  0.31886078769E+02  0.00000000000E+00 0.  1.
         11    1    3    3    0    0  0.21482464502E+02  0.11898164322E+02 -0.60263125313E+00  0.24564725930E+02  0.51100000000E-03 0. -1.
        -11    1    3    3    0    0  0.11371296282E+02 -0.48225239497E+01 -0.16367148213E+02  0.20504795957E+02  0.51100000000E-03 0.  1.
        -12    1    3    3    0    0 -0.11162209493E+02 -0.61033316405E+01 -0.63808787175E+01  0.14232399344E+02  0.00000000000E+00 0.  1.
</event>
<event>
 7    1  0.6489567E-013  0.5930194E+02  0.7816164E-02  0.1266605E+00
        -11   -1    0    0    0    0  0.00000000000E+00  0.00000000000E+00  0.45593999997E+02  0.45594000000E+02  0.51100000000E-03 0. -1.
         11   -1    0    0    0    0 -0.00000000000E+00 -0.00000000000E+00 -0.45593999997E+02  0.45594000000E+02  0.51100000000E-03 0.  1.
    9900012    2    1    2    0    0 -0.21881883403E+01  0.28845351772E+02  0.13411869821E+02  0.59301941304E+02  0.49999995032E+02 0.  0.
        -12    1    1    2    0    0  0.21881883403E+01 -0.28845351772E+02 -0.13411869821E+02  0.31886058696E+02  0.00000000000E+00 0.  1.
         11    1    3    3    0    0 -0.83042226364E+01 -0.89987974824E+00  0.11706458351E+01  0.84344714765E+01  0.51100000000E-03 0. -1.
        -11    1    3    3    0    0  0.63795073794E+01  0.22444124717E+02 -0.11510265311E+02  0.26017745031E+02  0.51100000000E-03 0.  1.
         12    1    3    3    0    0 -0.26347308335E+00  0.73011068035E+01  0.23751489297E+02  0.24849724796E+02  0.00000000000E+00 0. -1.
</event>
<event>
 7    1  0.6489567E-013  0.5930194E+02  0.7816164E-02  0.1266605E+00
        -11   -1    0    0    0    0  0.00000000000E+00  0.00000000000E+00  0.45593999997E+02  0.45594000000E+02  0.51100000000E-03 0.  1.
         11   -1    0    0    0    0 -0.00000000000E+00 -0.00000000000E+00 -0.45593999997E+02  0.45594000000E+02  0.51100000000E-03 0. -1.
    9900012    2    1    2    0    0  0.13105546167E+02 -0.24907413549E+02 -0.14986202213E+02  0.59301939616E+02  0.49999991955E+02 0.  0.
        -12    1    1    2    0    0 -0.13105546167E+02  0.24907413549E+02  0.14986202213E+02  0.31886060384E+02  0.00000000000E+00 0.  1.
         11    1    3    3    0    0 -0.74681542920E+01  0.16525126736E+01 -0.61963497848E+01  0.98437227502E+01  0.51100000000E-03 0.  1.
        -11    1    3    3    0    0  0.23156654155E+02 -0.24912769431E+01 -0.97113035190E+01  0.25233836584E+02  0.51100000000E-03 0. -1.
        -12    1    3    3    0    0 -0.25829536965E+01 -0.24068649279E+02  0.92145109070E+00  0.24224380282E+02  0.00000000000E+00 0.  1.
</event>
<event>
 7    1  0.6489567E-013  0.5930195E+02  0.7816164E-02  0.1266605E+00
        -11   -1    0    0    0    0  0.00000000000E+00  0.00000000000E+00  0.45593999997E+02  0.45594000000E+02  0.51100000000E-03 0. -1.
         11   -1    0    0    0    0 -0.00000000000E+00 -0.00000000000E+00 -0.45593999997E+02  0.45594000000E+02  0.51100000000E-03 0.  1.
    9900012    2    1    2    0    0 -0.16881919548E+02 -0.24213877065E+02  0.12058564056E+02  0.59301952625E+02  0.50000015679E+02 0.  0.
        -12    1    1    2    0    0  0.16881919548E+02  0.24213877065E+02 -0.12058564056E+02  0.31886047375E+02  0.00000000000E+00 0.  1.
         11    1    3    3    0    0  0.66130951496E+01 -0.20583834735E+02 -0.53558023037E+01  0.22273569504E+02  0.51100000000E-03 0. -1.
        -11    1    3    3    0    0 -0.28848301892E+01 -0.27652193296E+01 -0.51089609023E+01  0.64861517809E+01  0.51100000000E-03 0.  1.
         12    1    3    3    0    0 -0.20610184508E+02 -0.86482299969E+00  0.22523327262E+02  0.30542231340E+02  0.00000000000E+00 0. -1.
</event>
<event>
 7    1  0.6489567E-013  0.5930195E+02  0.7816164E-02  0.1266605E+00
        -11   -1    0    0    0    0  0.00000000000E+00  0.00000000000E+00  0.45593999997E+02  0.45594000000E+02  0.51100000000E-03 0.  1.
         11   -1    0    0    0    0 -0.00000000000E+00 -0.00000000000E+00 -0.45593999997E+02  0.45594000000E+02  0.51100000000E-03 0. -1.
    9900012    2    1    2    0    0 -0.18580040351E+02 -0.25256653138E+02  0.57968839558E+01  0.59301948335E+02  0.50000007856E+02 0.  0.
        -12    1    1    2    0    0  0.18580040351E+02  0.25256653138E+02 -0.57968839558E+01  0.31886051665E+02  0.00000000000E+00 0.  1.
         11    1    3    3    0    0  0.34141024842E+00 -0.73079056083E+01 -0.62694899520E+01  0.96347573844E+01  0.51100000000E-03 0. -1.
        -11    1    3    3    0    0  0.63753461066E+01  0.90899786494E+01  0.18458515270E+01  0.11255217366E+02  0.51100000000E-03 0.  1.
        -12    1    3    3    0    0 -0.25296796706E+02 -0.27038726179E+02  0.10220522381E+02  0.38411973585E+02  0.00000000000E+00 0.  1.
</event>
<event>
 7    1  0.6489567E-013  0.5930194E+02  0.7816164E-02  0.1266605E+00
        -11   -1    0    0    0    0  0.00000000000E+00  0.00000000000E+00  0.45593999997E+02  0.45594000000E+02  0.51100000000E-03 0. -1.
         11   -1    0    0    0    0 -0.00000000000E+00 -0.00000000000E+00 -0.45593999997E+02  0.45594000000E+02  0.51100000000E-03 0.  1.
    9900012    2    1    2    0    0  0.13380557949E+02  0.18451621142E+02  0.22298409247E+02  0.59301941781E+02  0.49999995902E+02 0.  0.
        -12    1    1    2    0    0 -0.13380557949E+02 -0.18451621142E+02 -0.22298409247E+02  0.31886058219E+02  0.00000000000E+00 0.  1.
         11    1    3    3    0    0  0.10139555779E+01  0.10256399258E+02  0.14165154763E+02  0.17517803555E+02  0.51100000000E-03 0. -1.
        -11    1    3    3    0    0  0.15044487112E+02  0.19480790464E+02  0.14485289744E+02  0.28559786567E+02  0.51100000000E-03 0.  1.
        -12    1    3    3    0    0 -0.26778847404E+01 -0.11285568579E+02 -0.63520352607E+01  0.13224351659E+02  0.00000000000E+00 0.  1.
</event>
<event>
 7    1  0.6489567E-013  0.5930195E+02  0.7816164E-02  0.1266605E+00
        -11   -1    0    0    0    0  0.00000000000E+00  0.00000000000E+00  0.45593999997E+02  0.45594000000E+02  0.51100000000E-03 0.  1.
         11   -1    0    0    0    0 -0.00000000000E+00 -0.00000000000E+00 -0.45593999997E+02  0.45594000000E+02  0.51100000000E-03 0. -1.
    9900012    2    1    2    0    0 -0.30929343095E+01 -0.51273017379E+01 -0.31318762437E+02  0.59301947464E+02  0.50000006266E+02 0.  0.
        -12    1    1    2    0    0  0.30929343095E+01  0.51273017379E+01  0.31318762437E+02  0.31886052536E+02  0.00000000000E+00 0.  1.
         11    1    3    3    0    0 -0.45451035392E+01 -0.40027391006E+01 -0.19694065615E+02  0.20604274004E+02  0.51100000000E-03 0. -1.
        -11    1    3    3    0    0  0.10243000176E+02 -0.16075330318E+02 -0.92663795790E+01  0.21194364539E+02  0.51100000000E-03 0.  1.
        -12    1    3    3    0    0 -0.87908309468E+01  0.14950767681E+02 -0.23583172428E+01  0.17503308921E+02  0.00000000000E+00 0.  1.
</event>
<event>
 7    1  0.6489567E-013  0.5930196E+02  0.7816164E-02  0.1266605E+00
        -11   -1    0    0    0    0  0.00000000000E+00  0.00000000000E+00  0.45593999997E+02  0.45594000000E+02  0.51100000000E-03 0. -1.
         11   -1    0    0    0    0 -0.00000000000E+00 -0.00000000000E+00 -0.45593999997E+02  0.45594000000E+02  0.51100000000E-03 0.  1.
    9900012    2    1    2    0    0  0.27998165135E+02 -0.91144121730E+01 -0.12237241936E+02  0.59301955241E+02  0.50000020450E+02 0.  0.
        -12    1    1    2    0    0 -0.27998165135E+02  0.91144121730E+01  0.12237241936E+02  0.31886044759E+02  0.00000000000E+00 0.  1.
         11    1    3    3    0    0 -0.67119953957E+00 -0.75913391908E+01 -0.44887255008E+01  0.88446365903E+01  0.51100000000E-03 0. -1.
        -11    1    3    3    0    0  0.17457338727E+02 -0.16829431359E+02 -0.16735584352E+02  0.29462997458E+02  0.51100000000E-03 0.  1.
         12    1    3    3    0    0  0.11212025947E+02  0.15306358377E+02  0.89870679173E+01  0.20994321193E+02  0.00000000000E+00 0. -1.
</event>
<event>
 7    1  0.6489567E-013  0.5930195E+02  0.7816164E-02  0.1266605E+00
        -11   -1    0    0    0    0  0.00000000000E+00  0.00000000000E+00  0.45593999997E+02  0.45594000000E+02  0.51100000000E-03 0.  1.
         11   -1    0    0    0    0 -0.00000000000E+00 -0.00000000000E+00 -0.45593999997E+02  0.45594000000E+02  0.51100000000E-03 0. -1.
    9900012    2    1    2    0    0  0.75341129522E+01  0.30186196056E+02  0.69821676744E+01  0.59301953588E+02  0.50000017437E+02 0.  0.
        -12    1    1    2    0    0 -0.75341129522E+01 -0.30186196056E+02 -0.69821676744E+01  0.31886046412E+02  0.00000000000E+00 0.  1.
         11    1    3    3    0    0  0.12254008059E+02  0.11281286432E+02  0.13014520219E+02  0.21137783088E+02  0.51100000000E-03 0. -1.
        -11    1    3    3    0    0 -0.13447583055E+02  0.18969478343E-01  0.53220119114E+01  0.14462422373E+02  0.51100000000E-03 0.  1.
        -12    1    3    3    0    0  0.87276879475E+01  0.18885940146E+02 -0.11354364456E+02  0.23701748127E+02  0.00000000000E+00 0.  1.
</event>
<event>
 7    1  0.6489567E-013  0.5930199E+02  0.7816164E-02  0.1266605E+00
        -11   -1    0    0    0    0  0.00000000000E+00  0.00000000000E+00  0.45593999997E+02  0.45594000000E+02  0.51100000000E-03 0.  1.
         11   -1    0    0    0    0 -0.00000000000E+00 -0.00000000000E+00 -0.45593999997E+02  0.45594000000E+02  0.51100000000E-03 0. -1.
    9900012    2    1    2    0    0 -0.98398630928E+01  0.12926248639E+02 -0.27437321713E+02  0.59301993158E+02  0.50000089602E+02 0.  0.
        -12    1    1    2    0    0  0.98398630928E+01 -0.12926248639E+02  0.27437321713E+02  0.31886006842E+02  0.00000000000E+00 0.  1.
         11    1    3    3    0    0 -0.96592981682E+01  0.86792932839E+01  0.10738964389E+01  0.13030173707E+02  0.51100000000E-03 0. -1.
        -11    1    3    3    0    0 -0.91380034133E+01 -0.12990487590E+02 -0.18616876926E+02  0.24471288911E+02  0.51100000000E-03 0.  1.
         12    1    3    3    0    0  0.89574384887E+01  0.17237442945E+02 -0.98943412256E+01  0.21800530540E+02  0.00000000000E+00 0. -1.
</event>
<event>
 7    1  0.6489567E-013  0.5930199E+02  0.7816164E-02  0.1266605E+00
        -11   -1    0    0    0    0  0.00000000000E+00  0.00000000000E+00  0.45593999997E+02  0.45594000000E+02  0.51100000000E-03 0.  1.
         11   -1    0    0    0    0 -0.00000000000E+00 -0.00000000000E+00 -0.45593999997E+02  0.45594000000E+02  0.51100000000E-03 0. -1.
    9900012    2    1    2    0    0  0.22821016196E+02 -0.17318983411E+02 -0.13998985192E+02  0.59301991266E+02  0.50000086151E+02 0.  0.
        -12    1    1    2    0    0 -0.22821016196E+02  0.17318983411E+02  0.13998985192E+02  0.31886008734E+02  0.00000000000E+00 0.  1.
         11    1    3    3    0    0  0.16737535896E+02 -0.13074766873E+01 -0.60617177028E+01  0.17849342423E+02  0.51100000000E-03 0. -1.
        -11    1    3    3    0    0 -0.31857690187E+00  0.11766988106E+02  0.31507258849E+00  0.11775515757E+02  0.51100000000E-03 0.  1.
         12    1    3    3    0    0  0.64020572013E+01 -0.27778494830E+02 -0.82523400776E+01  0.29677133086E+02  0.00000000000E+00 0. -1.
</event>
<event>
 7    1  0.6489567E-013  0.5930194E+02  0.7816164E-02  0.1266605E+00
        -11   -1    0    0    0    0  0.00000000000E+00  0.00000000000E+00  0.45593999997E+02  0.45594000000E+02  0.51100000000E-03 0. -1.
         11   -1    0    0    0    0 -0.00000000000E+00 -0.00000000000E+00 -0.45593999997E+02  0.45594000000E+02  0.51100000000E-03 0.  1.
    9900012    2    1    2    0    0 -0.82677104903E+01  0.15895975546E+01  0.30754493089E+02  0.59301941882E+02  0.49999996086E+02 0.  0.
        -12    1    1    2    0    0  0.82677104903E+01 -0.15895975546E+01 -0.30754493089E+02  0.31886058118E+02  0.00000000000E+00 0.  1.
         11    1    3    3    0    0 -0.47184268349E+00 -0.12145590414E+02  0.49517114119E+01  0.13124688499E+02  0.51100000000E-03 0. -1.
        -11    1    3    3    0    0  0.10370218155E+02 -0.19080656403E+01 -0.54111813260E+00  0.10558169736E+02  0.51100000000E-03 0.  1.
         12    1    3    3    0    0 -0.18166085962E+02  0.15643253609E+02  0.26343899810E+02  0.35619083647E+02  0.00000000000E+00 0. -1.
</event>
<event>
 7    1  0.6489567E-013  0.5930195E+02  0.7816164E-02  0.1266605E+00
        -11   -1    0    0    0    0  0.00000000000E+00  0.00000000000E+00  0.45593999997E+02  0.45594000000E+02  0.51100000000E-03 0.  1.
         11   -1    0    0    0    0 -0.00000000000E+00 -0.00000000000E+00 -0.45593999997E+02  0.45594000000E+02  0.51100000000E-03 0. -1.
    9900012    2    1    2    0    0  0.23040127847E+02 -0.21585094921E+02 -0.44672516378E+01  0.59301950525E+02  0.50000011849E+02 0.  0.
        -12    1    1    2    0    0 -0.23040127847E+02  0.21585094921E+02  0.44672516378E+01  0.31886049475E+02  0.00000000000E+00 0.  1.
         11    1    3    3    0    0  0.23025659266E+02  0.10434001808E+02 -0.49282535733E+00  0.25284229382E+02  0.51100000000E-03 0. -1.
        -11    1    3    3    0    0 -0.22187344017E+01 -0.62138700424E+00 -0.39692529009E+00  0.23380449314E+01  0.51100000000E-03 0.  1.
        -12    1    3    3    0    0  0.22332029824E+01 -0.31397709725E+02 -0.35775009904E+01  0.31679676211E+02  0.00000000000E+00 0.  1.
</event>
<event>
 7    1  0.6489567E-013  0.5930195E+02  0.7816164E-02  0.1266605E+00
        -11   -1    0    0    0    0  0.00000000000E+00  0.00000000000E+00  0.45593999997E+02  0.45594000000E+02  0.51100000000E-03 0.  1.
         11   -1    0    0    0    0 -0.00000000000E+00 -0.00000000000E+00 -0.45593999997E+02  0.45594000000E+02  0.51100000000E-03 0. -1.
    9900012    2    1    2    0    0 -0.98614521905E+01  0.20621662829E+02 -0.22231035786E+02  0.59301950241E+02  0.50000011332E+02 0.  0.
        -12    1    1    2    0    0  0.98614521905E+01 -0.20621662829E+02  0.22231035786E+02  0.31886049759E+02  0.00000000000E+00 0.  1.
         11    1    3    3    0    0 -0.16798609448E+02  0.13867598338E+02 -0.89042840094E+01  0.23532739684E+02  0.51100000000E-03 0. -1.
        -11    1    3    3    0    0 -0.45583914065E+01 -0.11065364096E+02 -0.54170335895E+01  0.13136417623E+02  0.51100000000E-03 0.  1.
        -12    1    3    3    0    0  0.11495548664E+02  0.17819428586E+02 -0.79097181866E+01  0.22632792934E+02  0.00000000000E+00 0.  1.
</event>
<event>
 7    1  0.6489567E-013  0.5930197E+02  0.7816164E-02  0.1266605E+00
        -11   -1    0    0    0    0  0.00000000000E+00  0.00000000000E+00  0.45593999997E+02  0.45594000000E+02  0.51100000000E-03 0.  1.
         11   -1    0    0    0    0 -0.00000000000E+00 -0.00000000000E+00 -0.45593999997E+02  0.45594000000E+02  0.51100000000E-03 0. -1.
    9900012    2    1    2    0    0 -0.16182932869E+02  0.20177846533E+02 -0.18646336646E+02  0.59301973637E+02  0.50000054000E+02 0.  0.
        -12    1    1    2    0    0  0.16182932869E+02 -0.20177846533E+02  0.18646336646E+02  0.31886026363E+02  0.00000000000E+00 0.  1.
         11    1    3    3    0    0 -0.85089830194E+01 -0.40580302325E+01  0.73953059247E+01  0.11981692342E+02  0.51100000000E-03 0. -1.
        -11    1    3    3    0    0 -0.69910362762E+00  0.15223037622E+02  0.35179374310E+01  0.15639869064E+02  0.51100000000E-03 0.  1.
         12    1    3    3    0    0 -0.69748462220E+01  0.90128391434E+01 -0.29559580001E+02  0.31680412231E+02  0.00000000000E+00 0. -1.
</event>
<event>
 7    1  0.6489567E-013  0.5930192E+02  0.7816164E-02  0.1266605E+00
        -11   -1    0    0    0    0  0.00000000000E+00  0.00000000000E+00  0.45593999997E+02  0.45594000000E+02  0.51100000000E-03 0.  1.
         11   -1    0    0    0    0 -0.00000000000E+00 -0.00000000000E+00 -0.45593999997E+02  0.45594000000E+02  0.51100000000E-03 0. -1.
    9900012    2    1    2    0    0 -0.23145914546E+02  0.20856936257E+02 -0.67806489727E+01  0.59301916034E+02  0.49999948946E+02 0.  0.
        -12    1    1    2    0    0  0.23145914546E+02 -0.20856936257E+02  0.67806489727E+01  0.31886083966E+02  0.00000000000E+00 0.  1.
         11    1    3    3    0    0 -0.12920524139E+02  0.59647349008E+01 -0.19894506489E+02  0.24460363758E+02  0.51100000000E-03 0. -1.
        -11    1    3    3    0    0 -0.14997827317E+02 -0.34137796242E+00  0.14517222872E+01  0.15071790239E+02  0.51100000000E-03 0.  1.
        -12    1    3    3    0    0  0.47724369098E+01  0.15233579319E+02  0.11662135229E+02  0.19769762037E+02  0.00000000000E+00 0.  1.
</event>
<event>
 7    1  0.6489567E-013  0.5930204E+02  0.7816164E-02  0.1266604E+00
        -11   -1    0    0    0    0  0.00000000000E+00  0.00000000000E+00  0.45593999997E+02  0.45594000000E+02  0.51100000000E-03 0.  1.
         11   -1    0    0    0    0 -0.00000000000E+00 -0.00000000000E+00 -0.45593999997E+02  0.45594000000E+02  0.51100000000E-03 0. -1.
    9900012    2    1    2    0    0  0.11642959830E+02 -0.23402574789E+02  0.18261311115E+02  0.59302039077E+02  0.50000173347E+02 0.  0.
        -12    1    1    2    0    0 -0.11642959830E+02  0.23402574789E+02 -0.18261311115E+02  0.31885960923E+02  0.00000000000E+00 0.  1.
         11    1    3    3    0    0  0.20369838498E+01 -0.22860772950E+02 -0.10381859249E+02  0.25190221214E+02  0.51100000000E-03 0. -1.
        -11    1    3    3    0    0 -0.30224255080E+01  0.40430891109E+01  0.68245424167E+01  0.84885808571E+01  0.51100000000E-03 0.  1.
        -12    1    3    3    0    0  0.12628401488E+02 -0.45848909494E+01  0.21818627947E+02  0.25623237006E+02  0.00000000000E+00 0.  1.
</event>
<event>
 7    1  0.6489567E-013  0.5930196E+02  0.7816164E-02  0.1266605E+00
        -11   -1    0    0    0    0  0.00000000000E+00  0.00000000000E+00  0.45593999997E+02  0.45594000000E+02  0.51100000000E-03 0.  1.
         11   -1    0    0    0    0 -0.00000000000E+00 -0.00000000000E+00 -0.45593999997E+02  0.45594000000E+02  0.51100000000E-03 0. -1.
    9900012    2    1    2    0    0 -0.21201745219E+02  0.98291718547E+01 -0.21693158999E+02  0.59301956548E+02  0.50000022834E+02 0.  0.
        -12    1    1    2    0    0  0.21201745219E+02 -0.98291718547E+01  0.21693158999E+02  0.31886043452E+02  0.00000000000E+00 0.  1.
         11    1    3    3    0    0 -0.82333917960E+01 -0.61769012748E+01 -0.56710553206E+01  0.11751753849E+02  0.51100000000E-03 0. -1.
        -11    1    3    3    0    0 -0.13298513450E+02 -0.66911441760E+01 -0.19555514635E+02  0.24577225703E+02  0.51100000000E-03 0.  1.
        -12    1    3    3    0    0  0.33016002761E+00  0.22697217305E+02  0.35334109565E+01  0.22972976996E+02  0.00000000000E+00 0.  1.
</event>
<event>
 7    1  0.6489567E-013  0.5930195E+02  0.7816164E-02  0.1266605E+00
        -11   -1    0    0    0    0  0.00000000000E+00  0.00000000000E+00  0.45593999997E+02  0.45594000000E+02  0.51100000000E-03 0.  1.
         11   -1    0    0    0    0 -0.00000000000E+00 -0.00000000000E+00 -0.45593999997E+02  0.45594000000E+02  0.51100000000E-03 0. -1.
    9900012    2    1    2    0    0  0.18062851232E+02  0.21413529123E+02 -0.15228736050E+02  0.59301949354E+02  0.50000009713E+02 0.  0.
        -12    1    1    2    0    0 -0.18062851232E+02 -0.21413529123E+02  0.15228736050E+02  0.31886050646E+02  0.00000000000E+00 0.  1.
         11    1    3    3    0    0 -0.10994630120E+02  0.31713342329E+01 -0.14498950825E+02  0.18470485310E+02  0.51100000000E-03 0. -1.
        -11    1    3    3    0    0  0.13864690411E+01  0.80218277736E+01  0.65495939163E+01  0.10448406479E+02  0.51100000000E-03 0.  1.
        -12    1    3    3    0    0  0.27671012310E+02  0.10220367117E+02 -0.72793791417E+01  0.30383057564E+02  0.00000000000E+00 0.  1.
</event>
<event>
 7    1  0.6489567E-013  0.5930197E+02  0.7816164E-02  0.1266605E+00
        -11   -1    0    0    0    0  0.00000000000E+00  0.00000000000E+00  0.45593999997E+02  0.45594000000E+02  0.51100000000E-03 0.  1.
         11   -1    0    0    0    0 -0.00000000000E+00 -0.00000000000E+00 -0.45593999997E+02  0.45594000000E+02  0.51100000000E-03 0. -1.
    9900012    2    1    2    0    0  0.12665442701E+02  0.83289963160E+01 -0.28052333980E+02  0.59301967632E+02  0.50000043048E+02 0.  0.
        -12    1    1    2    0    0 -0.12665442701E+02 -0.83289963160E+01  0.28052333980E+02  0.31886032368E+02  0.00000000000E+00 0.  1.
         11    1    3    3    0    0 -0.75112042259E+00  0.14898728082E+02 -0.25283249364E+02  0.29356072268E+02  0.51100000000E-03 0. -1.
        -11    1    3    3    0    0 -0.41311126274E+01  0.16042202155E+01 -0.86458367484E+01  0.97154571370E+01  0.51100000000E-03 0.  1.
        -12    1    3    3    0    0  0.17547675751E+02 -0.81739519811E+01  0.58767521316E+01  0.20230438227E+02  0.00000000000E+00 0.  1.
</event>
<event>
 7    1  0.6489567E-013  0.5930195E+02  0.7816164E-02  0.1266605E+00
        -11   -1    0    0    0    0  0.00000000000E+00  0.00000000000E+00  0.45593999997E+02  0.45594000000E+02  0.51100000000E-03 0. -1.
         11   -1    0    0    0    0 -0.00000000000E+00 -0.00000000000E+00 -0.45593999997E+02  0.45594000000E+02  0.51100000000E-03 0.  1.
    9900012    2    1    2    0    0  0.16194678556E+02 -0.26594378849E+02  0.68696108161E+01  0.59301950501E+02  0.50000011805E+02 0.  0.
        -12    1    1    2    0    0 -0.16194678556E+02  0.26594378849E+02 -0.68696108161E+01  0.31886049499E+02  0.00000000000E+00 0.  1.
         11    1    3    3    0    0 -0.21330345547E+01 -0.20891882615E+02  0.51682021890E+01  0.21627087408E+02  0.51100000000E-03 0. -1.
        -11    1    3    3    0    0 -0.76340419739E+01 -0.41093537633E+00 -0.63979722319E+01  0.99690277200E+01  0.51100000000E-03 0.  1.
        -12    1    3    3    0    0  0.25961755085E+02 -0.52915608573E+01  0.80993808590E+01  0.27705835372E+02  0.00000000000E+00 0.  1.
</event>
<event>
 7    1  0.6489567E-013  0.5930186E+02  0.7816164E-02  0.1266605E+00
        -11   -1    0    0    0    0  0.00000000000E+00  0.00000000000E+00  0.45593999997E+02  0.45594000000E+02  0.51100000000E-03 0.  1.
         11   -1    0    0    0    0 -0.00000000000E+00 -0.00000000000E+00 -0.45593999997E+02  0.45594000000E+02  0.51100000000E-03 0. -1.
    9900012    2    1    2    0    0 -0.13533183499E+02 -0.23249926951E+02 -0.17117821881E+02  0.59301859048E+02  0.49999845017E+02 0.  0.
        -12    1    1    2    0    0  0.13533183499E+02  0.23249926951E+02  0.17117821881E+02  0.31886140952E+02  0.00000000000E+00 0.  1.
         11    1    3    3    0    0  0.87918748335E+01 -0.18704129949E+02 -0.93589914264E+01  0.22687711675E+02  0.51100000000E-03 0. -1.
        -11    1    3    3    0    0  0.75975186165E+00 -0.68177830040E+01  0.64465825898E+01  0.94137035926E+01  0.51100000000E-03 0.  1.
        -12    1    3    3    0    0 -0.23084810194E+02  0.22719860021E+01 -0.14205413045E+02  0.27200443781E+02  0.00000000000E+00 0.  1.
</event>
<event>
 7    1  0.6489567E-013  0.5930191E+02  0.7816164E-02  0.1266605E+00
        -11   -1    0    0    0    0  0.00000000000E+00  0.00000000000E+00  0.45593999997E+02  0.45594000000E+02  0.51100000000E-03 0.  1.
         11   -1    0    0    0    0 -0.00000000000E+00 -0.00000000000E+00 -0.45593999997E+02  0.45594000000E+02  0.51100000000E-03 0. -1.
    9900012    2    1    2    0    0  0.22912227761E+02  0.13880855154E+02 -0.17293769376E+02  0.59301909302E+02  0.49999936669E+02 0.  0.
        -12    1    1    2    0    0 -0.22912227761E+02 -0.13880855154E+02  0.17293769376E+02  0.31886090698E+02  0.00000000000E+00 0.  1.
         11    1    3    3    0    0 -0.81808565174E+01  0.71496860186E+01  0.88211048139E+01  0.13994867414E+02  0.51100000000E-03 0.  1.
        -11    1    3    3    0    0  0.19453583992E+02  0.72054056074E+01 -0.52319233327E+01  0.21394691447E+02  0.51100000000E-03 0. -1.
        -12    1    3    3    0    0  0.11639500286E+02 -0.47423647168E+00 -0.20882950857E+02  0.23912350441E+02  0.00000000000E+00 0.  1.
</event>
<event>
 7    1  0.6489567E-013  0.5930193E+02  0.7816164E-02  0.1266605E+00
        -11   -1    0    0    0    0  0.00000000000E+00  0.00000000000E+00  0.45593999997E+02  0.45594000000E+02  0.51100000000E-03 0. -1.
         11   -1    0    0    0    0 -0.00000000000E+00 -0.00000000000E+00 -0.45593999997E+02  0.45594000000E+02  0.51100000000E-03 0.  1.
    9900012    2    1    2    0    0 -0.52901095389E+00 -0.27692755073E+02  0.15797243784E+02  0.59301930200E+02  0.49999974781E+02 0.  0.
        -12    1    1    2    0    0  0.52901095389E+00  0.27692755073E+02 -0.15797243784E+02  0.31886069800E+02  0.00000000000E+00 0.  1.
         11    1    3    3    0    0  0.76820427838E+01 -0.13270242129E+02  0.17829205374E+02  0.23515817486E+02  0.51100000000E-03 0. -1.
        -11    1    3    3    0    0 -0.12875892555E+02 -0.72919134222E+01  0.12213510459E+02  0.19186725839E+02  0.51100000000E-03 0.  1.
        -12    1    3    3    0    0  0.46648388170E+01 -0.71305995215E+01 -0.14245472049E+02  0.16599386875E+02  0.00000000000E+00 0.  1.
</event>
<event>
 7    1  0.6489567E-013  0.5930193E+02  0.7816164E-02  0.1266605E+00
        -11   -1    0    0    0    0  0.00000000000E+00  0.00000000000E+00  0.45593999997E+02  0.45594000000E+02  0.51100000000E-03 0.  1.
         11   -1    0    0    0    0 -0.00000000000E+00 -0.00000000000E+00 -0.45593999997E+02  0.45594000000E+02  0.51100000000E-03 0. -1.
    9900012    2    1    2    0    0  0.25058730544E+02  0.19046705483E+02 -0.50994351218E+01  0.59301934003E+02  0.49999981717E+02 0.  0.
        -12    1    1    2    0    0 -0.25058730544E+02 -0.19046705483E+02  0.50994351218E+01  0.31886065997E+02  0.00000000000E+00 0.  1.
         11    1    3    3    0    0  0.16499524488E+02  0.13549442359E+02 -0.26667781004E+02  0.34161268134E+02  0.51100000000E-03 0. -1.
        -11    1    3    3    0    0 -0.76557691940E+00  0.14765599834E+01  0.47414487035E+00  0.17294944415E+01  0.51100000000E-03 0.  1.
        -12    1    3    3    0    0  0.93247829749E+01  0.40207031404E+01  0.21094201012E+02  0.23411171427E+02  0.00000000000E+00 0.  1.
</event>
<event>
 7    1  0.6489567E-013  0.5930203E+02  0.7816164E-02  0.1266604E+00
        -11   -1    0    0    0    0  0.00000000000E+00  0.00000000000E+00  0.45593999997E+02  0.45594000000E+02  0.51100000000E-03 0. -1.
         11   -1    0    0    0    0 -0.00000000000E+00 -0.00000000000E+00 -0.45593999997E+02  0.45594000000E+02  0.51100000000E-03 0.  1.
    9900012    2    1    2    0    0  0.16761016202E+02 -0.14634956258E+02  0.22838592481E+02  0.59302032628E+02  0.50000161585E+02 0.  0.
        -12    1    1    2    0    0 -0.16761016202E+02  0.14634956258E+02 -0.22838592481E+02  0.31885967372E+02  0.00000000000E+00 0.  1.
         11    1    3    3    0    0  0.28297090533E+01 -0.26404665877E+02  0.20543504780E+02  0.33574532347E+02  0.51100000000E-03 0. -1.
        -11    1    3    3    0    0  0.37601170562E+01 -0.48515742390E+01  0.48710771344E+00  0.61573961265E+01  0.51100000000E-03 0.  1.
        -12    1    3    3    0    0  0.10171190092E+02  0.16621283858E+02  0.18079799869E+01  0.19570104154E+02  0.00000000000E+00 0.  1.
</event>
<event>
 7    1  0.6489567E-013  0.5930197E+02  0.7816164E-02  0.1266605E+00
        -11   -1    0    0    0    0  0.00000000000E+00  0.00000000000E+00  0.45593999997E+02  0.45594000000E+02  0.51100000000E-03 0.  1.
         11   -1    0    0    0    0 -0.00000000000E+00 -0.00000000000E+00 -0.45593999997E+02  0.45594000000E+02  0.51100000000E-03 0. -1.
    9900012    2    1    2    0    0  0.13399185221E+02 -0.28400252241E+02 -0.55323157348E+01  0.59301968430E+02  0.50000044503E+02 0.  0.
        -12    1    1    2    0    0 -0.13399185221E+02  0.28400252241E+02  0.55323157348E+01  0.31886031570E+02  0.00000000000E+00 0.  1.
         11    1    3    3    0    0  0.20363340591E+02 -0.12424059028E+02  0.11951331682E+02  0.26680652391E+02  0.51100000000E-03 0. -1.
        -11    1    3    3    0    0 -0.16540082186E+01  0.42612786229E+01  0.10278582409E+01  0.46851607778E+01  0.51100000000E-03 0.  1.
        -12    1    3    3    0    0 -0.53101471519E+01 -0.20237471836E+02 -0.18511505657E+02  0.27936155261E+02  0.00000000000E+00 0.  1.
</event>
<event>
 7    1  0.6489567E-013  0.5930195E+02  0.7816164E-02  0.1266605E+00
        -11   -1    0    0    0    0  0.00000000000E+00  0.00000000000E+00  0.45593999997E+02  0.45594000000E+02  0.51100000000E-03 0. -1.
         11   -1    0    0    0    0 -0.00000000000E+00 -0.00000000000E+00 -0.45593999997E+02  0.45594000000E+02  0.51100000000E-03 0.  1.
    9900012    2    1    2    0    0 -0.20815432146E+01 -0.21819102968E+02  0.23158452809E+02  0.59301952691E+02  0.50000015799E+02 0.  0.
        -12    1    1    2    0    0  0.20815432146E+01  0.21819102968E+02 -0.23158452809E+02  0.31886047309E+02  0.00000000000E+00 0.  1.
         11    1    3    3    0    0 -0.15821993989E+02 -0.11041647614E+00  0.10187882702E+02  0.18818624812E+02  0.51100000000E-03 0. -1.
        -11    1    3    3    0    0 -0.32060778435E+01  0.40775847586E+01 -0.27306043490E+01  0.58618967045E+01  0.51100000000E-03 0.  1.
        -12    1    3    3    0    0  0.16946528618E+02 -0.25786271251E+02  0.15701174456E+02  0.34621431174E+02  0.00000000000E+00 0.  1.
</event>
<event>
 7    1  0.6489567E-013  0.5930191E+02  0.7816164E-02  0.1266605E+00
        -11   -1    0    0    0    0  0.00000000000E+00  0.00000000000E+00  0.45593999997E+02  0.45594000000E+02  0.51100000000E-03 0.  1.
         11   -1    0    0    0    0 -0.00000000000E+00 -0.00000000000E+00 -0.45593999997E+02  0.45594000000E+02  0.51100000000E-03 0. -1.
    9900012    2    1    2    0    0 -0.22631451385E+02  0.11384473811E+02 -0.19363216322E+02  0.59301906134E+02  0.49999930890E+02 0.  0.
        -12    1    1    2    0    0  0.22631451385E+02 -0.11384473811E+02  0.19363216322E+02  0.31886093866E+02  0.00000000000E+00 0.  1.
         11    1    3    3    0    0 -0.26323543983E+02 -0.34389560647E+01 -0.50570218467E+01  0.27024597256E+02  0.51100000000E-03 0.  1.
        -11    1    3    3    0    0 -0.71375998463E+01  0.77790487961E+01 -0.16080895372E+02  0.19236790999E+02  0.51100000000E-03 0. -1.
        -12    1    3    3    0    0  0.10829692445E+02  0.70443810796E+01  0.17747008966E+01  0.13040517878E+02  0.00000000000E+00 0.  1.
</event>
<event>
 7    1  0.6489567E-013  0.5930194E+02  0.7816164E-02  0.1266605E+00
        -11   -1    0    0    0    0  0.00000000000E+00  0.00000000000E+00  0.45593999997E+02  0.45594000000E+02  0.51100000000E-03 0.  1.
         11   -1    0    0    0    0 -0.00000000000E+00 -0.00000000000E+00 -0.45593999997E+02  0.45594000000E+02  0.51100000000E-03 0. -1.
    9900012    2    1    2    0    0  0.74693114259E+01  0.30905912681E+02  0.23989688913E+01  0.59301935590E+02  0.49999984611E+02 0.  0.
        -12    1    1    2    0    0 -0.74693114259E+01 -0.30905912681E+02 -0.23989688913E+01  0.31886064410E+02  0.00000000000E+00 0.  1.
         11    1    3    3    0    0  0.48722726324E+01  0.48171748223E+01 -0.85331830194E+01  0.10943465017E+02  0.51100000000E-03 0. -1.
        -11    1    3    3    0    0  0.51570976596E+01 -0.41357738447E+01  0.16268134962E+02  0.17559968592E+02  0.51100000000E-03 0.  1.
         12    1    3    3    0    0 -0.25600588660E+01  0.30224511704E+02 -0.53359830510E+01  0.30798501981E+02  0.00000000000E+00 0. -1.
</event>
<event>
 7    1  0.6489567E-013  0.5930196E+02  0.7816164E-02  0.1266605E+00
        -11   -1    0    0    0    0  0.00000000000E+00  0.00000000000E+00  0.45593999997E+02  0.45594000000E+02  0.51100000000E-03 0. -1.
         11   -1    0    0    0    0 -0.00000000000E+00 -0.00000000000E+00 -0.45593999997E+02  0.45594000000E+02  0.51100000000E-03 0.  1.
    9900012    2    1    2    0    0  0.28910895750E+02  0.12655433751E+02  0.45518717750E+01  0.59301961783E+02  0.50000032382E+02 0.  0.
        -12    1    1    2    0    0 -0.28910895750E+02 -0.12655433751E+02 -0.45518717750E+01  0.31886038217E+02  0.00000000000E+00 0.  1.
         11    1    3    3    0    0  0.47504435682E+01  0.17187852438E+02  0.23272577091E+01  0.17983467803E+02  0.51100000000E-03 0. -1.
        -11    1    3    3    0    0  0.90204334409E+01  0.13783035276E+02  0.54211624764E+01  0.17341547905E+02  0.51100000000E-03 0.  1.
        -12    1    3    3    0    0  0.15140018741E+02 -0.18315453963E+02 -0.31965484105E+01  0.23976946075E+02  0.00000000000E+00 0.  1.
</event>
<event>
 7    1  0.6489567E-013  0.5930193E+02  0.7816164E-02  0.1266605E+00
        -11   -1    0    0    0    0  0.00000000000E+00  0.00000000000E+00  0.45593999997E+02  0.45594000000E+02  0.51100000000E-03 0.  1.
         11   -1    0    0    0    0 -0.00000000000E+00 -0.00000000000E+00 -0.45593999997E+02  0.45594000000E+02  0.51100000000E-03 0. -1.
    9900012    2    1    2    0    0 -0.17315416101E+02  0.26740105694E+02 -0.13654637922E+01  0.59301931277E+02  0.49999976745E+02 0.  0.
        -12    1    1    2    0    0  0.17315416101E+02 -0.26740105694E+02  0.13654637922E+01  0.31886068723E+02  0.00000000000E+00 0.  1.
         11    1    3    3    0    0  0.74481561312E+01  0.74052473544E+01 -0.31377178166E+01  0.10961660070E+02  0.51100000000E-03 0. -1.
        -11    1    3    3    0    0 -0.55658273477E+00  0.13485312680E+02  0.14969664671E+02  0.20155751116E+02  0.51100000000E-03 0.  1.
        -12    1    3    3    0    0 -0.24206989497E+02  0.58495456591E+01 -0.13197410647E+02  0.28184520090E+02  0.00000000000E+00 0.  1.
</event>
<event>
 7    1  0.6489567E-013  0.5930202E+02  0.7816164E-02  0.1266604E+00
        -11   -1    0    0    0    0  0.00000000000E+00  0.00000000000E+00  0.45593999997E+02  0.45594000000E+02  0.51100000000E-03 0. -1.
         11   -1    0    0    0    0 -0.00000000000E+00 -0.00000000000E+00 -0.45593999997E+02  0.45594000000E+02  0.51100000000E-03 0.  1.
    9900012    2    1    2    0    0  0.26983376931E+01  0.11817059040E+02  0.29492232442E+02  0.59302020556E+02  0.50000139569E+02 0.  0.
        -12    1    1    2    0    0 -0.26983376931E+01 -0.11817059040E+02 -0.29492232442E+02  0.31885979444E+02  0.00000000000E+00 0.  1.
         11    1    3    3    0    0 -0.11361706397E+02 -0.72887491389E+01  0.44352677814E+01  0.14208653589E+02  0.51100000000E-03 0. -1.
        -11    1    3    3    0    0 -0.79540898396E+01  0.11712325483E+02  0.78306788156E+01  0.16179173167E+02  0.51100000000E-03 0.  1.
        -12    1    3    3    0    0  0.22014133930E+02  0.73934826953E+01  0.17226285845E+02  0.28914193800E+02  0.00000000000E+00 0.  1.
</event>
<event>
 7    1  0.6489567E-013  0.5930197E+02  0.7816164E-02  0.1266605E+00
        -11   -1    0    0    0    0  0.00000000000E+00  0.00000000000E+00  0.45593999997E+02  0.45594000000E+02  0.51100000000E-03 0.  1.
         11   -1    0    0    0    0 -0.00000000000E+00 -0.00000000000E+00 -0.45593999997E+02  0.45594000000E+02  0.51100000000E-03 0. -1.
    9900012    2    1    2    0    0  0.12849370301E+02 -0.93067586705E+01 -0.27658573426E+02  0.59301972370E+02  0.50000051689E+02 0.  0.
        -12    1    1    2    0    0 -0.12849370301E+02  0.93067586705E+01  0.27658573426E+02  0.31886027630E+02  0.00000000000E+00 0.  1.
         11    1    3    3    0    0  0.42666784274E+01 -0.92676745021E+01 -0.10927599977E+02  0.14950143042E+02  0.51100000000E-03 0. -1.
        -11    1    3    3    0    0  0.19159936434E+02 -0.10971860403E+02 -0.46903360769E+00  0.22084041244E+02  0.51100000000E-03 0.  1.
        -12    1    3    3    0    0 -0.10577244561E+02  0.10932776235E+02 -0.16261939842E+02  0.22267788083E+02  0.00000000000E+00 0.  1.
</event>
<event>
 7    1  0.6489567E-013  0.5930193E+02  0.7816164E-02  0.1266605E+00
        -11   -1    0    0    0    0  0.00000000000E+00  0.00000000000E+00  0.45593999997E+02  0.45594000000E+02  0.51100000000E-03 0. -1.
         11   -1    0    0    0    0 -0.00000000000E+00 -0.00000000000E+00 -0.45593999997E+02  0.45594000000E+02  0.51100000000E-03 0.  1.
    9900012    2    1    2    0    0 -0.29287319479E+02  0.86181312354E+01  0.92033725404E+01  0.59301931971E+02  0.49999978011E+02 0.  0.
        -12    1    1    2    0    0  0.29287319479E+02 -0.86181312354E+01 -0.92033725404E+01  0.31886068029E+02  0.00000000000E+00 0.  1.
         11    1    3    3    0    0 -0.19393034549E+02 -0.47782686794E+01 -0.94843626576E+01  0.22110512791E+02  0.51100000000E-03 0. -1.
        -11    1    3    3    0    0 -0.98615457640E+01  0.14228803757E+02 -0.11368011117E+01  0.17349387835E+02  0.51100000000E-03 0.  1.
         12    1    3    3    0    0 -0.32739165483E-01 -0.83240384236E+00  0.19824536310E+02  0.19842031345E+02  0.00000000000E+00 0. -1.
</event>
<event>
 7    1  0.6489567E-013  0.5930189E+02  0.7816164E-02  0.1266605E+00
        -11   -1    0    0    0    0  0.00000000000E+00  0.00000000000E+00  0.45593999997E+02  0.45594000000E+02  0.51100000000E-03 0. -1.
         11   -1    0    0    0    0 -0.00000000000E+00 -0.00000000000E+00 -0.45593999997E+02  0.45594000000E+02  0.51100000000E-03 0.  1.
    9900012    2    1    2    0    0 -0.17223450217E+02 -0.26467388190E+02 -0.44220305937E+01  0.59301886572E+02  0.49999895214E+02 0.  0.
        -12    1    1    2    0    0  0.17223450217E+02  0.26467388190E+02  0.44220305937E+01  0.31886113428E+02  0.00000000000E+00 0.  1.
         11    1    3    3    0    0 -0.10035405925E+02 -0.30029233035E+02  0.95972948915E+01  0.33084320731E+02  0.51100000000E-03 0. -1.
        -11    1    3    3    0    0 -0.58687896662E+01 -0.76138879148E+01 -0.21286371902E+01  0.98460691585E+01  0.51100000000E-03 0.  1.
         12    1    3    3    0    0 -0.13192546256E+01  0.11175732759E+02 -0.11890688295E+02  0.16371496682E+02  0.00000000000E+00 0. -1.
</event>
<event>
 7    1  0.6489567E-013  0.5930195E+02  0.7816164E-02  0.1266605E+00
        -11   -1    0    0    0    0  0.00000000000E+00  0.00000000000E+00  0.45593999997E+02  0.45594000000E+02  0.51100000000E-03 0.  1.
         11   -1    0    0    0    0 -0.00000000000E+00 -0.00000000000E+00 -0.45593999997E+02  0.45594000000E+02  0.51100000000E-03 0. -1.
    9900012    2    1    2    0    0 -0.43038865798E+01  0.30071565263E+02 -0.96900755230E+01  0.59301952256E+02  0.50000015007E+02 0.  0.
        -12    1    1    2    0    0  0.43038865798E+01 -0.30071565263E+02  0.96900755230E+01  0.31886047744E+02  0.00000000000E+00 0.  1.
         11    1    3    3    0    0 -0.26872171333E+01  0.10624454735E+02 -0.12432973038E+02  0.16573442406E+02  0.51100000000E-03 0. -1.
        -11    1    3    3    0    0 -0.16089469057E+02 -0.25373716917E+01  0.25277654050E+00  0.16290278263E+02  0.51100000000E-03 0.  1.
        -12    1    3    3    0    0  0.14472799611E+02  0.21984482220E+02  0.24901209748E+01  0.26438231588E+02  0.00000000000E+00 0.  1.
</event>
<event>
 7    1  0.6489567E-013  0.5930196E+02  0.7816164E-02  0.1266605E+00
        -11   -1    0    0    0    0  0.00000000000E+00  0.00000000000E+00  0.45593999997E+02  0.45594000000E+02  0.51100000000E-03 0.  1.
         11   -1    0    0    0    0 -0.00000000000E+00 -0.00000000000E+00 -0.45593999997E+02  0.45594000000E+02  0.51100000000E-03 0. -1.
    9900012    2    1    2    0    0  0.27612573711E+02 -0.14848408529E+02 -0.58129407769E+01  0.59301956920E+02  0.50000023512E+02 0.  0.
        -12    1    1    2    0    0 -0.27612573711E+02  0.14848408529E+02  0.58129407769E+01  0.31886043080E+02  0.00000000000E+00 0.  1.
         11    1    3    3    0    0  0.36283327595E+02 -0.19847592848E+01 -0.11306589694E+02  0.38055986409E+02  0.51100000000E-03 0. -1.
        -11    1    3    3    0    0  0.32246396299E+01 -0.35231789758E+00  0.56615509004E+00  0.32928650885E+01  0.51100000000E-03 0.  1.
        -12    1    3    3    0    0 -0.11895393513E+02 -0.12511331347E+02  0.49274938268E+01  0.17953105423E+02  0.00000000000E+00 0.  1.
</event>
<event>
 7    1  0.6489567E-013  0.5930193E+02  0.7816164E-02  0.1266605E+00
        -11   -1    0    0    0    0  0.00000000000E+00  0.00000000000E+00  0.45593999997E+02  0.45594000000E+02  0.51100000000E-03 0.  1.
         11   -1    0    0    0    0 -0.00000000000E+00 -0.00000000000E+00 -0.45593999997E+02  0.45594000000E+02  0.51100000000E-03 0. -1.
    9900012    2    1    2    0    0 -0.17672517833E+02  0.19290721683E+02 -0.18228323390E+02  0.59301927756E+02  0.49999970323E+02 0.  0.
        -12    1    1    2    0    0  0.17672517833E+02 -0.19290721683E+02  0.18228323390E+02  0.31886072244E+02  0.00000000000E+00 0.  1.
         11    1    3    3    0    0 -0.20302003231E+02  0.12528630601E+02 -0.30193065926E+02  0.38480633444E+02  0.51100000000E-03 0. -1.
        -11    1    3    3    0    0 -0.45403273095E+01 -0.24254370619E+01  0.21253354848E+01  0.55690545160E+01  0.51100000000E-03 0.  1.
        -12    1    3    3    0    0  0.71698127082E+01  0.91875281435E+01  0.98394070517E+01  0.15252239796E+02  0.00000000000E+00 0.  1.
</event>
<event>
 7    1  0.6489567E-013  0.5930193E+02  0.7816164E-02  0.1266605E+00
        -11   -1    0    0    0    0  0.00000000000E+00  0.00000000000E+00  0.45593999997E+02  0.45594000000E+02  0.51100000000E-03 0. -1.
         11   -1    0    0    0    0 -0.00000000000E+00 -0.00000000000E+00 -0.45593999997E+02  0.45594000000E+02  0.51100000000E-03 0.  1.
    9900012    2    1    2    0    0  0.27957636844E+02 -0.14129718106E+02 -0.59533859773E+01  0.59301934136E+02  0.49999981961E+02 0.  0.
        -12    1    1    2    0    0 -0.27957636844E+02  0.14129718106E+02  0.59533859773E+01  0.31886065864E+02  0.00000000000E+00 0.  1.
         11    1    3    3    0    0  0.17960770418E+02 -0.18613916817E+02 -0.29914042866E+01  0.26038734093E+02  0.51100000000E-03 0. -1.
        -11    1    3    3    0    0  0.15934543852E+02 -0.68703207699E+01 -0.84781606649E+01  0.19312954299E+02  0.51100000000E-03 0.  1.
         12    1    3    3    0    0 -0.59376774258E+01  0.11354519481E+02  0.55161789742E+01  0.13950245745E+02  0.00000000000E+00 0. -1.
</event>
<event>
 7    1  0.6489567E-013  0.5930182E+02  0.7816164E-02  0.1266605E+00
        -11   -1    0    0    0    0  0.00000000000E+00  0.00000000000E+00  0.45593999997E+02  0.45594000000E+02  0.51100000000E-03 0. -1.
         11   -1    0    0    0    0 -0.00000000000E+00 -0.00000000000E+00 -0.45593999997E+02  0.45594000000E+02  0.51100000000E-03 0.  1.
    9900012    2    1    2    0    0 -0.90510153407E+01 -0.45275225771E+01  0.30237545640E+02  0.59301819519E+02  0.49999772925E+02 0.  0.
        -12    1    1    2    0    0  0.90510153407E+01  0.45275225771E+01 -0.30237545640E+02  0.31886180481E+02  0.00000000000E+00 0.  1.
         11    1    3    3    0    0  0.70052361369E+01 -0.13072902524E+02  0.34788874008E+01  0.15234066153E+02  0.51100000000E-03 0. -1.
        -11    1    3    3    0    0 -0.20021914319E+01 -0.41329853595E+01 -0.51919256175E+01  0.69315532451E+01  0.51100000000E-03 0.  1.
         12    1    3    3    0    0 -0.14054060046E+02  0.12678365307E+02  0.31950583856E+02  0.37136200120E+02  0.00000000000E+00 0. -1.
</event>
<event>
 7    1  0.6489567E-013  0.5930188E+02  0.7816164E-02  0.1266605E+00
        -11   -1    0    0    0    0  0.00000000000E+00  0.00000000000E+00  0.45593999997E+02  0.45594000000E+02  0.51100000000E-03 0. -1.
         11   -1    0    0    0    0 -0.00000000000E+00 -0.00000000000E+00 -0.45593999997E+02  0.45594000000E+02  0.51100000000E-03 0.  1.
    9900012    2    1    2    0    0 -0.88474231317E+01  0.24247215587E+02  0.18722185626E+02  0.59301880850E+02  0.49999884780E+02 0.  0.
        -12    1    1    2    0    0  0.88474231317E+01 -0.24247215587E+02 -0.18722185626E+02  0.31886119150E+02  0.00000000000E+00 0.  1.
         11    1    3    3    0    0  0.57136615452E+01  0.19318907123E+00  0.11356275539E+02  0.12714096297E+02  0.51100000000E-03 0. -1.
        -11    1    3    3    0    0  0.10263743364E+02 -0.15023440605E+01  0.16862416607E+01  0.10509275747E+02  0.51100000000E-03 0.  1.
         12    1    3    3    0    0 -0.24824828041E+02  0.25556370576E+02  0.56796684269E+01  0.36078508807E+02  0.00000000000E+00 0. -1.
</event>
<event>
 7    1  0.6489567E-013  0.5930193E+02  0.7816164E-02  0.1266605E+00
        -11   -1    0    0    0    0  0.00000000000E+00  0.00000000000E+00  0.45593999997E+02  0.45594000000E+02  0.51100000000E-03 0. -1.
         11   -1    0    0    0    0 -0.00000000000E+00 -0.00000000000E+00 -0.45593999997E+02  0.45594000000E+02  0.51100000000E-03 0.  1.
    9900012    2    1    2    0    0 -0.15299310042E+02 -0.26510701883E+02  0.89350748601E+01  0.59301925220E+02  0.49999965700E+02 0.  0.
        -12    1    1    2    0    0  0.15299310042E+02  0.26510701883E+02 -0.89350748601E+01  0.31886074780E+02  0.00000000000E+00 0.  1.
         11    1    3    3    0    0 -0.11166771659E+02 -0.68959096174E+01 -0.10195752697E+01  0.13163961893E+02  0.51100000000E-03 0. -1.
        -11    1    3    3    0    0 -0.12315571863E+02  0.55415023804E+01 -0.64963509083E+01  0.14986131400E+02  0.51100000000E-03 0.  1.
        -12    1    3    3    0    0  0.81830334807E+01 -0.25156294646E+02  0.16451001038E+02  0.31151831927E+02  0.00000000000E+00 0.  1.
</event>
<event>
 7    1  0.6489567E-013  0.5930197E+02  0.7816164E-02  0.1266605E+00
        -11   -1    0    0    0    0  0.00000000000E+00  0.00000000000E+00  0.45593999997E+02  0.45594000000E+02  0.51100000000E-03 0. -1.
         11   -1    0    0    0    0 -0.00000000000E+00 -0.00000000000E+00 -0.45593999997E+02  0.45594000000E+02  0.51100000000E-03 0.  1.
    9900012    2    1    2    0    0  0.20844180407E+00 -0.25534431069E+02  0.19096289353E+02  0.59301970378E+02  0.50000048057E+02 0.  0.
        -12    1    1    2    0    0 -0.20844180407E+00  0.25534431069E+02 -0.19096289353E+02  0.31886029622E+02  0.00000000000E+00 0.  1.
         11    1    3    3    0    0 -0.40748313554E+01  0.52624730755E+01  0.80106777323E+01  0.10414837082E+02  0.51100000000E-03 0. -1.
        -11    1    3    3    0    0  0.52497853636E+01 -0.82488513696E+01 -0.12746386750E+02  0.16064687072E+02  0.51100000000E-03 0.  1.
         12    1    3    3    0    0 -0.96651220409E+00 -0.22548052775E+02  0.23831998371E+02  0.32822446224E+02  0.00000000000E+00 0. -1.
</event>
<event>
 7    1  0.6489567E-013  0.5930189E+02  0.7816164E-02  0.1266605E+00
        -11   -1    0    0    0    0  0.00000000000E+00  0.00000000000E+00  0.45593999997E+02  0.45594000000E+02  0.51100000000E-03 0.  1.
         11   -1    0    0    0    0 -0.00000000000E+00 -0.00000000000E+00 -0.45593999997E+02  0.45594000000E+02  0.51100000000E-03 0. -1.
    9900012    2    1    2    0    0 -0.20047496975E+02 -0.61447788612E+00 -0.24787990062E+02  0.59301887516E+02  0.49999896936E+02 0.  0.
        -12    1    1    2    0    0  0.20047496975E+02  0.61447788612E+00  0.24787990062E+02  0.31886112484E+02  0.00000000000E+00 0.  1.
         11    1    3    3    0    0  0.37566930741E+01 -0.78943523979E+01 -0.10664693255E+02  0.13790185826E+02  0.51100000000E-03 0. -1.
        -11    1    3    3    0    0  0.92025979973E+01  0.88041371979E+00 -0.56662658267E+01  0.10842947334E+02  0.51100000000E-03 0.  1.
        -12    1    3    3    0    0 -0.33006788046E+02  0.63994607920E+01 -0.84570309808E+01  0.34668754356E+02  0.00000000000E+00 0.  1.
</event>
<event>
 7    1  0.6489567E-013  0.5930193E+02  0.7816164E-02  0.1266605E+00
        -11   -1    0    0    0    0  0.00000000000E+00  0.00000000000E+00  0.45593999997E+02  0.45594000000E+02  0.51100000000E-03 0.  1.
         11   -1    0    0    0    0 -0.00000000000E+00 -0.00000000000E+00 -0.45593999997E+02  0.45594000000E+02  0.51100000000E-03 0. -1.
    9900012    2    1    2    0    0 -0.11911446383E+02 -0.80713810361E+01 -0.28455078206E+02  0.59301933725E+02  0.49999981211E+02 0.  0.
        -12    1    1    2    0    0  0.11911446383E+02  0.80713810361E+01  0.28455078206E+02  0.31886066275E+02  0.00000000000E+00 0.  1.
         11    1    3    3    0    0 -0.31791798038E+01  0.68926466615E+00 -0.21789805705E+02  0.22031293719E+02  0.51100000000E-03 0. -1.
        -11    1    3    3    0    0  0.90479042023E+01  0.41683598598E+01  0.62629239488E+01  0.11767073172E+02  0.51100000000E-03 0.  1.
         12    1    3    3    0    0 -0.17780170782E+02 -0.12929005562E+02 -0.12928196450E+02  0.25503566835E+02  0.00000000000E+00 0. -1.
</event>
<event>
 7    1  0.6489567E-013  0.5930194E+02  0.7816164E-02  0.1266605E+00
        -11   -1    0    0    0    0  0.00000000000E+00  0.00000000000E+00  0.45593999997E+02  0.45594000000E+02  0.51100000000E-03 0.  1.
         11   -1    0    0    0    0 -0.00000000000E+00 -0.00000000000E+00 -0.45593999997E+02  0.45594000000E+02  0.51100000000E-03 0. -1.
    9900012    2    1    2    0    0  0.68035358478E+01 -0.15318741440E+02  0.27125059740E+02  0.59301940268E+02  0.49999993142E+02 0.  0.
        -12    1    1    2    0    0 -0.68035358478E+01  0.15318741440E+02 -0.27125059740E+02  0.31886059732E+02  0.00000000000E+00 0.  1.
         11    1    3    3    0    0  0.68975403197E+01 -0.36948026136E+01  0.10259234058E+02  0.12902694003E+02  0.51100000000E-03 0. -1.
        -11    1    3    3    0    0 -0.11822131580E+02 -0.20316785914E+01  0.26051833896E+02  0.28680804776E+02  0.51100000000E-03 0.  1.
        -12    1    3    3    0    0  0.11728127109E+02 -0.95922602351E+01 -0.91860082134E+01  0.17718441489E+02  0.00000000000E+00 0.  1.
</event>
<event>
 7    1  0.6489567E-013  0.5930194E+02  0.7816164E-02  0.1266605E+00
        -11   -1    0    0    0    0  0.00000000000E+00  0.00000000000E+00  0.45593999997E+02  0.45594000000E+02  0.51100000000E-03 0.  1.
         11   -1    0    0    0    0 -0.00000000000E+00 -0.00000000000E+00 -0.45593999997E+02  0.45594000000E+02  0.51100000000E-03 0. -1.
    9900012    2    1    2    0    0  0.18245355720E+02 -0.16327489842E+02 -0.20426479803E+02  0.59301937103E+02  0.49999987372E+02 0.  0.
        -12    1    1    2    0    0 -0.18245355720E+02  0.16327489842E+02  0.20426479803E+02  0.31886062897E+02  0.00000000000E+00 0.  1.
         11    1    3    3    0    0  0.20326126116E+02 -0.26559508093E+01 -0.21256276494E+02  0.29530234816E+02  0.51100000000E-03 0. -1.
        -11    1    3    3    0    0  0.69136529563E+01 -0.90559453588E+00  0.95970722061E+01  0.11862651215E+02  0.51100000000E-03 0.  1.
         12    1    3    3    0    0 -0.89944233531E+01 -0.12765944497E+02 -0.87672755151E+01  0.17909051073E+02  0.00000000000E+00 0. -1.
</event>
<event>
 7    1  0.6489567E-013  0.5930188E+02  0.7816164E-02  0.1266605E+00
        -11   -1    0    0    0    0  0.00000000000E+00  0.00000000000E+00  0.45593999997E+02  0.45594000000E+02  0.51100000000E-03 0.  1.
         11   -1    0    0    0    0 -0.00000000000E+00 -0.00000000000E+00 -0.45593999997E+02  0.45594000000E+02  0.51100000000E-03 0. -1.
    9900012    2    1    2    0    0  0.24529473240E+02  0.11569633120E+02 -0.16768222072E+02  0.59301878577E+02  0.49999880633E+02 0.  0.
        -12    1    1    2    0    0 -0.24529473240E+02 -0.11569633120E+02  0.16768222072E+02  0.31886121423E+02  0.00000000000E+00 0.  1.
         11    1    3    3    0    0 -0.69020886154E+00  0.15258258591E+02 -0.11752926482E+02  0.19272314979E+02  0.51100000000E-03 0. -1.
        -11    1    3    3    0    0  0.34954316086E+01  0.70513834845E+01  0.90627867760E+01  0.12003089418E+02  0.51100000000E-03 0.  1.
        -12    1    3    3    0    0  0.21724250493E+02 -0.10740008955E+02 -0.14078082366E+02  0.28026474180E+02  0.00000000000E+00 0.  1.
</event>
<event>
 7    1  0.6489567E-013  0.5930191E+02  0.7816164E-02  0.1266605E+00
        -11   -1    0    0    0    0  0.00000000000E+00  0.00000000000E+00  0.45593999997E+02  0.45594000000E+02  0.51100000000E-03 0. -1.
         11   -1    0    0    0    0 -0.00000000000E+00 -0.00000000000E+00 -0.45593999997E+02  0.45594000000E+02  0.51100000000E-03 0.  1.
    9900012    2    1    2    0    0 -0.15417844222E+02 -0.17895721772E+02 -0.21418588820E+02  0.59301910161E+02  0.49999938236E+02 0.  0.
        -12    1    1    2    0    0  0.15417844222E+02  0.17895721772E+02  0.21418588820E+02  0.31886089839E+02  0.00000000000E+00 0.  1.
         11    1    3    3    0    0  0.81098442708E+01  0.10457374783E+01 -0.45856770544E+01  0.93750506814E+01  0.51100000000E-03 0. -1.
        -11    1    3    3    0    0 -0.40220363463E+01 -0.20288689735E+01  0.11046616872E+02  0.11929829431E+02  0.51100000000E-03 0.  1.
         12    1    3    3    0    0 -0.19505652146E+02 -0.16912590277E+02 -0.27879528637E+02  0.37997030049E+02  0.00000000000E+00 0. -1.
</event>
<event>
 7    1  0.6489567E-013  0.5930193E+02  0.7816164E-02  0.1266605E+00
        -11   -1    0    0    0    0  0.00000000000E+00  0.00000000000E+00  0.45593999997E+02  0.45594000000E+02  0.51100000000E-03 0. -1.
         11   -1    0    0    0    0 -0.00000000000E+00 -0.00000000000E+00 -0.45593999997E+02  0.45594000000E+02  0.51100000000E-03 0.  1.
    9900012    2    1    2    0    0  0.14424631870E+02 -0.68230645393E+01  0.27606108337E+02  0.59301930443E+02  0.49999975225E+02 0.  0.
        -12    1    1    2    0    0 -0.14424631870E+02  0.68230645393E+01 -0.27606108337E+02  0.31886069557E+02  0.00000000000E+00 0.  1.
         11    1    3    3    0    0  0.29859116632E+00 -0.24898141774E+01 -0.12677292160E+01  0.28098877110E+01  0.51100000000E-03 0. -1.
        -11    1    3    3    0    0 -0.13502784899E+01 -0.12959068766E+02  0.35313330802E+02  0.37640298191E+02  0.51100000000E-03 0.  1.
         12    1    3    3    0    0  0.15476319194E+02  0.86258184041E+01 -0.64394932498E+01  0.18851744541E+02  0.00000000000E+00 0. -1.
</event>
<event>
 7    1  0.6489567E-013  0.5930194E+02  0.7816164E-02  0.1266605E+00
        -11   -1    0    0    0    0  0.00000000000E+00  0.00000000000E+00  0.45593999997E+02  0.45594000000E+02  0.51100000000E-03 0. -1.
         11   -1    0    0    0    0 -0.00000000000E+00 -0.00000000000E+00 -0.45593999997E+02  0.45594000000E+02  0.51100000000E-03 0.  1.
    9900012    2    1    2    0    0 -0.16439215421E+02 -0.22488527815E+02  0.15515772027E+02  0.59301939275E+02  0.49999991333E+02 0.  0.
        -12    1    1    2    0    0  0.16439215421E+02  0.22488527815E+02 -0.15515772027E+02  0.31886060725E+02  0.00000000000E+00 0.  1.
         11    1    3    3    0    0 -0.38544705693E+01 -0.17754561544E+02  0.18885620640E+02  0.26205878467E+02  0.51100000000E-03 0. -1.
        -11    1    3    3    0    0 -0.12661401788E+02 -0.16435340499E+02 -0.48357967961E+01  0.21302967950E+02  0.51100000000E-03 0.  1.
        -12    1    3    3    0    0  0.76656936175E-01  0.11701374228E+02  0.14659481830E+01  0.11793092859E+02  0.00000000000E+00 0.  1.
</event>
<event>
 7    1  0.6489567E-013  0.5930187E+02  0.7816164E-02  0.1266605E+00
        -11   -1    0    0    0    0  0.00000000000E+00  0.00000000000E+00  0.45593999997E+02  0.45594000000E+02  0.51100000000E-03 0.  1.
         11   -1    0    0    0    0 -0.00000000000E+00 -0.00000000000E+00 -0.45593999997E+02  0.45594000000E+02  0.51100000000E-03 0. -1.
    9900012    2    1    2    0    0  0.30057797205E+02 -0.46111865868E+01  0.95911975998E+01  0.59301870007E+02  0.49999865003E+02 0.  0.
        -12    1    1    2    0    0 -0.30057797205E+02  0.46111865868E+01 -0.95911975998E+01  0.31886129993E+02  0.00000000000E+00 0.  1.
         11    1    3    3    0    0  0.11603916360E+02 -0.39872485092E+01 -0.63726561989E+01  0.13826054132E+02  0.51100000000E-03 0. -1.
        -11    1    3    3    0    0  0.26149135453E+02  0.64811323620E+01  0.68167434316E+00  0.26948971072E+02  0.51100000000E-03 0.  1.
        -12    1    3    3    0    0 -0.76952546085E+01 -0.71050704396E+01  0.15282179456E+02  0.18526844803E+02  0.00000000000E+00 0.  1.
</event>
<event>
 7    1  0.6489567E-013  0.5930196E+02  0.7816164E-02  0.1266605E+00
        -11   -1    0    0    0    0  0.00000000000E+00  0.00000000000E+00  0.45593999997E+02  0.45594000000E+02  0.51100000000E-03 0. -1.
         11   -1    0    0    0    0 -0.00000000000E+00 -0.00000000000E+00 -0.45593999997E+02  0.45594000000E+02  0.51100000000E-03 0.  1.
    9900012    2    1    2    0    0 -0.13596370079E+02  0.17552696694E+02  0.22885833206E+02  0.59301955998E+02  0.50000021831E+02 0.  0.
        -12    1    1    2    0    0  0.13596370079E+02 -0.17552696694E+02 -0.22885833206E+02  0.31886044002E+02  0.00000000000E+00 0.  1.
         11    1    3    3    0    0 -0.34819983038E+01  0.98243449572E+01  0.11076719272E+01  0.10481841603E+02  0.51100000000E-03 0. -1.
        -11    1    3    3    0    0 -0.11547074635E+02  0.22390321835E+02  0.22900695759E+02  0.34045606339E+02  0.51100000000E-03 0.  1.
        -12    1    3    3    0    0  0.14327028597E+01 -0.14661970098E+02 -0.11225344797E+01  0.14774508056E+02  0.00000000000E+00 0.  1.
</event>
<event>
 7    1  0.6489567E-013  0.5930192E+02  0.7816164E-02  0.1266605E+00
        -11   -1    0    0    0    0  0.00000000000E+00  0.00000000000E+00  0.45593999997E+02  0.45594000000E+02  0.51100000000E-03 0.  1.
         11   -1    0    0    0    0 -0.00000000000E+00 -0.00000000000E+00 -0.45593999997E+02  0.45594000000E+02  0.51100000000E-03 0. -1.
    9900012    2    1    2    0    0  0.26312152541E+02  0.64790749198E+01 -0.16805183810E+02  0.59301921752E+02  0.49999959374E+02 0.  0.
        -12    1    1    2    0    0 -0.26312152541E+02 -0.64790749198E+01  0.16805183810E+02  0.31886078248E+02  0.00000000000E+00 0.  1.
         11    1    3    3    0    0  0.27513268277E+02  0.31153470374E+01 -0.10854441659E+02  0.29740615704E+02  0.51100000000E-03 0. -1.
        -11    1    3    3    0    0  0.67374484067E+01 -0.31843772644E+01  0.88279438970E+01  0.11552751331E+02  0.51100000000E-03 0.  1.
        -12    1    3    3    0    0 -0.79385641431E+01  0.65481051468E+01 -0.14778686049E+02  0.18008554717E+02  0.00000000000E+00 0.  1.
</event>
<event>
 7    1  0.6489567E-013  0.5930201E+02  0.7816164E-02  0.1266605E+00
        -11   -1    0    0    0    0  0.00000000000E+00  0.00000000000E+00  0.45593999997E+02  0.45594000000E+02  0.51100000000E-03 0. -1.
         11   -1    0    0    0    0 -0.00000000000E+00 -0.00000000000E+00 -0.45593999997E+02  0.45594000000E+02  0.51100000000E-03 0.  1.
    9900012    2    1    2    0    0 -0.19966567925E+02 -0.15896521303E+02  0.19114220943E+02  0.59302005167E+02  0.50000111503E+02 0.  0.
        -12    1    1    2    0    0  0.19966567925E+02  0.15896521303E+02 -0.19114220943E+02  0.31885994833E+02  0.00000000000E+00 0.  1.
         11    1    3    3    0    0 -0.10314873483E+02 -0.11167850253E+02  0.13339691805E+02  0.20225352209E+02  0.51100000000E-03 0. -1.
        -11    1    3    3    0    0 -0.12322503706E+02  0.46709594361E+01  0.18697675374E+02  0.22874986870E+02  0.51100000000E-03 0.  1.
         12    1    3    3    0    0  0.26708092649E+01 -0.93996304859E+01 -0.12923146236E+02  0.16201666088E+02  0.00000000000E+00 0. -1.
</event>
<event>
 7    1  0.6489567E-013  0.5930206E+02  0.7816164E-02  0.1266604E+00
        -11   -1    0    0    0    0  0.00000000000E+00  0.00000000000E+00  0.45593999997E+02  0.45594000000E+02  0.51100000000E-03 0.  1.
         11   -1    0    0    0    0 -0.00000000000E+00 -0.00000000000E+00 -0.45593999997E+02  0.45594000000E+02  0.51100000000E-03 0. -1.
    9900012    2    1    2    0    0 -0.16028212546E+02 -0.19195225275E+02 -0.19782642175E+02  0.59302059490E+02  0.50000210575E+02 0.  0.
        -12    1    1    2    0    0  0.16028212546E+02  0.19195225275E+02  0.19782642175E+02  0.31885940510E+02  0.00000000000E+00 0.  1.
         11    1    3    3    0    0 -0.77657070490E+00  0.10788656049E+01 -0.14628643356E+02  0.14688914860E+02  0.51100000000E-03 0. -1.
        -11    1    3    3    0    0  0.55607004933E+01 -0.34462292696E+01  0.11399521833E+02  0.13143324711E+02  0.51100000000E-03 0.  1.
         12    1    3    3    0    0 -0.20812342334E+02 -0.16827861610E+02 -0.16553520652E+02  0.31469819920E+02  0.00000000000E+00 0. -1.
</event>
<event>
 7    1  0.6489567E-013  0.5930193E+02  0.7816164E-02  0.1266605E+00
        -11   -1    0    0    0    0  0.00000000000E+00  0.00000000000E+00  0.45593999997E+02  0.45594000000E+02  0.51100000000E-03 0. -1.
         11   -1    0    0    0    0 -0.00000000000E+00 -0.00000000000E+00 -0.45593999997E+02  0.45594000000E+02  0.51100000000E-03 0.  1.
    9900012    2    1    2    0    0  0.22291736506E+02  0.57388195414E+01  0.22065038346E+02  0.59301929634E+02  0.49999973749E+02 0.  0.
        -12    1    1    2    0    0 -0.22291736506E+02 -0.57388195414E+01 -0.22065038346E+02  0.31886070366E+02  0.00000000000E+00 0.  1.
         11    1    3    3    0    0  0.24642749608E+02  0.14041555100E+02  0.46440131436E+01  0.28740167644E+02  0.51100000000E-03 0. -1.
        -11    1    3    3    0    0  0.86087942611E-01  0.63260361158E+01  0.13969022948E+02  0.15334919186E+02  0.51100000000E-03 0.  1.
        -12    1    3    3    0    0 -0.24371010446E+01 -0.14628771675E+02  0.34520022548E+01  0.15226842804E+02  0.00000000000E+00 0.  1.
</event>
<event>
 7    1  0.6489567E-013  0.5930197E+02  0.7816164E-02  0.1266605E+00
        -11   -1    0    0    0    0  0.00000000000E+00  0.00000000000E+00  0.45593999997E+02  0.45594000000E+02  0.51100000000E-03 0. -1.
         11   -1    0    0    0    0 -0.00000000000E+00 -0.00000000000E+00 -0.45593999997E+02  0.45594000000E+02  0.51100000000E-03 0.  1.
    9900012    2    1    2    0    0 -0.13823159239E+02  0.10213341210E+02  0.26857526209E+02  0.59301971961E+02  0.50000050944E+02 0.  0.
        -12    1    1    2    0    0  0.13823159239E+02 -0.10213341210E+02 -0.26857526209E+02  0.31886028039E+02  0.00000000000E+00 0.  1.
         11    1    3    3    0    0 -0.22104902964E+01  0.11288193285E+01 -0.82684403015E+01  0.86329372584E+01  0.51100000000E-03 0. -1.
        -11    1    3    3    0    0 -0.23431439386E+02  0.73271636585E+01  0.22867982032E+02  0.33550920725E+02  0.51100000000E-03 0.  1.
         12    1    3    3    0    0  0.11818770443E+02  0.17573582231E+01  0.12257984478E+02  0.17118113978E+02  0.00000000000E+00 0. -1.
</event>
<event>
 7    1  0.6489567E-013  0.5930197E+02  0.7816164E-02  0.1266605E+00
        -11   -1    0    0    0    0  0.00000000000E+00  0.00000000000E+00  0.45593999997E+02  0.45594000000E+02  0.51100000000E-03 0. -1.
         11   -1    0    0    0    0 -0.00000000000E+00 -0.00000000000E+00 -0.45593999997E+02  0.45594000000E+02  0.51100000000E-03 0.  1.
    9900012    2    1    2    0    0 -0.14133290781E+02  0.18744602028E+02 -0.21577970286E+02  0.59301971474E+02  0.50000050055E+02 0.  0.
        -12    1    1    2    0    0  0.14133290781E+02 -0.18744602028E+02  0.21577970286E+02  0.31886028526E+02  0.00000000000E+00 0.  1.
         11    1    3    3    0    0 -0.16456072469E+02  0.90518975478E+01 -0.49100666855E+01  0.19412571325E+02  0.51100000000E-03 0. -1.
        -11    1    3    3    0    0 -0.57712919690E+01 -0.83575080098E+01  0.43298684785E+01  0.11040992366E+02  0.51100000000E-03 0.  1.
        -12    1    3    3    0    0  0.80940736574E+01  0.18050212490E+02 -0.20997772079E+02  0.28848407783E+02  0.00000000000E+00 0.  1.
</event>
<event>
 7    1  0.6489567E-013  0.5930197E+02  0.7816164E-02  0.1266605E+00
        -11   -1    0    0    0    0  0.00000000000E+00  0.00000000000E+00  0.45593999997E+02  0.45594000000E+02  0.51100000000E-03 0.  1.
         11   -1    0    0    0    0 -0.00000000000E+00 -0.00000000000E+00 -0.45593999997E+02  0.45594000000E+02  0.51100000000E-03 0. -1.
    9900012    2    1    2    0    0  0.46458092713E+01 -0.23443081221E+02 -0.21108225340E+02  0.59301972058E+02  0.50000051120E+02 0.  0.
        -12    1    1    2    0    0 -0.46458092713E+01  0.23443081221E+02  0.21108225340E+02  0.31886027942E+02  0.00000000000E+00 0.  1.
         11    1    3    3    0    0  0.73313672007E+01  0.49138994740E+01 -0.67215356498E+01  0.11093889977E+02  0.51100000000E-03 0. -1.
        -11    1    3    3    0    0  0.87291438934E+01 -0.64257065980E+01 -0.20096577381E+02  0.22833310778E+02  0.51100000000E-03 0.  1.
         12    1    3    3    0    0 -0.11414701823E+02 -0.21931274097E+02  0.57098876906E+01  0.25374771302E+02  0.00000000000E+00 0. -1.
</event>
<event>
 7    1  0.6489567E-013  0.5930204E+02  0.7816164E-02  0.1266604E+00
        -11   -1    0    0    0    0  0.00000000000E+00  0.00000000000E+00  0.45593999997E+02  0.45594000000E+02  0.51100000000E-03 0.  1.
         11   -1    0    0    0    0 -0.00000000000E+00 -0.00000000000E+00 -0.45593999997E+02  0.45594000000E+02  0.51100000000E-03 0. -1.
    9900012    2    1    2    0    0 -0.33031263278E+01  0.31362264031E+02  0.47129667029E+01  0.59302042215E+02  0.50000179070E+02 0.  0.
        -12    1    1    2    0    0  0.33031263278E+01 -0.31362264031E+02 -0.47129667029E+01  0.31885957785E+02  0.00000000000E+00 0.  1.
         11    1    3    3    0    0 -0.10345059752E+02  0.13270734403E+02  0.21163841581E+01  0.16959119524E+02  0.51100000000E-03 0. -1.
        -11    1    3    3    0    0 -0.50972685780E+01 -0.10094984404E+02  0.28100241093E+01  0.11652771895E+02  0.51100000000E-03 0.  1.
        -12    1    3    3    0    0  0.12139202003E+02  0.28186514033E+02 -0.21344156443E+00  0.30690150796E+02  0.00000000000E+00 0.  1.
</event>
<event>
 7    1  0.6489567E-013  0.5930195E+02  0.7816164E-02  0.1266605E+00
        -11   -1    0    0    0    0  0.00000000000E+00  0.00000000000E+00  0.45593999997E+02  0.45594000000E+02  0.51100000000E-03 0.  1.
         11   -1    0    0    0    0 -0.00000000000E+00 -0.00000000000E+00 -0.45593999997E+02  0.45594000000E+02  0.51100000000E-03 0. -1.
    9900012    2    1    2    0    0 -0.21511257386E+02  0.15306426343E+02 -0.17880139955E+02  0.59301948402E+02  0.50000007977E+02 0.  0.
        -12    1    1    2    0    0  0.21511257386E+02 -0.15306426343E+02  0.17880139955E+02  0.31886051598E+02  0.00000000000E+00 0.  1.
         11    1    3    3    0    0  0.89595263639E+01 -0.42482804516E+01 -0.17997178328E+02  0.20547978672E+02  0.51100000000E-03 0. -1.
        -11    1    3    3    0    0  0.11475061949E+01  0.11983451815E+01 -0.13869693430E+01  0.21625184071E+01  0.51100000000E-03 0.  1.
        -12    1    3    3    0    0 -0.31618289945E+02  0.18356361613E+02  0.15040077157E+01  0.36591451323E+02  0.00000000000E+00 0.  1.
</event>
<event>
 7    1  0.6489567E-013  0.5930181E+02  0.7816164E-02  0.1266605E+00
        -11   -1    0    0    0    0  0.00000000000E+00  0.00000000000E+00  0.45593999997E+02  0.45594000000E+02  0.51100000000E-03 0.  1.
         11   -1    0    0    0    0 -0.00000000000E+00 -0.00000000000E+00 -0.45593999997E+02  0.45594000000E+02  0.51100000000E-03 0. -1.
    9900012    2    1    2    0    0  0.22734011389E+01 -0.28013347837E+01 -0.31681437506E+02  0.59301806879E+02  0.49999749872E+02 0.  0.
        -12    1    1    2    0    0 -0.22734011389E+01  0.28013347837E+01  0.31681437506E+02  0.31886193121E+02  0.00000000000E+00 0.  1.
         11    1    3    3    0    0 -0.22987006962E+01 -0.80311685141E+01  0.76427762829E+00  0.83885525061E+01  0.51100000000E-03 0.  1.
        -11    1    3    3    0    0 -0.15010733031E+02 -0.64916423975E+01 -0.12181504162E+02  0.20392463585E+02  0.51100000000E-03 0. -1.
        -12    1    3    3    0    0  0.19582834866E+02  0.11721476128E+02 -0.20264210972E+02  0.30520790788E+02  0.00000000000E+00 0.  1.
</event>
<event>
 7    1  0.6489567E-013  0.5930194E+02  0.7816164E-02  0.1266605E+00
        -11   -1    0    0    0    0  0.00000000000E+00  0.00000000000E+00  0.45593999997E+02  0.45594000000E+02  0.51100000000E-03 0.  1.
         11   -1    0    0    0    0 -0.00000000000E+00 -0.00000000000E+00 -0.45593999997E+02  0.45594000000E+02  0.51100000000E-03 0. -1.
    9900012    2    1    2    0    0  0.16074565385E+01 -0.24485306842E+02 -0.20361897781E+02  0.59301936447E+02  0.49999986174E+02 0.  0.
        -12    1    1    2    0    0 -0.16074565385E+01  0.24485306842E+02  0.20361897781E+02  0.31886063553E+02  0.00000000000E+00 0.  1.
         11    1    3    3    0    0 -0.59839198523E+01  0.28356124236E-01 -0.16147136576E+02  0.17220282249E+02  0.51100000000E-03 0. -1.
        -11    1    3    3    0    0  0.13246458729E+01 -0.15133800543E+02 -0.18462248819E+02  0.23909019998E+02  0.51100000000E-03 0.  1.
        -12    1    3    3    0    0  0.62667305180E+01 -0.93798624236E+01  0.14247487614E+02  0.18172634200E+02  0.00000000000E+00 0.  1.
</event>
<event>
 7    1  0.6489567E-013  0.5930192E+02  0.7816164E-02  0.1266605E+00
        -11   -1    0    0    0    0  0.00000000000E+00  0.00000000000E+00  0.45593999997E+02  0.45594000000E+02  0.51100000000E-03 0.  1.
         11   -1    0    0    0    0 -0.00000000000E+00 -0.00000000000E+00 -0.45593999997E+02  0.45594000000E+02  0.51100000000E-03 0. -1.
    9900012    2    1    2    0    0  0.28388827585E+02 -0.12224167693E+02 -0.78336727423E+01  0.59301917831E+02  0.49999952224E+02 0.  0.
        -12    1    1    2    0    0 -0.28388827585E+02  0.12224167693E+02  0.78336727423E+01  0.31886082169E+02  0.00000000000E+00 0.  1.
         11    1    3    3    0    0  0.11064074599E+02  0.36271109411E+01  0.91347830046E+01  0.14799119612E+02  0.51100000000E-03 0. -1.
        -11    1    3    3    0    0 -0.18903206298E+01 -0.45604617752E+01  0.90103723300E+01  0.10274139062E+02  0.51100000000E-03 0.  1.
         12    1    3    3    0    0  0.19215073616E+02 -0.11290816859E+02 -0.25978828077E+02  0.34228659157E+02  0.00000000000E+00 0. -1.
</event>
<event>
 7    1  0.6489567E-013  0.5930186E+02  0.7816164E-02  0.1266605E+00
        -11   -1    0    0    0    0  0.00000000000E+00  0.00000000000E+00  0.45593999997E+02  0.45594000000E+02  0.51100000000E-03 0. -1.
         11   -1    0    0    0    0 -0.00000000000E+00 -0.00000000000E+00 -0.45593999997E+02  0.45594000000E+02  0.51100000000E-03 0.  1.
    9900012    2    1    2    0    0 -0.42991846067E+00  0.31600943240E+02  0.42333934700E+01  0.59301857810E+02  0.49999842758E+02 0.  0.
        -12    1    1    2    0    0  0.42991846067E+00 -0.31600943240E+02 -0.42333934700E+01  0.31886142190E+02  0.00000000000E+00 0.  1.
         11    1    3    3    0    0 -0.11122809753E+02  0.22179810690E+02  0.72353338549E+01  0.25845907902E+02  0.51100000000E-03 0. -1.
        -11    1    3    3    0    0  0.11743751245E+00  0.18993712335E+02 -0.70011559314E+00  0.19006974035E+02  0.51100000000E-03 0.  1.
        -12    1    3    3    0    0  0.10575453780E+02 -0.95725797853E+01 -0.23018247918E+01  0.14448975873E+02  0.00000000000E+00 0.  1.
</event>
<event>
 7    1  0.6489567E-013  0.5930193E+02  0.7816164E-02  0.1266605E+00
        -11   -1    0    0    0    0  0.00000000000E+00  0.00000000000E+00  0.45593999997E+02  0.45594000000E+02  0.51100000000E-03 0. -1.
         11   -1    0    0    0    0 -0.00000000000E+00 -0.00000000000E+00 -0.45593999997E+02  0.45594000000E+02  0.51100000000E-03 0.  1.
    9900012    2    1    2    0    0 -0.52832636998E+01 -0.20542574014E+02  0.23807802545E+02  0.59301926481E+02  0.49999967999E+02 0.  0.
        -12    1    1    2    0    0  0.52832636998E+01  0.20542574014E+02 -0.23807802545E+02  0.31886073519E+02  0.00000000000E+00 0.  1.
         11    1    3    3    0    0 -0.40146864861E+00 -0.19659123519E+02  0.50442579741E+01  0.20299922497E+02  0.51100000000E-03 0. -1.
        -11    1    3    3    0    0 -0.35385372721E+01  0.98311387408E+01  0.24600138434E+02  0.26727127533E+02  0.51100000000E-03 0.  1.
         12    1    3    3    0    0 -0.13432577791E+01 -0.10714589236E+02 -0.58365938633E+01  0.12274876450E+02  0.00000000000E+00 0. -1.
</event>
<event>
 7    1  0.6489567E-013  0.5930194E+02  0.7816164E-02  0.1266605E+00
        -11   -1    0    0    0    0  0.00000000000E+00  0.00000000000E+00  0.45593999997E+02  0.45594000000E+02  0.51100000000E-03 0. -1.
         11   -1    0    0    0    0 -0.00000000000E+00 -0.00000000000E+00 -0.45593999997E+02  0.45594000000E+02  0.51100000000E-03 0.  1.
    9900012    2    1    2    0    0  0.31425130879E+02  0.33641102449E+01  0.42266470566E+01  0.59301942956E+02  0.49999998045E+02 0.  0.
        -12    1    1    2    0    0 -0.31425130879E+02 -0.33641102449E+01 -0.42266470566E+01  0.31886057044E+02  0.00000000000E+00 0.  1.
         11    1    3    3    0    0  0.26838621916E+02  0.33184801874E+01 -0.43264378591E+01  0.27386894711E+02  0.51100000000E-03 0. -1.
        -11    1    3    3    0    0  0.12142833321E+02 -0.75512526609E+01 -0.45341644157E+01  0.15000948804E+02  0.51100000000E-03 0.  1.
         12    1    3    3    0    0 -0.75563243577E+01  0.75968827184E+01  0.13087249331E+02  0.16914099441E+02  0.00000000000E+00 0. -1.
</event>
<event>
 7    1  0.6489567E-013  0.5930194E+02  0.7816164E-02  0.1266605E+00
        -11   -1    0    0    0    0  0.00000000000E+00  0.00000000000E+00  0.45593999997E+02  0.45594000000E+02  0.51100000000E-03 0.  1.
         11   -1    0    0    0    0 -0.00000000000E+00 -0.00000000000E+00 -0.45593999997E+02  0.45594000000E+02  0.51100000000E-03 0. -1.
    9900012    2    1    2    0    0  0.46945418635E+01 -0.16537038745E+01 -0.31495198350E+02  0.59301937545E+02  0.49999988177E+02 0.  0.
        -12    1    1    2    0    0 -0.46945418635E+01  0.16537038745E+01  0.31495198350E+02  0.31886062455E+02  0.00000000000E+00 0.  1.
         11    1    3    3    0    0 -0.58445449300E+01  0.14942492399E+02  0.53368234954E+00  0.16053709903E+02  0.51100000000E-03 0.  1.
        -11    1    3    3    0    0  0.50888300428E+01  0.46265756691E+01 -0.10334790037E+02  0.12414075841E+02  0.51100000000E-03 0. -1.
        -12    1    3    3    0    0  0.54502567507E+01 -0.21222771943E+02 -0.21694090662E+02  0.30834151800E+02  0.00000000000E+00 0.  1.
</event>
<event>
 7    1  0.6489567E-013  0.5930196E+02  0.7816164E-02  0.1266605E+00
        -11   -1    0    0    0    0  0.00000000000E+00  0.00000000000E+00  0.45593999997E+02  0.45594000000E+02  0.51100000000E-03 0. -1.
         11   -1    0    0    0    0 -0.00000000000E+00 -0.00000000000E+00 -0.45593999997E+02  0.45594000000E+02  0.51100000000E-03 0.  1.
    9900012    2    1    2    0    0  0.28570392937E+02 -0.36731831481E+01  0.13673323130E+02  0.59301962422E+02  0.50000033547E+02 0.  0.
        -12    1    1    2    0    0 -0.28570392937E+02  0.36731831481E+01 -0.13673323130E+02  0.31886037578E+02  0.00000000000E+00 0.  1.
         11    1    3    3    0    0 -0.55751457828E+01  0.23521239605E+01  0.48268708376E+01  0.77403759578E+01  0.51100000000E-03 0. -1.
        -11    1    3    3    0    0  0.34206258612E+02  0.50220825191E+01 -0.37862223535E+01  0.34779662463E+02  0.51100000000E-03 0.  1.
         12    1    3    3    0    0 -0.60719892012E-01 -0.11047389628E+02  0.12632674645E+02  0.16781924001E+02  0.00000000000E+00 0. -1.
</event>
<event>
 7    1  0.6489567E-013  0.5930193E+02  0.7816164E-02  0.1266605E+00
        -11   -1    0    0    0    0  0.00000000000E+00  0.00000000000E+00  0.45593999997E+02  0.45594000000E+02  0.51100000000E-03 0.  1.
         11   -1    0    0    0    0 -0.00000000000E+00 -0.00000000000E+00 -0.45593999997E+02  0.45594000000E+02  0.51100000000E-03 0. -1.
    9900012    2    1    2    0    0  0.15853220300E+02 -0.23693332666E+02 -0.14283662018E+02  0.59301927690E+02  0.49999970204E+02 0.  0.
        -12    1    1    2    0    0 -0.15853220300E+02  0.23693332666E+02  0.14283662018E+02  0.31886072310E+02  0.00000000000E+00 0.  1.
         11    1    3    3    0    0  0.12906156121E+02 -0.24066520777E+02 -0.27680351667E+01  0.27448648547E+02  0.51100000000E-03 0. -1.
        -11    1    3    3    0    0 -0.95103164276E+01 -0.80464414370E+01  0.70500182236E+00  0.12477514423E+02  0.51100000000E-03 0.  1.
         12    1    3    3    0    0  0.12457380606E+02  0.84196295475E+01 -0.12220628674E+02  0.19375764719E+02  0.00000000000E+00 0. -1.
</event>
<event>
 7    1  0.6489567E-013  0.5930194E+02  0.7816164E-02  0.1266605E+00
        -11   -1    0    0    0    0  0.00000000000E+00  0.00000000000E+00  0.45593999997E+02  0.45594000000E+02  0.51100000000E-03 0. -1.
         11   -1    0    0    0    0 -0.00000000000E+00 -0.00000000000E+00 -0.45593999997E+02  0.45594000000E+02  0.51100000000E-03 0.  1.
    9900012    2    1    2    0    0 -0.11489697841E+01 -0.22460089684E+02  0.22604091097E+02  0.59301942005E+02  0.49999996311E+02 0.  0.
        -12    1    1    2    0    0  0.11489697841E+01  0.22460089684E+02 -0.22604091097E+02  0.31886057995E+02  0.00000000000E+00 0.  1.
         11    1    3    3    0    0 -0.53613187688E+01 -0.47006289966E+01  0.84354802906E+00  0.71799182059E+01  0.51100000000E-03 0. -1.
        -11    1    3    3    0    0  0.14173721083E+02 -0.27075285662E+02  0.57624856051E+01  0.31099384297E+02  0.51100000000E-03 0.  1.
         12    1    3    3    0    0 -0.99613720983E+01  0.93158249754E+01  0.15998057463E+02  0.21022639502E+02  0.00000000000E+00 0. -1.
</event>
<event>
 7    1  0.6489567E-013  0.5930195E+02  0.7816164E-02  0.1266605E+00
        -11   -1    0    0    0    0  0.00000000000E+00  0.00000000000E+00  0.45593999997E+02  0.45594000000E+02  0.51100000000E-03 0.  1.
         11   -1    0    0    0    0 -0.00000000000E+00 -0.00000000000E+00 -0.45593999997E+02  0.45594000000E+02  0.51100000000E-03 0. -1.
    9900012    2    1    2    0    0 -0.27776831634E+02  0.60402783673E+01 -0.14445851874E+02  0.59301953291E+02  0.50000016893E+02 0.  0.
        -12    1    1    2    0    0  0.27776831634E+02 -0.60402783673E+01  0.14445851874E+02  0.31886046709E+02  0.00000000000E+00 0.  1.
         11    1    3    3    0    0 -0.15913358969E+02  0.13779300513E+02 -0.65328763752E+01  0.22040476181E+02  0.51100000000E-03 0. -1.
        -11    1    3    3    0    0 -0.22086245704E+02 -0.40452767454E+00  0.55258419016E+00  0.22096860444E+02  0.51100000000E-03 0.  1.
        -12    1    3    3    0    0  0.10222773039E+02 -0.73344944713E+01 -0.84655596889E+01  0.15164616665E+02  0.00000000000E+00 0.  1.
</event>
<event>
 7    1  0.6489567E-013  0.5930188E+02  0.7816164E-02  0.1266605E+00
        -11   -1    0    0    0    0  0.00000000000E+00  0.00000000000E+00  0.45593999997E+02  0.45594000000E+02  0.51100000000E-03 0. -1.
         11   -1    0    0    0    0 -0.00000000000E+00 -0.00000000000E+00 -0.45593999997E+02  0.45594000000E+02  0.51100000000E-03 0.  1.
    9900012    2    1    2    0    0  0.21817768080E+02 -0.91062362095E+01  0.21395934452E+02  0.59301881500E+02  0.49999885964E+02 0.  0.
        -12    1    1    2    0    0 -0.21817768080E+02  0.91062362095E+01 -0.21395934452E+02  0.31886118500E+02  0.00000000000E+00 0.  1.
         11    1    3    3    0    0 -0.71230174785E+01  0.28590736719E+01  0.10046455585E+02  0.12642901184E+02  0.51100000000E-03 0. -1.
        -11    1    3    3    0    0  0.12819611035E+02  0.77310572990E+01  0.14706895508E+02  0.20985815442E+02  0.51100000000E-03 0.  1.
        -12    1    3    3    0    0  0.16121174524E+02 -0.19696367180E+02 -0.33574166403E+01  0.25673164874E+02  0.00000000000E+00 0.  1.
</event>
<event>
 7    1  0.6489567E-013  0.5930192E+02  0.7816164E-02  0.1266605E+00
        -11   -1    0    0    0    0  0.00000000000E+00  0.00000000000E+00  0.45593999997E+02  0.45594000000E+02  0.51100000000E-03 0.  1.
         11   -1    0    0    0    0 -0.00000000000E+00 -0.00000000000E+00 -0.45593999997E+02  0.45594000000E+02  0.51100000000E-03 0. -1.
    9900012    2    1    2    0    0 -0.14792198198E+02  0.13907364377E+02 -0.24586542616E+02  0.59301921702E+02  0.49999959283E+02 0.  0.
        -12    1    1    2    0    0  0.14792198198E+02 -0.13907364377E+02  0.24586542616E+02  0.31886078298E+02  0.00000000000E+00 0.  1.
         11    1    3    3    0    0 -0.14446479943E+02  0.98319347032E+01 -0.33468923471E+02  0.37756278436E+02  0.51100000000E-03 0. -1.
        -11    1    3    3    0    0  0.37417046389E+01 -0.50231984415E+01 -0.21970197010E+01  0.66377535368E+01  0.51100000000E-03 0.  1.
        -12    1    3    3    0    0 -0.40874228937E+01  0.90986281153E+01  0.11079400556E+02  0.14907889729E+02  0.00000000000E+00 0.  1.
</event>
<event>
 7    1  0.6489567E-013  0.5930193E+02  0.7816164E-02  0.1266605E+00
        -11   -1    0    0    0    0  0.00000000000E+00  0.00000000000E+00  0.45593999997E+02  0.45594000000E+02  0.51100000000E-03 0. -1.
         11   -1    0    0    0    0 -0.00000000000E+00 -0.00000000000E+00 -0.45593999997E+02  0.45594000000E+02  0.51100000000E-03 0.  1.
    9900012    2    1    2    0    0 -0.18368459147E+02 -0.21664262115E+02  0.14490722704E+02  0.59301927980E+02  0.49999970732E+02 0.  0.
        -12    1    1    2    0    0  0.18368459147E+02  0.21664262115E+02 -0.14490722704E+02  0.31886072020E+02  0.00000000000E+00 0.  1.
         11    1    3    3    0    0 -0.11663879223E+02 -0.29386528979E+01  0.28255373128E+02  0.30709084491E+02  0.51100000000E-03 0. -1.
        -11    1    3    3    0    0 -0.49767451448E+01 -0.17520884958E+01  0.17230606679E+01  0.55503823886E+01  0.51100000000E-03 0.  1.
        -12    1    3    3    0    0 -0.17278347797E+01 -0.16973520721E+02 -0.15487711092E+02  0.23042461100E+02  0.00000000000E+00 0.  1.
</event>
<event>
 7    1  0.6489567E-013  0.5930194E+02  0.7816164E-02  0.1266605E+00
        -11   -1    0    0    0    0  0.00000000000E+00  0.00000000000E+00  0.45593999997E+02  0.45594000000E+02  0.51100000000E-03 0. -1.
         11   -1    0    0    0    0 -0.00000000000E+00 -0.00000000000E+00 -0.45593999997E+02  0.45594000000E+02  0.51100000000E-03 0.  1.
    9900012    2    1    2    0    0 -0.22419497271E+02 -0.48622395139E+01  0.22146002502E+02  0.59301942580E+02  0.49999997360E+02 0.  0.
        -12    1    1    2    0    0  0.22419497271E+02  0.48622395139E+01 -0.22146002502E+02  0.31886057420E+02  0.00000000000E+00 0.  1.
         11    1    3    3    0    0 -0.38389027021E+01  0.69755878185E+01 -0.70855820887E+01  0.10658399184E+02  0.51100000000E-03 0. -1.
        -11    1    3    3    0    0 -0.19947746128E+02 -0.71143279938E+01  0.23414379981E+01  0.21307476869E+02  0.51100000000E-03 0.  1.
        -12    1    3    3    0    0  0.13671515590E+01 -0.47234993386E+01  0.26890146592E+02  0.27336066527E+02  0.00000000000E+00 0.  1.
</event>
<event>
 7    1  0.6489567E-013  0.5930194E+02  0.7816164E-02  0.1266605E+00
        -11   -1    0    0    0    0  0.00000000000E+00  0.00000000000E+00  0.45593999997E+02  0.45594000000E+02  0.51100000000E-03 0.  1.
         11   -1    0    0    0    0 -0.00000000000E+00 -0.00000000000E+00 -0.45593999997E+02  0.45594000000E+02  0.51100000000E-03 0. -1.
    9900012    2    1    2    0    0 -0.21406640049E+02 -0.20799006701E+02 -0.11219543478E+02  0.59301936057E+02  0.49999985463E+02 0.  0.
        -12    1    1    2    0    0  0.21406640049E+02  0.20799006701E+02  0.11219543478E+02  0.31886063943E+02  0.00000000000E+00 0.  1.
         11    1    3    3    0    0 -0.41700735363E+01 -0.24779662035E+02  0.57429620087E+01  0.25776011653E+02  0.51100000000E-03 0. -1.
        -11    1    3    3    0    0 -0.11180508287E+02  0.28683857064E+00  0.36198937407E+01  0.11755410366E+02  0.51100000000E-03 0.  1.
         12    1    3    3    0    0 -0.60560582254E+01  0.36938167628E+01 -0.20582399228E+02  0.21770514038E+02  0.00000000000E+00 0. -1.
</event>
<event>
 7    1  0.6489567E-013  0.5930203E+02  0.7816164E-02  0.1266604E+00
        -11   -1    0    0    0    0  0.00000000000E+00  0.00000000000E+00  0.45593999997E+02  0.45594000000E+02  0.51100000000E-03 0.  1.
         11   -1    0    0    0    0 -0.00000000000E+00 -0.00000000000E+00 -0.45593999997E+02  0.45594000000E+02  0.51100000000E-03 0. -1.
    9900012    2    1    2    0    0  0.10512487952E+02 -0.24508377599E+02 -0.17479767101E+02  0.59302027640E+02  0.50000152488E+02 0.  0.
        -12    1    1    2    0    0 -0.10512487952E+02  0.24508377599E+02  0.17479767101E+02  0.31885972360E+02  0.00000000000E+00 0.  1.
         11    1    3    3    0    0 -0.57390525955E+00 -0.13659928492E+01 -0.16775723821E+02  0.16841027691E+02  0.51100000000E-03 0. -1.
        -11    1    3    3    0    0  0.36085756780E+01  0.60482392250E+01 -0.87882906638E+01  0.11262196464E+02  0.51100000000E-03 0.  1.
        -12    1    3    3    0    0  0.74778175337E+01 -0.29190623974E+02  0.80842473840E+01  0.31198803484E+02  0.00000000000E+00 0.  1.
</event>
<event>
 7    1  0.6489567E-013  0.5930192E+02  0.7816164E-02  0.1266605E+00
        -11   -1    0    0    0    0  0.00000000000E+00  0.00000000000E+00  0.45593999997E+02  0.45594000000E+02  0.51100000000E-03 0. -1.
         11   -1    0    0    0    0 -0.00000000000E+00 -0.00000000000E+00 -0.45593999997E+02  0.45594000000E+02  0.51100000000E-03 0.  1.
    9900012    2    1    2    0    0  0.14009938820E+02 -0.25942285902E+02  0.12142561815E+02  0.59301915402E+02  0.49999947794E+02 0.  0.
        -12    1    1    2    0    0 -0.14009938820E+02  0.25942285902E+02 -0.12142561815E+02  0.31886084598E+02  0.00000000000E+00 0.  1.
         11    1    3    3    0    0  0.11844199590E+02 -0.46168995956E+01  0.13799246506E+00  0.12712980296E+02  0.51100000000E-03 0. -1.
        -11    1    3    3    0    0  0.17490175466E+02 -0.23583802741E+02  0.59538589101E+01  0.29959145945E+02  0.51100000000E-03 0.  1.
         12    1    3    3    0    0 -0.15324436236E+02  0.22584164345E+01  0.60507104395E+01  0.16629789162E+02  0.00000000000E+00 0. -1.
</event>
<event>
 7    1  0.6489567E-013  0.5930194E+02  0.7816164E-02  0.1266605E+00
        -11   -1    0    0    0    0  0.00000000000E+00  0.00000000000E+00  0.45593999997E+02  0.45594000000E+02  0.51100000000E-03 0. -1.
         11   -1    0    0    0    0 -0.00000000000E+00 -0.00000000000E+00 -0.45593999997E+02  0.45594000000E+02  0.51100000000E-03 0.  1.
    9900012    2    1    2    0    0 -0.84237494772E+01  0.29568602114E+02 -0.84533379452E+01  0.59301941783E+02  0.49999995906E+02 0.  0.
        -12    1    1    2    0    0  0.84237494772E+01 -0.29568602114E+02  0.84533379452E+01  0.31886058217E+02  0.00000000000E+00 0.  1.
         11    1    3    3    0    0 -0.21188924203E+02  0.17299119689E+02 -0.97869689623E+01  0.29051933027E+02  0.51100000000E-03 0. -1.
        -11    1    3    3    0    0 -0.28417099271E+01 -0.69721703878E-01 -0.78414775195E+01  0.83408001040E+01  0.51100000000E-03 0.  1.
         12    1    3    3    0    0  0.15606884653E+02  0.12339204128E+02  0.91751085365E+01  0.21909208652E+02  0.00000000000E+00 0. -1.
</event>
<event>
 7    1  0.6489567E-013  0.5930192E+02  0.7816164E-02  0.1266605E+00
        -11   -1    0    0    0    0  0.00000000000E+00  0.00000000000E+00  0.45593999997E+02  0.45594000000E+02  0.51100000000E-03 0. -1.
         11   -1    0    0    0    0 -0.00000000000E+00 -0.00000000000E+00 -0.45593999997E+02  0.45594000000E+02  0.51100000000E-03 0.  1.
    9900012    2    1    2    0    0 -0.28371938773E+02  0.14536259139E+02 -0.67274257256E+00  0.59301916483E+02  0.49999949766E+02 0.  0.
        -12    1    1    2    0    0  0.28371938773E+02 -0.14536259139E+02  0.67274257256E+00  0.31886083517E+02  0.00000000000E+00 0.  1.
         11    1    3    3    0    0  0.30849156472E+01  0.66568428287E+01  0.15648000823E+02  0.17282655786E+02  0.51100000000E-03 0. -1.
        -11    1    3    3    0    0 -0.55039003472E+01  0.77976277980E+01  0.26107722054E+01  0.98950517976E+01  0.51100000000E-03 0.  1.
        -12    1    3    3    0    0 -0.25952954073E+02  0.81788512127E-01 -0.18931515601E+02  0.32124208899E+02  0.00000000000E+00 0.  1.
</event>
<event>
 7    1  0.6489567E-013  0.5930192E+02  0.7816164E-02  0.1266605E+00
        -11   -1    0    0    0    0  0.00000000000E+00  0.00000000000E+00  0.45593999997E+02  0.45594000000E+02  0.51100000000E-03 0. -1.
         11   -1    0    0    0    0 -0.00000000000E+00 -0.00000000000E+00 -0.45593999997E+02  0.45594000000E+02  0.51100000000E-03 0.  1.
    9900012    2    1    2    0    0 -0.11454224998E+02  0.14291442548E+02  0.26101293288E+02  0.59301919781E+02  0.49999955780E+02 0.  0.
        -12    1    1    2    0    0  0.11454224998E+02 -0.14291442548E+02 -0.26101293288E+02  0.31886080219E+02  0.00000000000E+00 0.  1.
         11    1    3    3    0    0 -0.71517283761E+01  0.63714394467E+01 -0.54604959210E+01  0.11025401369E+02  0.51100000000E-03 0. -1.
        -11    1    3    3    0    0  0.91467962509E+01  0.11158106968E+02  0.68709703444E+00  0.14444353061E+02  0.51100000000E-03 0.  1.
         12    1    3    3    0    0 -0.13449292873E+02 -0.32381038668E+01  0.30874692175E+02  0.33832165351E+02  0.00000000000E+00 0. -1.
</event>
<event>
 7    1  0.6489567E-013  0.5930193E+02  0.7816164E-02  0.1266605E+00
        -11   -1    0    0    0    0  0.00000000000E+00  0.00000000000E+00  0.45593999997E+02  0.45594000000E+02  0.51100000000E-03 0.  1.
         11   -1    0    0    0    0 -0.00000000000E+00 -0.00000000000E+00 -0.45593999997E+02  0.45594000000E+02  0.51100000000E-03 0. -1.
    9900012    2    1    2    0    0  0.15511870990E+02 -0.26186480579E+02 -0.95063934356E+01  0.59301930583E+02  0.49999975481E+02 0.  0.
        -12    1    1    2    0    0 -0.15511870990E+02  0.26186480579E+02  0.95063934356E+01  0.31886069417E+02  0.00000000000E+00 0.  1.
         11    1    3    3    0    0  0.95100346416E+01 -0.24497955393E+02  0.44857086035E+01  0.26659185270E+02  0.51100000000E-03 0. -1.
        -11    1    3    3    0    0  0.11632451501E+02 -0.78858672618E+01  0.23801006165E+01  0.14253620929E+02  0.51100000000E-03 0.  1.
        -12    1    3    3    0    0 -0.56306151527E+01  0.61973420764E+01 -0.16372202656E+02  0.18389124384E+02  0.00000000000E+00 0.  1.
</event>
<event>
 7    1  0.6489567E-013  0.5930194E+02  0.7816164E-02  0.1266605E+00
        -11   -1    0    0    0    0  0.00000000000E+00  0.00000000000E+00  0.45593999997E+02  0.45594000000E+02  0.51100000000E-03 0.  1.
         11   -1    0    0    0    0 -0.00000000000E+00 -0.00000000000E+00 -0.45593999997E+02  0.45594000000E+02  0.51100000000E-03 0. -1.
    9900012    2    1    2    0    0  0.54823525227E+01 -0.14426074968E+02 -0.27902560831E+02  0.59301941462E+02  0.49999995321E+02 0.  0.
        -12    1    1    2    0    0 -0.54823525227E+01  0.14426074968E+02  0.27902560831E+02  0.31886058538E+02  0.00000000000E+00 0.  1.
         11    1    3    3    0    0 -0.30525551610E+01 -0.15054491121E+02 -0.18660918655E+02  0.24169933414E+02  0.51100000000E-03 0. -1.
        -11    1    3    3    0    0 -0.45146393641E+01 -0.13034618824E+02 -0.85429789483E+01  0.16225465973E+02  0.51100000000E-03 0.  1.
         12    1    3    3    0    0  0.13049547048E+02  0.13663034977E+02 -0.69866322771E+00  0.18906542075E+02  0.00000000000E+00 0. -1.
</event>
<event>
 7    1  0.6489567E-013  0.5930191E+02  0.7816164E-02  0.1266605E+00
        -11   -1    0    0    0    0  0.00000000000E+00  0.00000000000E+00  0.45593999997E+02  0.45594000000E+02  0.51100000000E-03 0.  1.
         11   -1    0    0    0    0 -0.00000000000E+00 -0.00000000000E+00 -0.45593999997E+02  0.45594000000E+02  0.51100000000E-03 0. -1.
    9900012    2    1    2    0    0  0.17829967578E+02  0.17282399281E+02 -0.20003338119E+02  0.59301912052E+02  0.49999941684E+02 0.  0.
        -12    1    1    2    0    0 -0.17829967578E+02 -0.17282399281E+02  0.20003338119E+02  0.31886087948E+02  0.00000000000E+00 0.  1.
         11    1    3    3    0    0  0.15746899911E+02  0.26763200052E+01 -0.28142389989E+02  0.32359259264E+02  0.51100000000E-03 0. -1.
        -11    1    3    3    0    0 -0.14696976337E+01  0.14627058813E+02 -0.32129094471E+01  0.15047712385E+02  0.51100000000E-03 0.  1.
        -12    1    3    3    0    0  0.35527653006E+01 -0.20979537174E-01  0.11351961317E+02  0.11894940402E+02  0.00000000000E+00 0.  1.
</event>
<event>
 7    1  0.6489567E-013  0.5930193E+02  0.7816164E-02  0.1266605E+00
        -11   -1    0    0    0    0  0.00000000000E+00  0.00000000000E+00  0.45593999997E+02  0.45594000000E+02  0.51100000000E-03 0. -1.
         11   -1    0    0    0    0 -0.00000000000E+00 -0.00000000000E+00 -0.45593999997E+02  0.45594000000E+02  0.51100000000E-03 0.  1.
    9900012    2    1    2    0    0 -0.16924168314E+02  0.22321895386E+02  0.15232424267E+02  0.59301933516E+02  0.49999980830E+02 0.  0.
        -12    1    1    2    0    0  0.16924168314E+02 -0.22321895386E+02 -0.15232424267E+02  0.31886066484E+02  0.00000000000E+00 0.  1.
         11    1    3    3    0    0 -0.10408551777E+02  0.48209216051E+01  0.20776200105E+02  0.23732461446E+02  0.51100000000E-03 0. -1.
        -11    1    3    3    0    0 -0.11079479157E+02  0.20416978437E+02  0.49586724391E+01  0.23752816665E+02  0.51100000000E-03 0.  1.
        -12    1    3    3    0    0  0.45638626201E+01 -0.29160046559E+01 -0.10502448277E+02  0.11816655406E+02  0.00000000000E+00 0.  1.
</event>
<event>
 7    1  0.6489567E-013  0.5930230E+02  0.7816164E-02  0.1266604E+00
        -11   -1    0    0    0    0  0.00000000000E+00  0.00000000000E+00  0.45593999997E+02  0.45594000000E+02  0.51100000000E-03 0.  1.
         11   -1    0    0    0    0 -0.00000000000E+00 -0.00000000000E+00 -0.45593999997E+02  0.45594000000E+02  0.51100000000E-03 0. -1.
    9900012    2    1    2    0    0  0.27534892553E+02 -0.10621249174E+02 -0.12071316319E+02  0.59302299136E+02  0.50000647628E+02 0.  0.
        -12    1    1    2    0    0 -0.27534892553E+02  0.10621249174E+02  0.12071316319E+02  0.31885700864E+02  0.00000000000E+00 0.  1.
         11    1    3    3    0    0  0.15924731736E+02 -0.11405270993E+02 -0.16597659948E+02  0.25674103749E+02  0.51100000000E-03 0. -1.
        -11    1    3    3    0    0  0.21990620447E+02 -0.11628619574E+01 -0.28327057624E+00  0.22023166849E+02  0.51100000000E-03 0.  1.
        -12    1    3    3    0    0 -0.10380459630E+02  0.19468837765E+01  0.48096142051E+01  0.11605028538E+02  0.00000000000E+00 0.  1.
</event>
<event>
 7    1  0.6489567E-013  0.5930197E+02  0.7816164E-02  0.1266605E+00
        -11   -1    0    0    0    0  0.00000000000E+00  0.00000000000E+00  0.45593999997E+02  0.45594000000E+02  0.51100000000E-03 0.  1.
         11   -1    0    0    0    0 -0.00000000000E+00 -0.00000000000E+00 -0.45593999997E+02  0.45594000000E+02  0.51100000000E-03 0. -1.
    9900012    2    1    2    0    0  0.99295542935E+01 -0.29462626285E+02 -0.70764838014E+01  0.59301968276E+02  0.50000044224E+02 0.  0.
        -12    1    1    2    0    0 -0.99295542935E+01  0.29462626285E+02  0.70764838014E+01  0.31886031724E+02  0.00000000000E+00 0.  1.
         11    1    3    3    0    0  0.81751526067E+00 -0.50630253928E+00 -0.20312705109E+02  0.20335453341E+02  0.51100000000E-03 0. -1.
        -11    1    3    3    0    0 -0.33604304158E+01  0.12611294606E+01  0.30947408633E+01  0.47392363697E+01  0.51100000000E-03 0.  1.
        -12    1    3    3    0    0  0.12472469449E+02 -0.30217453207E+02  0.10141480444E+02  0.34227278566E+02  0.00000000000E+00 0.  1.
</event>
<event>
 7    1  0.6489567E-013  0.5930197E+02  0.7816164E-02  0.1266605E+00
        -11   -1    0    0    0    0  0.00000000000E+00  0.00000000000E+00  0.45593999997E+02  0.45594000000E+02  0.51100000000E-03 0.  1.
         11   -1    0    0    0    0 -0.00000000000E+00 -0.00000000000E+00 -0.45593999997E+02  0.45594000000E+02  0.51100000000E-03 0. -1.
    9900012    2    1    2    0    0  0.10224820977E+02 -0.28678028275E+02 -0.94732697830E+01  0.59301966849E+02  0.50000041620E+02 0.  0.
        -12    1    1    2    0    0 -0.10224820977E+02  0.28678028275E+02  0.94732697830E+01  0.31886033151E+02  0.00000000000E+00 0.  1.
         11    1    3    3    0    0  0.11791424816E+02 -0.29828359235E+02 -0.55716897793E+01  0.32554760652E+02  0.51100000000E-03 0. -1.
        -11    1    3    3    0    0  0.92192285121E+00 -0.86279281210E+00 -0.15073244698E+02  0.15126039110E+02  0.51100000000E-03 0.  1.
        -12    1    3    3    0    0 -0.24885266900E+01  0.20131237724E+01  0.11171664694E+02  0.11621167086E+02  0.00000000000E+00 0.  1.
</event>
<event>
 7    1  0.6489567E-013  0.5930194E+02  0.7816164E-02  0.1266605E+00
        -11   -1    0    0    0    0  0.00000000000E+00  0.00000000000E+00  0.45593999997E+02  0.45594000000E+02  0.51100000000E-03 0.  1.
         11   -1    0    0    0    0 -0.00000000000E+00 -0.00000000000E+00 -0.45593999997E+02  0.45594000000E+02  0.51100000000E-03 0. -1.
    9900012    2    1    2    0    0  0.14274212617E+02 -0.45819862449E+01 -0.28142012539E+02  0.59301943274E+02  0.49999998626E+02 0.  0.
        -12    1    1    2    0    0 -0.14274212617E+02  0.45819862449E+01  0.28142012539E+02  0.31886056726E+02  0.00000000000E+00 0.  1.
         11    1    3    3    0    0 -0.61760916098E+01  0.14288817729E+01 -0.50051469373E+01  0.80769614843E+01  0.51100000000E-03 0. -1.
        -11    1    3    3    0    0  0.13782064887E+02 -0.14570294597E+02  0.53369936445E+01  0.20753850212E+02  0.51100000000E-03 0.  1.
         12    1    3    3    0    0  0.66682393397E+01  0.85594265797E+01 -0.28473859246E+02  0.30471131578E+02  0.00000000000E+00 0. -1.
</event>
<event>
 7    1  0.6489567E-013  0.5930195E+02  0.7816164E-02  0.1266605E+00
        -11   -1    0    0    0    0  0.00000000000E+00  0.00000000000E+00  0.45593999997E+02  0.45594000000E+02  0.51100000000E-03 0. -1.
         11   -1    0    0    0    0 -0.00000000000E+00 -0.00000000000E+00 -0.45593999997E+02  0.45594000000E+02  0.51100000000E-03 0.  1.
    9900012    2    1    2    0    0 -0.31493873666E+02  0.23437850073E+01 -0.44003239194E+01  0.59301948861E+02  0.50000008815E+02 0.  0.
        -12    1    1    2    0    0  0.31493873666E+02 -0.23437850073E+01  0.44003239194E+01  0.31886051139E+02  0.00000000000E+00 0.  1.
         11    1    3    3    0    0 -0.12430014898E+02 -0.98289074266E+01  0.61161862322E+01  0.16985889022E+02  0.51100000000E-03 0. -1.
        -11    1    3    3    0    0 -0.37752648717E+01 -0.10392403691E+02 -0.10221707238E+02  0.15057821172E+02  0.51100000000E-03 0.  1.
         12    1    3    3    0    0 -0.15288593896E+02  0.22565096125E+02 -0.29480291370E+00  0.27258238667E+02  0.00000000000E+00 0. -1.
</event>
<event>
 7    1  0.6489567E-013  0.5930196E+02  0.7816164E-02  0.1266605E+00
        -11   -1    0    0    0    0  0.00000000000E+00  0.00000000000E+00  0.45593999997E+02  0.45594000000E+02  0.51100000000E-03 0.  1.
         11   -1    0    0    0    0 -0.00000000000E+00 -0.00000000000E+00 -0.45593999997E+02  0.45594000000E+02  0.51100000000E-03 0. -1.
    9900012    2    1    2    0    0 -0.12634974757E+02  0.22874351226E+02 -0.18271317976E+02  0.59301959297E+02  0.50000027848E+02 0.  0.
        -12    1    1    2    0    0  0.12634974757E+02 -0.22874351226E+02  0.18271317976E+02  0.31886040703E+02  0.00000000000E+00 0.  1.
         11    1    3    3    0    0  0.84885135560E+01  0.52269661278E+01  0.25749340107E+01  0.10295937194E+02  0.51100000000E-03 0. -1.
        -11    1    3    3    0    0  0.63678685746E+01  0.89354645116E+01 -0.16538591017E+02  0.19847349176E+02  0.51100000000E-03 0.  1.
         12    1    3    3    0    0 -0.27491356888E+02  0.87119205868E+01 -0.43076609695E+01  0.29158672927E+02  0.00000000000E+00 0. -1.
</event>
<event>
 7    1  0.6489567E-013  0.5930194E+02  0.7816164E-02  0.1266605E+00
        -11   -1    0    0    0    0  0.00000000000E+00  0.00000000000E+00  0.45593999997E+02  0.45594000000E+02  0.51100000000E-03 0.  1.
         11   -1    0    0    0    0 -0.00000000000E+00 -0.00000000000E+00 -0.45593999997E+02  0.45594000000E+02  0.51100000000E-03 0. -1.
    9900012    2    1    2    0    0  0.84855439059E+01  0.29983358245E+02 -0.67612803478E+01  0.59301935035E+02  0.49999983600E+02 0.  0.
        -12    1    1    2    0    0 -0.84855439059E+01 -0.29983358245E+02  0.67612803478E+01  0.31886064965E+02  0.00000000000E+00 0.  1.
         11    1    3    3    0    0 -0.84091061591E+00 -0.11907942983E+02 -0.73858604353E+01  0.14037705346E+02  0.51100000000E-03 0. -1.
        -11    1    3    3    0    0  0.76460270929E+01  0.10867622124E+02  0.43284768955E+01  0.13975072574E+02  0.51100000000E-03 0.  1.
        -12    1    3    3    0    0  0.16804274288E+01  0.31023679103E+02 -0.37038968080E+01  0.31289157116E+02  0.00000000000E+00 0.  1.
</event>
<event>
 7    1  0.6489567E-013  0.5930196E+02  0.7816164E-02  0.1266605E+00
        -11   -1    0    0    0    0  0.00000000000E+00  0.00000000000E+00  0.45593999997E+02  0.45594000000E+02  0.51100000000E-03 0.  1.
         11   -1    0    0    0    0 -0.00000000000E+00 -0.00000000000E+00 -0.45593999997E+02  0.45594000000E+02  0.51100000000E-03 0. -1.
    9900012    2    1    2    0    0 -0.10553807502E+02 -0.27972517002E+02 -0.11084912826E+02  0.59301955206E+02  0.50000020387E+02 0.  0.
        -12    1    1    2    0    0  0.10553807502E+02  0.27972517002E+02  0.11084912826E+02  0.31886044794E+02  0.00000000000E+00 0.  1.
         11    1    3    3    0    0 -0.81758141374E+01 -0.10233616500E+01  0.20712644655E+01  0.84959603708E+01  0.51100000000E-03 0. -1.
        -11    1    3    3    0    0  0.49024091131E+01  0.94777387952E+01 -0.79262056416E+01  0.13292324248E+02  0.51100000000E-03 0.  1.
         12    1    3    3    0    0 -0.72804024779E+01 -0.36426894147E+02 -0.52299716501E+01  0.37513670587E+02  0.00000000000E+00 0. -1.
</event>
<event>
 7    1  0.6489567E-013  0.5930194E+02  0.7816164E-02  0.1266605E+00
        -11   -1    0    0    0    0  0.00000000000E+00  0.00000000000E+00  0.45593999997E+02  0.45594000000E+02  0.51100000000E-03 0.  1.
         11   -1    0    0    0    0 -0.00000000000E+00 -0.00000000000E+00 -0.45593999997E+02  0.45594000000E+02  0.51100000000E-03 0. -1.
    9900012    2    1    2    0    0 -0.17485055186E+02  0.14319370949E+02 -0.22493322881E+02  0.59301935435E+02  0.49999984328E+02 0.  0.
        -12    1    1    2    0    0  0.17485055186E+02 -0.14319370949E+02  0.22493322881E+02  0.31886064565E+02  0.00000000000E+00 0.  1.
         11    1    3    3    0    0 -0.12239946857E+02  0.78876528549E+01 -0.62335341175E+01  0.15839454362E+02  0.51100000000E-03 0. -1.
        -11    1    3    3    0    0 -0.18114329952E+02 -0.66943102272E+01 -0.61105818661E+00  0.19321390514E+02  0.51100000000E-03 0.  1.
        -12    1    3    3    0    0  0.12869221624E+02  0.13126028321E+02 -0.15648730577E+02  0.24141090559E+02  0.00000000000E+00 0.  1.
</event>
<event>
 7    1  0.6489567E-013  0.5930195E+02  0.7816164E-02  0.1266605E+00
        -11   -1    0    0    0    0  0.00000000000E+00  0.00000000000E+00  0.45593999997E+02  0.45594000000E+02  0.51100000000E-03 0.  1.
         11   -1    0    0    0    0 -0.00000000000E+00 -0.00000000000E+00 -0.45593999997E+02  0.45594000000E+02  0.51100000000E-03 0. -1.
    9900012    2    1    2    0    0 -0.32697391208E+01  0.28427909418E+02  0.14067077651E+02  0.59301954440E+02  0.50000018990E+02 0.  0.
        -12    1    1    2    0    0  0.32697391208E+01 -0.28427909418E+02 -0.14067077651E+02  0.31886045560E+02  0.00000000000E+00 0.  1.
         11    1    3    3    0    0  0.12532443380E+02  0.13188901247E+02 -0.20810106118E+01  0.18312287093E+02  0.51100000000E-03 0. -1.
        -11    1    3    3    0    0 -0.65056074060E+01 -0.42404291601E+01 -0.61874804334E+01  0.99292034704E+01  0.51100000000E-03 0.  1.
         12    1    3    3    0    0 -0.92965750945E+01  0.19479437331E+02  0.22335568697E+02  0.31060463877E+02  0.00000000000E+00 0. -1.
</event>
<event>
 7    1  0.6489567E-013  0.5930176E+02  0.7816164E-02  0.1266605E+00
        -11   -1    0    0    0    0  0.00000000000E+00  0.00000000000E+00  0.45593999997E+02  0.45594000000E+02  0.51100000000E-03 0. -1.
         11   -1    0    0    0    0 -0.00000000000E+00 -0.00000000000E+00 -0.45593999997E+02  0.45594000000E+02  0.51100000000E-03 0.  1.
    9900012    2    1    2    0    0  0.16129570431E+02 -0.58408887298E+01  0.26878492315E+02  0.59301758883E+02  0.49999662340E+02 0.  0.
        -12    1    1    2    0    0 -0.16129570431E+02  0.58408887298E+01 -0.26878492315E+02  0.31886241117E+02  0.00000000000E+00 0.  1.
         11    1    3    3    0    0  0.13723741785E+02 -0.24092689125E+02  0.13481417718E+02  0.30830948442E+02  0.51100000000E-03 0. -1.
        -11    1    3    3    0    0 -0.16010109141E+01 -0.27618203457E+01  0.39680067104E+01  0.50927365025E+01  0.51100000000E-03 0.  1.
        -12    1    3    3    0    0  0.40068395596E+01  0.21013620741E+02  0.94290678863E+01  0.23378073939E+02  0.00000000000E+00 0.  1.
</event>
<event>
 7    1  0.6489567E-013  0.5930194E+02  0.7816164E-02  0.1266605E+00
        -11   -1    0    0    0    0  0.00000000000E+00  0.00000000000E+00  0.45593999997E+02  0.45594000000E+02  0.51100000000E-03 0. -1.
         11   -1    0    0    0    0 -0.00000000000E+00 -0.00000000000E+00 -0.45593999997E+02  0.45594000000E+02  0.51100000000E-03 0.  1.
    9900012    2    1    2    0    0 -0.21058548454E+01 -0.26756717102E+02  0.17215232913E+02  0.59301940680E+02  0.49999993895E+02 0.  0.
        -12    1    1    2    0    0  0.21058548454E+01  0.26756717102E+02 -0.17215232913E+02  0.31886059320E+02  0.00000000000E+00 0.  1.
         11    1    3    3    0    0  0.64034070729E+01  0.18523292698E+01 -0.93230485637E+01  0.11460976426E+02  0.51100000000E-03 0. -1.
        -11    1    3    3    0    0 -0.50375524832E+01 -0.22099539850E+02  0.26278160661E+01  0.22818238629E+02  0.51100000000E-03 0.  1.
         12    1    3    3    0    0 -0.34717094351E+01 -0.65095065224E+01  0.23910465410E+02  0.25022725625E+02  0.00000000000E+00 0. -1.
</event>
<event>
 7    1  0.6489567E-013  0.5930193E+02  0.7816164E-02  0.1266605E+00
        -11   -1    0    0    0    0  0.00000000000E+00  0.00000000000E+00  0.45593999997E+02  0.45594000000E+02  0.51100000000E-03 0.  1.
         11   -1    0    0    0    0 -0.00000000000E+00 -0.00000000000E+00 -0.45593999997E+02  0.45594000000E+02  0.51100000000E-03 0. -1.
    9900012    2    1    2    0    0 -0.14746237739E+02  0.25481617244E+02 -0.12245703920E+02  0.59301927659E+02  0.49999970148E+02 0.  0.
        -12    1    1    2    0    0  0.14746237739E+02 -0.25481617244E+02  0.12245703920E+02  0.31886072341E+02  0.00000000000E+00 0.  1.
         11    1    3    3    0    0 -0.17613429939E+01  0.10328486344E+02  0.11703114874E+02  0.15708050717E+02  0.51100000000E-03 0. -1.
        -11    1    3    3    0    0 -0.11084946488E+01 -0.23818131735E+01  0.62093869593E+01  0.67422756582E+01  0.51100000000E-03 0.  1.
        -12    1    3    3    0    0 -0.11876400096E+02  0.17534944074E+02 -0.30158205754E+02  0.36851601284E+02  0.00000000000E+00 0.  1.
</event>
<event>
 7    1  0.6489567E-013  0.5930196E+02  0.7816164E-02  0.1266605E+00
        -11   -1    0    0    0    0  0.00000000000E+00  0.00000000000E+00  0.45593999997E+02  0.45594000000E+02  0.51100000000E-03 0.  1.
         11   -1    0    0    0    0 -0.00000000000E+00 -0.00000000000E+00 -0.45593999997E+02  0.45594000000E+02  0.51100000000E-03 0. -1.
    9900012    2    1    2    0    0  0.28156718633E+02 -0.11894469955E+02  0.90796531452E+01  0.59301963543E+02  0.50000035591E+02 0.  0.
        -12    1    1    2    0    0 -0.28156718633E+02  0.11894469955E+02 -0.90796531452E+01  0.31886036457E+02  0.00000000000E+00 0.  1.
         11    1    3    3    0    0  0.14061796856E+02 -0.11639753793E+02  0.11937305371E+02  0.21810943560E+02  0.51100000000E-03 0. -1.
        -11    1    3    3    0    0  0.81079818148E+01 -0.76420483486E+01  0.14147383155E+02  0.18008018283E+02  0.51100000000E-03 0.  1.
         12    1    3    3    0    0  0.59869399618E+01  0.73873321857E+01 -0.17005035382E+02  0.19483001700E+02  0.00000000000E+00 0. -1.
</event>
<event>
 7    1  0.6489567E-013  0.5930195E+02  0.7816164E-02  0.1266605E+00
        -11   -1    0    0    0    0  0.00000000000E+00  0.00000000000E+00  0.45593999997E+02  0.45594000000E+02  0.51100000000E-03 0.  1.
         11   -1    0    0    0    0 -0.00000000000E+00 -0.00000000000E+00 -0.45593999997E+02  0.45594000000E+02  0.51100000000E-03 0. -1.
    9900012    2    1    2    0    0  0.13984380881E+02 -0.22857592919E+02 -0.17282582901E+02  0.59301950787E+02  0.50000012328E+02 0.  0.
        -12    1    1    2    0    0 -0.13984380881E+02  0.22857592919E+02  0.17282582901E+02  0.31886049213E+02  0.00000000000E+00 0.  1.
         11    1    3    3    0    0  0.63330028859E+01 -0.36450949721E+01 -0.57208879003E+01  0.92802048219E+01  0.51100000000E-03 0. -1.
        -11    1    3    3    0    0  0.16125799624E+02 -0.11163425138E+02  0.12509801424E+02  0.23262815957E+02  0.51100000000E-03 0.  1.
        -12    1    3    3    0    0 -0.84744216296E+01 -0.80490728096E+01 -0.24071496425E+02  0.26758930008E+02  0.00000000000E+00 0.  1.
</event>
<event>
 7    1  0.6489567E-013  0.5930195E+02  0.7816164E-02  0.1266605E+00
        -11   -1    0    0    0    0  0.00000000000E+00  0.00000000000E+00  0.45593999997E+02  0.45594000000E+02  0.51100000000E-03 0. -1.
         11   -1    0    0    0    0 -0.00000000000E+00 -0.00000000000E+00 -0.45593999997E+02  0.45594000000E+02  0.51100000000E-03 0.  1.
    9900012    2    1    2    0    0 -0.13203330960E+01 -0.18010224439E+02  0.26279434454E+02  0.59301950714E+02  0.50000012194E+02 0.  0.
        -12    1    1    2    0    0  0.13203330960E+01  0.18010224439E+02 -0.26279434454E+02  0.31886049286E+02  0.00000000000E+00 0.  1.
         11    1    3    3    0    0 -0.19269313538E+02 -0.15205906979E+02  0.23439757457E+02  0.33940363598E+02  0.51100000000E-03 0. -1.
        -11    1    3    3    0    0  0.78391665076E+01 -0.20922949861E+01  0.10055304450E+02  0.12920502223E+02  0.51100000000E-03 0.  1.
        -12    1    3    3    0    0  0.10109813935E+02 -0.71202247373E+00 -0.72156274522E+01  0.12441084893E+02  0.00000000000E+00 0.  1.
</event>
<event>
 7    1  0.6489567E-013  0.5930204E+02  0.7816164E-02  0.1266604E+00
        -11   -1    0    0    0    0  0.00000000000E+00  0.00000000000E+00  0.45593999997E+02  0.45594000000E+02  0.51100000000E-03 0.  1.
         11   -1    0    0    0    0 -0.00000000000E+00 -0.00000000000E+00 -0.45593999997E+02  0.45594000000E+02  0.51100000000E-03 0. -1.
    9900012    2    1    2    0    0 -0.57216280576E+01 -0.17876125681E+02 -0.25776369986E+02  0.59302044680E+02  0.50000183565E+02 0.  0.
        -12    1    1    2    0    0  0.57216280576E+01  0.17876125681E+02  0.25776369986E+02  0.31885955320E+02  0.00000000000E+00 0.  1.
         11    1    3    3    0    0 -0.12483007042E+02 -0.15710763056E+02 -0.21024423027E+02  0.29063377375E+02  0.51100000000E-03 0. -1.
        -11    1    3    3    0    0  0.13870275700E+02  0.52885986747E+00 -0.13002814031E+02  0.19019395725E+02  0.51100000000E-03 0.  1.
         12    1    3    3    0    0 -0.71088967157E+01 -0.26942224933E+01  0.82508670711E+01  0.11219271580E+02  0.00000000000E+00 0. -1.
</event>
<event>
 7    1  0.6489567E-013  0.5930197E+02  0.7816164E-02  0.1266605E+00
        -11   -1    0    0    0    0  0.00000000000E+00  0.00000000000E+00  0.45593999997E+02  0.45594000000E+02  0.51100000000E-03 0. -1.
         11   -1    0    0    0    0 -0.00000000000E+00 -0.00000000000E+00 -0.45593999997E+02  0.45594000000E+02  0.51100000000E-03 0.  1.
    9900012    2    1    2    0    0 -0.21015532038E+02  0.11406165935E+02  0.21094210499E+02  0.59301969755E+02  0.50000046921E+02 0.  0.
        -12    1    1    2    0    0  0.21015532038E+02 -0.11406165935E+02 -0.21094210499E+02  0.31886030245E+02  0.00000000000E+00 0.  1.
         11    1    3    3    0    0 -0.10139890535E+02  0.65797110621E+01 -0.53738553143E+01  0.13228314289E+02  0.51100000000E-03 0.  1.
        -11    1    3    3    0    0 -0.16528358852E+02 -0.40804345755E+01 -0.58696767594E+00  0.17034703519E+02  0.51100000000E-03 0. -1.
         12    1    3    3    0    0  0.56527173493E+01  0.89068894483E+01  0.27055033489E+02  0.29038951947E+02  0.00000000000E+00 0. -1.
</event>
<event>
 7    1  0.6489567E-013  0.5930194E+02  0.7816164E-02  0.1266605E+00
        -11   -1    0    0    0    0  0.00000000000E+00  0.00000000000E+00  0.45593999997E+02  0.45594000000E+02  0.51100000000E-03 0.  1.
         11   -1    0    0    0    0 -0.00000000000E+00 -0.00000000000E+00 -0.45593999997E+02  0.45594000000E+02  0.51100000000E-03 0. -1.
    9900012    2    1    2    0    0  0.43712488889E+01  0.12704576708E+02 -0.28917243481E+02  0.59301936325E+02  0.49999985952E+02 0.  0.
        -12    1    1    2    0    0 -0.43712488889E+01 -0.12704576708E+02  0.28917243481E+02  0.31886063675E+02  0.00000000000E+00 0.  1.
         11    1    3    3    0    0  0.21618946832E+02  0.41246148586E+01 -0.24825649965E+02  0.33176862514E+02  0.51100000000E-03 0. -1.
        -11    1    3    3    0    0 -0.58219939210E+01  0.36635855083E+01 -0.10172286245E+02  0.12279775230E+02  0.51100000000E-03 0.  1.
         12    1    3    3    0    0 -0.11425704022E+02  0.49163763408E+01  0.60806927287E+01  0.13845298581E+02  0.00000000000E+00 0. -1.
</event>
<event>
 7    1  0.6489567E-013  0.5930196E+02  0.7816164E-02  0.1266605E+00
        -11   -1    0    0    0    0  0.00000000000E+00  0.00000000000E+00  0.45593999997E+02  0.45594000000E+02  0.51100000000E-03 0.  1.
         11   -1    0    0    0    0 -0.00000000000E+00 -0.00000000000E+00 -0.45593999997E+02  0.45594000000E+02  0.51100000000E-03 0. -1.
    9900012    2    1    2    0    0 -0.19855802417E+02  0.22727880321E+02  0.10291251156E+02  0.59301964125E+02  0.50000036652E+02 0.  0.
        -12    1    1    2    0    0  0.19855802417E+02 -0.22727880321E+02 -0.10291251156E+02  0.31886035875E+02  0.00000000000E+00 0.  1.
         11    1    3    3    0    0  0.10325592716E+01  0.63100417333E+01  0.24413752224E+01  0.68442032818E+01  0.51100000000E-03 0. -1.
        -11    1    3    3    0    0 -0.33238765281E+02  0.15348282302E+02 -0.19384881618E+01  0.36662556152E+02  0.51100000000E-03 0.  1.
         12    1    3    3    0    0  0.12350403593E+02  0.10695562856E+01  0.97883640955E+01  0.15795204691E+02  0.00000000000E+00 0. -1.
</event>
<event>
 7    1  0.6489567E-013  0.5930194E+02  0.7816164E-02  0.1266605E+00
        -11   -1    0    0    0    0  0.00000000000E+00  0.00000000000E+00  0.45593999997E+02  0.45594000000E+02  0.51100000000E-03 0. -1.
         11   -1    0    0    0    0 -0.00000000000E+00 -0.00000000000E+00 -0.45593999997E+02  0.45594000000E+02  0.51100000000E-03 0.  1.
    9900012    2    1    2    0    0 -0.12581039020E+02 -0.13762971893E+02  0.25865398720E+02  0.59301940521E+02  0.49999993604E+02 0.  0.
        -12    1    1    2    0    0  0.12581039020E+02  0.13762971893E+02 -0.25865398720E+02  0.31886059479E+02  0.00000000000E+00 0.  1.
         11    1    3    3    0    0  0.15253108448E+01  0.69452074519E+01  0.17365060366E+02  0.18764535739E+02  0.51100000000E-03 0. -1.
        -11    1    3    3    0    0 -0.10022124647E+00  0.29925114522E+01 -0.79305916204E+01  0.84769955055E+01  0.51100000000E-03 0.  1.
         12    1    3    3    0    0 -0.14006128618E+02 -0.23700690797E+02  0.16430929975E+02  0.32060409277E+02  0.00000000000E+00 0. -1.
</event>
<event>
 7    1  0.6489567E-013  0.5930197E+02  0.7816164E-02  0.1266605E+00
        -11   -1    0    0    0    0  0.00000000000E+00  0.00000000000E+00  0.45593999997E+02  0.45594000000E+02  0.51100000000E-03 0.  1.
         11   -1    0    0    0    0 -0.00000000000E+00 -0.00000000000E+00 -0.45593999997E+02  0.45594000000E+02  0.51100000000E-03 0. -1.
    9900012    2    1    2    0    0  0.12244717393E+02 -0.25773406871E+02 -0.14230859860E+02  0.59301968919E+02  0.50000045396E+02 0.  0.
        -12    1    1    2    0    0 -0.12244717393E+02  0.25773406871E+02  0.14230859860E+02  0.31886031081E+02  0.00000000000E+00 0.  1.
         11    1    3    3    0    0  0.40337287888E+01  0.81051720749E+01 -0.97856394942E+00  0.91061720811E+01  0.51100000000E-03 0. -1.
        -11    1    3    3    0    0  0.13803038012E+02 -0.72594946080E+01  0.61714474405E+01  0.16772324946E+02  0.51100000000E-03 0.  1.
         12    1    3    3    0    0 -0.55920494081E+01 -0.26619084338E+02 -0.19423743351E+02  0.33423471892E+02  0.00000000000E+00 0. -1.
</event>
<event>
 7    1  0.6489567E-013  0.5930195E+02  0.7816164E-02  0.1266605E+00
        -11   -1    0    0    0    0  0.00000000000E+00  0.00000000000E+00  0.45593999997E+02  0.45594000000E+02  0.51100000000E-03 0.  1.
         11   -1    0    0    0    0 -0.00000000000E+00 -0.00000000000E+00 -0.45593999997E+02  0.45594000000E+02  0.51100000000E-03 0. -1.
    9900012    2    1    2    0    0 -0.10238744196E+02  0.13911979828E+02 -0.26801960302E+02  0.59301950676E+02  0.50000012125E+02 0.  0.
        -12    1    1    2    0    0  0.10238744196E+02 -0.13911979828E+02  0.26801960302E+02  0.31886049324E+02  0.00000000000E+00 0.  1.
         11    1    3    3    0    0  0.29657888862E+01  0.17657166104E+02 -0.18723849097E+02  0.25906638991E+02  0.51100000000E-03 0. -1.
        -11    1    3    3    0    0  0.38767003917E+01  0.67774642039E+01  0.51601563376E+01  0.93589551046E+01  0.51100000000E-03 0.  1.
        -12    1    3    3    0    0 -0.17081233474E+02 -0.10522650480E+02 -0.13238267543E+02  0.24036356580E+02  0.00000000000E+00 0.  1.
</event>
<event>
 7    1  0.6489567E-013  0.5930192E+02  0.7816164E-02  0.1266605E+00
        -11   -1    0    0    0    0  0.00000000000E+00  0.00000000000E+00  0.45593999997E+02  0.45594000000E+02  0.51100000000E-03 0. -1.
         11   -1    0    0    0    0 -0.00000000000E+00 -0.00000000000E+00 -0.45593999997E+02  0.45594000000E+02  0.51100000000E-03 0.  1.
    9900012    2    1    2    0    0 -0.18005330654E+02 -0.10596685048E+02  0.24088176832E+02  0.59301922646E+02  0.49999961005E+02 0.  0.
        -12    1    1    2    0    0  0.18005330654E+02  0.10596685048E+02 -0.24088176832E+02  0.31886077354E+02  0.00000000000E+00 0.  1.
         11    1    3    3    0    0 -0.32525027746E+01  0.10763072381E+02  0.42484587894E+01  0.12019646573E+02  0.51100000000E-03 0. -1.
        -11    1    3    3    0    0  0.21019188802E+01 -0.16998032965E+01 -0.84843365087E+01  0.89045696404E+01  0.51100000000E-03 0.  1.
         12    1    3    3    0    0 -0.16854746759E+02 -0.19659954133E+02  0.28324054551E+02  0.38377706433E+02  0.00000000000E+00 0. -1.
</event>
<event>
 7    1  0.6489567E-013  0.5930193E+02  0.7816164E-02  0.1266605E+00
        -11   -1    0    0    0    0  0.00000000000E+00  0.00000000000E+00  0.45593999997E+02  0.45594000000E+02  0.51100000000E-03 0.  1.
         11   -1    0    0    0    0 -0.00000000000E+00 -0.00000000000E+00 -0.45593999997E+02  0.45594000000E+02  0.51100000000E-03 0. -1.
    9900012    2    1    2    0    0  0.17473109047E+02  0.10851482724E+02 -0.24365078046E+02  0.59301933368E+02  0.49999980560E+02 0.  0.
        -12    1    1    2    0    0 -0.17473109047E+02 -0.10851482724E+02  0.24365078046E+02  0.31886066632E+02  0.00000000000E+00 0.  1.
         11    1    3    3    0    0 -0.66727540768E+01  0.35080882785E+01 -0.12158996678E+02  0.14306415722E+02  0.51100000000E-03 0. -1.
        -11    1    3    3    0    0  0.60406108484E+01  0.17057209322E+02 -0.15937323077E+02  0.24112976515E+02  0.51100000000E-03 0.  1.
         12    1    3    3    0    0  0.18105252275E+02 -0.97138148774E+01  0.37312417090E+01  0.20882541132E+02  0.00000000000E+00 0. -1.
</event>
<event>
 7    1  0.6489567E-013  0.5930194E+02  0.7816164E-02  0.1266605E+00
        -11   -1    0    0    0    0  0.00000000000E+00  0.00000000000E+00  0.45593999997E+02  0.45594000000E+02  0.51100000000E-03 0. -1.
         11   -1    0    0    0    0 -0.00000000000E+00 -0.00000000000E+00 -0.45593999997E+02  0.45594000000E+02  0.51100000000E-03 0.  1.
    9900012    2    1    2    0    0 -0.10960075406E+02 -0.18771157941E+02  0.23328975163E+02  0.59301941832E+02  0.49999995995E+02 0.  0.
        -12    1    1    2    0    0  0.10960075406E+02  0.18771157941E+02 -0.23328975163E+02  0.31886058168E+02  0.00000000000E+00 0.  1.
         11    1    3    3    0    0  0.89976656024E+00 -0.12232956186E+02 -0.50970508673E+01  0.13282873361E+02  0.51100000000E-03 0. -1.
        -11    1    3    3    0    0 -0.11583360811E+00  0.32562453247E+00 -0.75496820837E+01  0.75575888078E+01  0.51100000000E-03 0.  1.
         12    1    3    3    0    0 -0.11744008358E+02 -0.68638262878E+01  0.35975708114E+02  0.38461479663E+02  0.00000000000E+00 0. -1.
</event>
<event>
 7    1  0.6489567E-013  0.5930192E+02  0.7816164E-02  0.1266605E+00
        -11   -1    0    0    0    0  0.00000000000E+00  0.00000000000E+00  0.45593999997E+02  0.45594000000E+02  0.51100000000E-03 0.  1.
         11   -1    0    0    0    0 -0.00000000000E+00 -0.00000000000E+00 -0.45593999997E+02  0.45594000000E+02  0.51100000000E-03 0. -1.
    9900012    2    1    2    0    0  0.17327536212E+02  0.25980649180E+02 -0.64408570891E+01  0.59301917095E+02  0.49999950882E+02 0.  0.
        -12    1    1    2    0    0 -0.17327536212E+02 -0.25980649180E+02  0.64408570891E+01  0.31886082905E+02  0.00000000000E+00 0.  1.
         11    1    3    3    0    0 -0.28034179485E+01 -0.94714125431E+00  0.50800024514E+01  0.58790010986E+01  0.51100000000E-03 0. -1.
        -11    1    3    3    0    0  0.81151165447E+01  0.91892058047E+01  0.14971931890E+02  0.19350849197E+02  0.51100000000E-03 0.  1.
         12    1    3    3    0    0  0.12015837615E+02  0.17738584629E+02 -0.26492791430E+02  0.34072066800E+02  0.00000000000E+00 0. -1.
</event>
<event>
 7    1  0.6489567E-013  0.5930195E+02  0.7816164E-02  0.1266605E+00
        -11   -1    0    0    0    0  0.00000000000E+00  0.00000000000E+00  0.45593999997E+02  0.45594000000E+02  0.51100000000E-03 0.  1.
         11   -1    0    0    0    0 -0.00000000000E+00 -0.00000000000E+00 -0.45593999997E+02  0.45594000000E+02  0.51100000000E-03 0. -1.
    9900012    2    1    2    0    0  0.12533321145E+02  0.27241247535E+02 -0.10842074254E+02  0.59301948499E+02  0.50000008155E+02 0.  0.
        -12    1    1    2    0    0 -0.12533321145E+02 -0.27241247535E+02  0.10842074254E+02  0.31886051501E+02  0.00000000000E+00 0.  1.
         11    1    3    3    0    0  0.27298217885E+01  0.21505617818E+01  0.84842028730E+01  0.91683445412E+01  0.51100000000E-03 0.  1.
        -11    1    3    3    0    0  0.13003671693E+02  0.21779116489E+02  0.45901889910E+01  0.25777804945E+02  0.51100000000E-03 0. -1.
         12    1    3    3    0    0 -0.32001723365E+01  0.33115692638E+01 -0.23916466118E+02  0.24355799013E+02  0.00000000000E+00 0. -1.
</event>
<event>
 7    1  0.6489567E-013  0.5930194E+02  0.7816164E-02  0.1266605E+00
        -11   -1    0    0    0    0  0.00000000000E+00  0.00000000000E+00  0.45593999997E+02  0.45594000000E+02  0.51100000000E-03 0.  1.
         11   -1    0    0    0    0 -0.00000000000E+00 -0.00000000000E+00 -0.45593999997E+02  0.45594000000E+02  0.51100000000E-03 0. -1.
    9900012    2    1    2    0    0  0.20456755239E+02  0.93224310233E+01 -0.22612697812E+02  0.59301942586E+02  0.49999997370E+02 0.  0.
        -12    1    1    2    0    0 -0.20456755239E+02 -0.93224310233E+01  0.22612697812E+02  0.31886057414E+02  0.00000000000E+00 0.  1.
         11    1    3    3    0    0  0.18680455567E+01 -0.71596328140E+01  0.46909407502E+01  0.87609851966E+01  0.51100000000E-03 0.  1.
        -11    1    3    3    0    0  0.25729126478E+02  0.11673809435E+02 -0.79369558960E+01  0.29347249363E+02  0.51100000000E-03 0. -1.
        -12    1    3    3    0    0 -0.71404167951E+01  0.48082544022E+01 -0.19366682666E+02  0.21193708026E+02  0.00000000000E+00 0.  1.
</event>
<event>
 7    1  0.6489567E-013  0.5930193E+02  0.7816164E-02  0.1266605E+00
        -11   -1    0    0    0    0  0.00000000000E+00  0.00000000000E+00  0.45593999997E+02  0.45594000000E+02  0.51100000000E-03 0.  1.
         11   -1    0    0    0    0 -0.00000000000E+00 -0.00000000000E+00 -0.45593999997E+02  0.45594000000E+02  0.51100000000E-03 0. -1.
    9900012    2    1    2    0    0 -0.26924049567E+02  0.16189382633E+02 -0.54516885677E+01  0.59301929948E+02  0.49999974322E+02 0.  0.
        -12    1    1    2    0    0  0.26924049567E+02 -0.16189382633E+02  0.54516885677E+01  0.31886070052E+02  0.00000000000E+00 0.  1.
         11    1    3    3    0    0 -0.10721605279E+02  0.21956737382E+02  0.45835617013E+01  0.24860816043E+02  0.51100000000E-03 0. -1.
        -11    1    3    3    0    0 -0.20087845415E+02 -0.22601576506E+01  0.29611154043E+01  0.20430321846E+02  0.51100000000E-03 0.  1.
         12    1    3    3    0    0  0.38854011271E+01 -0.35071970980E+01 -0.12996365673E+02  0.14010792059E+02  0.00000000000E+00 0. -1.
</event>
<event>
 7    1  0.6489567E-013  0.5930195E+02  0.7816164E-02  0.1266605E+00
        -11   -1    0    0    0    0  0.00000000000E+00  0.00000000000E+00  0.45593999997E+02  0.45594000000E+02  0.51100000000E-03 0. -1.
         11   -1    0    0    0    0 -0.00000000000E+00 -0.00000000000E+00 -0.45593999997E+02  0.45594000000E+02  0.51100000000E-03 0.  1.
    9900012    2    1    2    0    0 -0.71061153182E+01 -0.13136673661E+02  0.28171810441E+02  0.59301953313E+02  0.50000016933E+02 0.  0.
        -12    1    1    2    0    0  0.71061153182E+01  0.13136673661E+02 -0.28171810441E+02  0.31886046687E+02  0.00000000000E+00 0.  1.
         11    1    3    3    0    0  0.98507066025E+01 -0.55085473566E+01  0.17778339236E+01  0.11425463153E+02  0.51100000000E-03 0. -1.
        -11    1    3    3    0    0  0.58455296222E+01  0.22580122629E+01 -0.48708531680E+01  0.79368789073E+01  0.51100000000E-03 0.  1.
        -12    1    3    3    0    0 -0.22802351543E+02 -0.98861385678E+01  0.31264829686E+02  0.39939611252E+02  0.00000000000E+00 0.  1.
</event>
<event>
 7    1  0.6489567E-013  0.5930194E+02  0.7816164E-02  0.1266605E+00
        -11   -1    0    0    0    0  0.00000000000E+00  0.00000000000E+00  0.45593999997E+02  0.45594000000E+02  0.51100000000E-03 0. -1.
         11   -1    0    0    0    0 -0.00000000000E+00 -0.00000000000E+00 -0.45593999997E+02  0.45594000000E+02  0.51100000000E-03 0.  1.
    9900012    2    1    2    0    0  0.15929155955E+02 -0.22569217992E+01  0.27529785125E+02  0.59301940750E+02  0.49999994022E+02 0.  0.
        -12    1    1    2    0    0 -0.15929155955E+02  0.22569217992E+01 -0.27529785125E+02  0.31886059250E+02  0.00000000000E+00 0.  1.
         11    1    3    3    0    0 -0.28514652982E+01 -0.16378210373E+01  0.99552465160E+01  0.10484285648E+02  0.51100000000E-03 0. -1.
        -11    1    3    3    0    0 -0.88745963361E+01 -0.45185287773E+01  0.18349936470E+02  0.20878116083E+02  0.51100000000E-03 0.  1.
        -12    1    3    3    0    0  0.27655217589E+02  0.38994280154E+01 -0.77539786110E+00  0.27939539019E+02  0.00000000000E+00 0.  1.
</event>
<event>
 7    1  0.6489567E-013  0.5930196E+02  0.7816164E-02  0.1266605E+00
        -11   -1    0    0    0    0  0.00000000000E+00  0.00000000000E+00  0.45593999997E+02  0.45594000000E+02  0.51100000000E-03 0.  1.
         11   -1    0    0    0    0 -0.00000000000E+00 -0.00000000000E+00 -0.45593999997E+02  0.45594000000E+02  0.51100000000E-03 0. -1.
    9900012    2    1    2    0    0  0.22110899610E+01  0.17896444266E+02 -0.26297298049E+02  0.59301960408E+02  0.50000029874E+02 0.  0.
        -12    1    1    2    0    0 -0.22110899610E+01 -0.17896444266E+02  0.26297298049E+02  0.31886039592E+02  0.00000000000E+00 0.  1.
         11    1    3    3    0    0 -0.40387077769E+01  0.19577789608E+02 -0.32675901994E+02  0.38305555443E+02  0.51100000000E-03 0. -1.
        -11    1    3    3    0    0  0.88472175504E+01 -0.55005240808E+01 -0.27423971273E+01  0.10772639686E+02  0.51100000000E-03 0.  1.
        -12    1    3    3    0    0 -0.25974198126E+01  0.38191787385E+01  0.91210010716E+01  0.10223765278E+02  0.00000000000E+00 0.  1.
</event>
<event>
 7    1  0.6489567E-013  0.5930210E+02  0.7816164E-02  0.1266604E+00
        -11   -1    0    0    0    0  0.00000000000E+00  0.00000000000E+00  0.45593999997E+02  0.45594000000E+02  0.51100000000E-03 0.  1.
         11   -1    0    0    0    0 -0.00000000000E+00 -0.00000000000E+00 -0.45593999997E+02  0.45594000000E+02  0.51100000000E-03 0. -1.
    9900012    2    1    2    0    0  0.78641399816E+01 -0.30395773792E+02 -0.55644443234E+01  0.59302097116E+02  0.50000279196E+02 0.  0.
        -12    1    1    2    0    0 -0.78641399816E+01  0.30395773792E+02  0.55644443234E+01  0.31885902884E+02  0.00000000000E+00 0.  1.
         11    1    3    3    0    0  0.26102615749E+01 -0.25831361853E+01  0.15232882691E+02  0.15669293965E+02  0.51100000000E-03 0. -1.
        -11    1    3    3    0    0 -0.58196023482E+01 -0.69802258923E+01  0.35252149075E+01  0.97477415540E+01  0.51100000000E-03 0.  1.
         12    1    3    3    0    0  0.11073480755E+02 -0.20832411715E+02 -0.24322541922E+02  0.33885061597E+02  0.00000000000E+00 0. -1.
</event>
<event>
 7    1  0.6489567E-013  0.5930193E+02  0.7816164E-02  0.1266605E+00
        -11   -1    0    0    0    0  0.00000000000E+00  0.00000000000E+00  0.45593999997E+02  0.45594000000E+02  0.51100000000E-03 0.  1.
         11   -1    0    0    0    0 -0.00000000000E+00 -0.00000000000E+00 -0.45593999997E+02  0.45594000000E+02  0.51100000000E-03 0. -1.
    9900012    2    1    2    0    0  0.89619931683E+01  0.28453514549E+02 -0.11260617516E+02  0.59301932218E+02  0.49999978462E+02 0.  0.
        -12    1    1    2    0    0 -0.89619931683E+01 -0.28453514549E+02  0.11260617516E+02  0.31886067782E+02  0.00000000000E+00 0.  1.
         11    1    3    3    0    0  0.51291793907E+01  0.10496132422E+02  0.76895119220E+00  0.11707628421E+02  0.51100000000E-03 0. -1.
        -11    1    3    3    0    0 -0.17126026962E+02  0.15340788071E+02  0.57181643251E+00  0.22999294607E+02  0.51100000000E-03 0.  1.
         12    1    3    3    0    0  0.20958840740E+02  0.26165940560E+01 -0.12601385141E+02  0.24595009190E+02  0.00000000000E+00 0. -1.
</event>
<event>
 7    1  0.6489567E-013  0.5930196E+02  0.7816164E-02  0.1266605E+00
        -11   -1    0    0    0    0  0.00000000000E+00  0.00000000000E+00  0.45593999997E+02  0.45594000000E+02  0.51100000000E-03 0.  1.
         11   -1    0    0    0    0 -0.00000000000E+00 -0.00000000000E+00 -0.45593999997E+02  0.45594000000E+02  0.51100000000E-03 0. -1.
    9900012    2    1    2    0    0 -0.16212216164E+02 -0.55385970816E+01 -0.26892520261E+02  0.59301958280E+02  0.50000025992E+02 0.  0.
        -12    1    1    2    0    0  0.16212216164E+02  0.55385970816E+01  0.26892520261E+02  0.31886041720E+02  0.00000000000E+00 0.  1.
         11    1    3    3    0    0 -0.37455017360E+01  0.15669737795E+01 -0.26638786418E+02  0.26946412231E+02  0.51100000000E-03 0. -1.
        -11    1    3    3    0    0  0.50112410052E+00 -0.15205577249E+02 -0.55200538391E+01  0.16184304109E+02  0.51100000000E-03 0.  1.
        -12    1    3    3    0    0 -0.12967838528E+02  0.81000063878E+01  0.52663199954E+01  0.16171241940E+02  0.00000000000E+00 0.  1.
</event>
<event>
 7    1  0.6489567E-013  0.5930172E+02  0.7816164E-02  0.1266606E+00
        -11   -1    0    0    0    0  0.00000000000E+00  0.00000000000E+00  0.45593999997E+02  0.45594000000E+02  0.51100000000E-03 0.  1.
         11   -1    0    0    0    0 -0.00000000000E+00 -0.00000000000E+00 -0.45593999997E+02  0.45594000000E+02  0.51100000000E-03 0. -1.
    9900012    2    1    2    0    0  0.12264780655E+02  0.37652800321E+01 -0.29191316484E+02  0.59301715546E+02  0.49999583302E+02 0.  0.
        -12    1    1    2    0    0 -0.12264780655E+02 -0.37652800321E+01  0.29191316484E+02  0.31886284454E+02  0.00000000000E+00 0.  1.
         11    1    3    3    0    0  0.87240515377E+01  0.75616693753E+01 -0.16493064746E+02  0.20132290082E+02  0.51100000000E-03 0. -1.
        -11    1    3    3    0    0  0.18337105245E+02 -0.70081541732E+01 -0.35362149690E+00  0.19633866203E+02  0.51100000000E-03 0.  1.
        -12    1    3    3    0    0 -0.14796376127E+02  0.32117648300E+01 -0.12344630242E+02  0.19535559261E+02  0.00000000000E+00 0.  1.
</event>
<event>
 7    1  0.6489567E-013  0.5930189E+02  0.7816164E-02  0.1266605E+00
        -11   -1    0    0    0    0  0.00000000000E+00  0.00000000000E+00  0.45593999997E+02  0.45594000000E+02  0.51100000000E-03 0.  1.
         11   -1    0    0    0    0 -0.00000000000E+00 -0.00000000000E+00 -0.45593999997E+02  0.45594000000E+02  0.51100000000E-03 0. -1.
    9900012    2    1    2    0    0  0.21991800289E+01 -0.16543926800E+02 -0.27169579653E+02  0.59301890716E+02  0.49999902772E+02 0.  0.
        -12    1    1    2    0    0 -0.21991800289E+01  0.16543926800E+02  0.27169579653E+02  0.31886109284E+02  0.00000000000E+00 0.  1.
         11    1    3    3    0    0 -0.46398672422E+01 -0.60351937430E+01  0.27367433087E+01  0.80896041769E+01  0.51100000000E-03 0. -1.
        -11    1    3    3    0    0 -0.45592741953E+01 -0.12519682873E+02  0.51576171648E+01  0.14287422983E+02  0.51100000000E-03 0.  1.
         12    1    3    3    0    0  0.11398321466E+02  0.20109498157E+01 -0.35063940127E+02  0.36924863556E+02  0.00000000000E+00 0. -1.
</event>
<event>
 7    1  0.6489567E-013  0.5930195E+02  0.7816164E-02  0.1266605E+00
        -11   -1    0    0    0    0  0.00000000000E+00  0.00000000000E+00  0.45593999997E+02  0.45594000000E+02  0.51100000000E-03 0.  1.
         11   -1    0    0    0    0 -0.00000000000E+00 -0.00000000000E+00 -0.45593999997E+02  0.45594000000E+02  0.51100000000E-03 0. -1.
    9900012    2    1    2    0    0 -0.40540794050E+01 -0.12395814328E+02 -0.29096883306E+02  0.59301946767E+02  0.50000004996E+02 0.  0.
        -12    1    1    2    0    0  0.40540794050E+01  0.12395814328E+02  0.29096883306E+02  0.31886053233E+02  0.00000000000E+00 0.  1.
         11    1    3    3    0    0 -0.74589573588E+01 -0.43383672183E+01 -0.24777502407E+02  0.26237036814E+02  0.51100000000E-03 0. -1.
        -11    1    3    3    0    0  0.16082227491E+02 -0.10991977590E+02 -0.47302420414E+01  0.20045867465E+02  0.51100000000E-03 0.  1.
         12    1    3    3    0    0 -0.12677349537E+02  0.29345304802E+01  0.41086114234E+00  0.13019042488E+02  0.00000000000E+00 0. -1.
</event>
<event>
 7    1  0.6489567E-013  0.5930193E+02  0.7816164E-02  0.1266605E+00
        -11   -1    0    0    0    0  0.00000000000E+00  0.00000000000E+00  0.45593999997E+02  0.45594000000E+02  0.51100000000E-03 0. -1.
         11   -1    0    0    0    0 -0.00000000000E+00 -0.00000000000E+00 -0.45593999997E+02  0.45594000000E+02  0.51100000000E-03 0.  1.
    9900012    2    1    2    0    0 -0.19941440937E+02 -0.24826260495E+02 -0.16483679622E+01  0.59301931039E+02  0.49999976313E+02 0.  0.
        -12    1    1    2    0    0  0.19941440937E+02  0.24826260495E+02  0.16483679622E+01  0.31886068961E+02  0.00000000000E+00 0.  1.
         11    1    3    3    0    0  0.54503898286E+01 -0.29174495269E+01  0.95635117753E+01  0.11387669593E+02  0.51100000000E-03 0. -1.
        -11    1    3    3    0    0 -0.12823352331E+02  0.63634364988E+01  0.16442116320E+01  0.14409549654E+02  0.51100000000E-03 0.  1.
        -12    1    3    3    0    0 -0.12568478435E+02 -0.28272247467E+02 -0.12856091370E+02  0.33504711793E+02  0.00000000000E+00 0.  1.
</event>
<event>
 7    1  0.6489567E-013  0.5930194E+02  0.7816164E-02  0.1266605E+00
        -11   -1    0    0    0    0  0.00000000000E+00  0.00000000000E+00  0.45593999997E+02  0.45594000000E+02  0.51100000000E-03 0. -1.
         11   -1    0    0    0    0 -0.00000000000E+00 -0.00000000000E+00 -0.45593999997E+02  0.45594000000E+02  0.51100000000E-03 0.  1.
    9900012    2    1    2    0    0  0.34700375608E+01 -0.96624962520E+01  0.30188007634E+02  0.59301940359E+02  0.49999993309E+02 0.  0.
        -12    1    1    2    0    0 -0.34700375608E+01  0.96624962520E+01 -0.30188007634E+02  0.31886059641E+02  0.00000000000E+00 0.  1.
         11    1    3    3    0    0 -0.16289207162E-01  0.34960072404E+01  0.30655197325E+01  0.46497035878E+01  0.51100000000E-03 0. -1.
        -11    1    3    3    0    0 -0.12207140270E+02  0.22328122286E+01 -0.68604880093E+01  0.14179775034E+02  0.51100000000E-03 0.  1.
         12    1    3    3    0    0  0.15693467038E+02 -0.15391315721E+02  0.33982975911E+02  0.40472461737E+02  0.00000000000E+00 0. -1.
</event>
<event>
 7    1  0.6489567E-013  0.5930194E+02  0.7816164E-02  0.1266605E+00
        -11   -1    0    0    0    0  0.00000000000E+00  0.00000000000E+00  0.45593999997E+02  0.45594000000E+02  0.51100000000E-03 0.  1.
         11   -1    0    0    0    0 -0.00000000000E+00 -0.00000000000E+00 -0.45593999997E+02  0.45594000000E+02  0.51100000000E-03 0. -1.
    9900012    2    1    2    0    0 -0.22259695205E+02  0.16544458325E+02 -0.15732377111E+02  0.59301940014E+02  0.49999992679E+02 0.  0.
        -12    1    1    2    0    0  0.22259695205E+02 -0.16544458325E+02  0.15732377111E+02  0.31886059986E+02  0.00000000000E+00 0.  1.
         11    1    3    3    0    0  0.44931533142E+01  0.65787866448E+01 -0.21803146151E+02  0.23213057592E+02  0.51100000000E-03 0. -1.
        -11    1    3    3    0    0  0.36702336241E+01  0.68589987673E+00  0.11264581983E+01  0.38999976705E+01  0.51100000000E-03 0.  1.
        -12    1    3    3    0    0 -0.30423082144E+02  0.92797718034E+01  0.49443108418E+01  0.32188884751E+02  0.00000000000E+00 0.  1.
</event>
<event>
 7    1  0.6489567E-013  0.5930195E+02  0.7816164E-02  0.1266605E+00
        -11   -1    0    0    0    0  0.00000000000E+00  0.00000000000E+00  0.45593999997E+02  0.45594000000E+02  0.51100000000E-03 0.  1.
         11   -1    0    0    0    0 -0.00000000000E+00 -0.00000000000E+00 -0.45593999997E+02  0.45594000000E+02  0.51100000000E-03 0. -1.
    9900012    2    1    2    0    0  0.12020849804E+02  0.26633526867E+02 -0.12762237302E+02  0.59301948436E+02  0.50000008039E+02 0.  0.
        -12    1    1    2    0    0 -0.12020849804E+02 -0.26633526867E+02  0.12762237302E+02  0.31886051564E+02  0.00000000000E+00 0.  1.
         11    1    3    3    0    0  0.12212269043E+02  0.15917596270E+02  0.14022152320E+00  0.20063126589E+02  0.51100000000E-03 0. -1.
        -11    1    3    3    0    0  0.19147142264E+01  0.12603366835E+01  0.12157458447E+02  0.12371676332E+02  0.51100000000E-03 0.  1.
        -12    1    3    3    0    0 -0.21061334646E+01  0.94555939139E+01 -0.25059917272E+02  0.26867145515E+02  0.00000000000E+00 0.  1.
</event>
<event>
 7    1  0.6489567E-013  0.5930194E+02  0.7816164E-02  0.1266605E+00
        -11   -1    0    0    0    0  0.00000000000E+00  0.00000000000E+00  0.45593999997E+02  0.45594000000E+02  0.51100000000E-03 0. -1.
         11   -1    0    0    0    0 -0.00000000000E+00 -0.00000000000E+00 -0.45593999997E+02  0.45594000000E+02  0.51100000000E-03 0.  1.
    9900012    2    1    2    0    0  0.83320349296E+01 -0.19658349477E+02  0.23682216831E+02  0.59301938716E+02  0.49999990312E+02 0.  0.
        -12    1    1    2    0    0 -0.83320349296E+01  0.19658349477E+02 -0.23682216831E+02  0.31886061284E+02  0.00000000000E+00 0.  1.
         11    1    3    3    0    0  0.86609244556E+01 -0.77992491124E+01  0.68270744991E+01  0.13507362645E+02  0.51100000000E-03 0. -1.
        -11    1    3    3    0    0  0.54010540632E+01 -0.28434468901E+00 -0.12556680365E+02  0.13671958855E+02  0.51100000000E-03 0.  1.
         12    1    3    3    0    0 -0.57299435892E+01 -0.11574755675E+02  0.29411822696E+02  0.32122617216E+02  0.00000000000E+00 0. -1.
</event>
<event>
 7    1  0.6489567E-013  0.5930194E+02  0.7816164E-02  0.1266605E+00
        -11   -1    0    0    0    0  0.00000000000E+00  0.00000000000E+00  0.45593999997E+02  0.45594000000E+02  0.51100000000E-03 0.  1.
         11   -1    0    0    0    0 -0.00000000000E+00 -0.00000000000E+00 -0.45593999997E+02  0.45594000000E+02  0.51100000000E-03 0. -1.
    9900012    2    1    2    0    0  0.12770084971E+02 -0.26907454213E+02 -0.11385711983E+02  0.59301943490E+02  0.49999999020E+02 0.  0.
        -12    1    1    2    0    0 -0.12770084971E+02  0.26907454213E+02  0.11385711983E+02  0.31886056510E+02  0.00000000000E+00 0.  1.
         11    1    3    3    0    0  0.13666522161E+02 -0.18337316233E+02 -0.11571946199E+01  0.22899128679E+02  0.51100000000E-03 0. -1.
        -11    1    3    3    0    0  0.55365733111E+01 -0.18362819476E+02  0.22202719784E+01  0.19307418031E+02  0.51100000000E-03 0.  1.
        -12    1    3    3    0    0 -0.64330105006E+01  0.97926814961E+01 -0.12448789341E+02  0.17095396780E+02  0.00000000000E+00 0.  1.
</event>
<event>
 7    1  0.6489567E-013  0.5930193E+02  0.7816164E-02  0.1266605E+00
        -11   -1    0    0    0    0  0.00000000000E+00  0.00000000000E+00  0.45593999997E+02  0.45594000000E+02  0.51100000000E-03 0.  1.
         11   -1    0    0    0    0 -0.00000000000E+00 -0.00000000000E+00 -0.45593999997E+02  0.45594000000E+02  0.51100000000E-03 0. -1.
    9900012    2    1    2    0    0  0.28631364291E+02  0.22666950796E+00 -0.14032634593E+02  0.59301933546E+02  0.49999980885E+02 0.  0.
        -12    1    1    2    0    0 -0.28631364291E+02 -0.22666950796E+00  0.14032634593E+02  0.31886066454E+02  0.00000000000E+00 0.  1.
         11    1    3    3    0    0  0.32119997678E+02  0.37634408977E+01 -0.22527769556E+02  0.39412664712E+02  0.51100000000E-03 0. -1.
        -11    1    3    3    0    0  0.68316398454E+01 -0.32599386084E+01  0.45832949956E+01  0.88490166677E+01  0.51100000000E-03 0.  1.
        -12    1    3    3    0    0 -0.10320273232E+02 -0.27683278133E+00  0.39118399673E+01  0.11040252167E+02  0.00000000000E+00 0.  1.
</event>
<event>
 7    1  0.6489567E-013  0.5930193E+02  0.7816164E-02  0.1266605E+00
        -11   -1    0    0    0    0  0.00000000000E+00  0.00000000000E+00  0.45593999997E+02  0.45594000000E+02  0.51100000000E-03 0.  1.
         11   -1    0    0    0    0 -0.00000000000E+00 -0.00000000000E+00 -0.45593999997E+02  0.45594000000E+02  0.51100000000E-03 0. -1.
    9900012    2    1    2    0    0  0.25653228599E+02 -0.13318809507E+02 -0.13462629408E+02  0.59301933846E+02  0.49999981430E+02 0.  0.
        -12    1    1    2    0    0 -0.25653228599E+02  0.13318809507E+02  0.13462629408E+02  0.31886066154E+02  0.00000000000E+00 0.  1.
         11    1    3    3    0    0  0.16168354433E+02 -0.18395551545E+02  0.61949689178E+01  0.25262415598E+02  0.51100000000E-03 0. -1.
        -11    1    3    3    0    0 -0.25258886491E+01 -0.64891406760E+01  0.14779577431E+01  0.71185265001E+01  0.51100000000E-03 0.  1.
         12    1    3    3    0    0  0.12010762815E+02  0.11565882714E+02 -0.21135556068E+02  0.26920991748E+02  0.00000000000E+00 0. -1.
</event>
<event>
 7    1  0.6489567E-013  0.5930196E+02  0.7816164E-02  0.1266605E+00
        -11   -1    0    0    0    0  0.00000000000E+00  0.00000000000E+00  0.45593999997E+02  0.45594000000E+02  0.51100000000E-03 0.  1.
         11   -1    0    0    0    0 -0.00000000000E+00 -0.00000000000E+00 -0.45593999997E+02  0.45594000000E+02  0.51100000000E-03 0. -1.
    9900012    2    1    2    0    0  0.30827076383E+02 -0.79189369942E+01 -0.19239333334E+01  0.59301957271E+02  0.50000024153E+02 0.  0.
        -12    1    1    2    0    0 -0.30827076383E+02  0.79189369942E+01  0.19239333334E+01  0.31886042729E+02  0.00000000000E+00 0.  1.
         11    1    3    3    0    0  0.16271918950E+02  0.13228366285E+02 -0.36249038918E+01  0.21281563602E+02  0.51100000000E-03 0. -1.
        -11    1    3    3    0    0  0.12429116834E+02  0.12720814697E+00 -0.77460273930E+01  0.14645820831E+02  0.51100000000E-03 0.  1.
        -12    1    3    3    0    0  0.21260405994E+01 -0.21274511427E+02  0.94469979514E+01  0.23374572838E+02  0.00000000000E+00 0.  1.
</event>
<event>
 7    1  0.6489567E-013  0.5930195E+02  0.7816164E-02  0.1266605E+00
        -11   -1    0    0    0    0  0.00000000000E+00  0.00000000000E+00  0.45593999997E+02  0.45594000000E+02  0.51100000000E-03 0.  1.
         11   -1    0    0    0    0 -0.00000000000E+00 -0.00000000000E+00 -0.45593999997E+02  0.45594000000E+02  0.51100000000E-03 0. -1.
    9900012    2    1    2    0    0 -0.88474092824E+01 -0.72775562978E+01 -0.29757029761E+02  0.59301948240E+02  0.50000007682E+02 0.  0.
        -12    1    1    2    0    0  0.88474092824E+01  0.72775562978E+01  0.29757029761E+02  0.31886051760E+02  0.00000000000E+00 0.  1.
         11    1    3    3    0    0 -0.63216352370E+01 -0.14188692457E+02 -0.62062194415E+01  0.16727200176E+02  0.51100000000E-03 0. -1.
        -11    1    3    3    0    0 -0.72950473474E+01  0.87342059447E+01  0.58071958874E+01  0.12776055480E+02  0.51100000000E-03 0.  1.
        -12    1    3    3    0    0  0.47692733020E+01 -0.18230697852E+01 -0.29358006207E+02  0.29798692584E+02  0.00000000000E+00 0.  1.
</event>
<event>
 7    1  0.6489567E-013  0.5930194E+02  0.7816164E-02  0.1266605E+00
        -11   -1    0    0    0    0  0.00000000000E+00  0.00000000000E+00  0.45593999997E+02  0.45594000000E+02  0.51100000000E-03 0.  1.
         11   -1    0    0    0    0 -0.00000000000E+00 -0.00000000000E+00 -0.45593999997E+02  0.45594000000E+02  0.51100000000E-03 0. -1.
    9900012    2    1    2    0    0  0.18160125062E+02  0.17909011248E+02  0.19136298427E+02  0.59301941234E+02  0.49999994905E+02 0.  0.
        -12    1    1    2    0    0 -0.18160125062E+02 -0.17909011248E+02 -0.19136298427E+02  0.31886058766E+02  0.00000000000E+00 0.  1.
         11    1    3    3    0    0  0.28144271766E+02  0.82979856777E+01  0.85110205642E+01  0.30551498668E+02  0.51100000000E-03 0. -1.
        -11    1    3    3    0    0  0.63972437798E+01  0.77837694135E+01  0.55552404248E+01  0.11505324450E+02  0.51100000000E-03 0.  1.
        -12    1    3    3    0    0 -0.16381390484E+02  0.18272561570E+01  0.50700374375E+01  0.17245118117E+02  0.00000000000E+00 0.  1.
</event>
<event>
 7    1  0.6489567E-013  0.5930196E+02  0.7816164E-02  0.1266605E+00
        -11   -1    0    0    0    0  0.00000000000E+00  0.00000000000E+00  0.45593999997E+02  0.45594000000E+02  0.51100000000E-03 0.  1.
         11   -1    0    0    0    0 -0.00000000000E+00 -0.00000000000E+00 -0.45593999997E+02  0.45594000000E+02  0.51100000000E-03 0. -1.
    9900012    2    1    2    0    0  0.35383118425E+01  0.31634325678E+02  0.18626017377E+01  0.59301960782E+02  0.50000030556E+02 0.  0.
        -12    1    1    2    0    0 -0.35383118425E+01 -0.31634325678E+02 -0.18626017377E+01  0.31886039218E+02  0.00000000000E+00 0.  1.
         11    1    3    3    0    0 -0.73158693260E+01  0.26238990526E+02 -0.14117354047E+02  0.30680714681E+02  0.51100000000E-03 0. -1.
        -11    1    3    3    0    0  0.70733570721E+01  0.17149266047E+01 -0.37573034567E+01  0.81908902481E+01  0.51100000000E-03 0.  1.
        -12    1    3    3    0    0  0.37808240963E+01  0.36804085472E+01  0.19737259241E+02  0.20430355853E+02  0.00000000000E+00 0.  1.
</event>
<event>
 7    1  0.6489567E-013  0.5930195E+02  0.7816164E-02  0.1266605E+00
        -11   -1    0    0    0    0  0.00000000000E+00  0.00000000000E+00  0.45593999997E+02  0.45594000000E+02  0.51100000000E-03 0.  1.
         11   -1    0    0    0    0 -0.00000000000E+00 -0.00000000000E+00 -0.45593999997E+02  0.45594000000E+02  0.51100000000E-03 0. -1.
    9900012    2    1    2    0    0 -0.14072343387E+00 -0.25915708875E+02 -0.18576236970E+02  0.59301947414E+02  0.50000006176E+02 0.  0.
        -12    1    1    2    0    0  0.14072343387E+00  0.25915708875E+02  0.18576236970E+02  0.31886052586E+02  0.00000000000E+00 0.  1.
         11    1    3    3    0    0  0.90220551449E+01  0.77840303393E+01 -0.41880377558E+01  0.12630450026E+02  0.51100000000E-03 0. -1.
        -11    1    3    3    0    0  0.86642143517E+01 -0.11966994744E+02 -0.10872272679E+02  0.18343497131E+02  0.51100000000E-03 0.  1.
        -12    1    3    3    0    0 -0.17826992930E+02 -0.21732744469E+02 -0.35159265355E+01  0.28328000256E+02  0.00000000000E+00 0.  1.
</event>
<event>
 7    1  0.6489567E-013  0.5930190E+02  0.7816164E-02  0.1266605E+00
        -11   -1    0    0    0    0  0.00000000000E+00  0.00000000000E+00  0.45593999997E+02  0.45594000000E+02  0.51100000000E-03 0.  1.
         11   -1    0    0    0    0 -0.00000000000E+00 -0.00000000000E+00 -0.45593999997E+02  0.45594000000E+02  0.51100000000E-03 0. -1.
    9900012    2    1    2    0    0  0.77717769694E+01 -0.30675208065E+02  0.39184557825E+01  0.59301902672E+02  0.49999924576E+02 0.  0.
        -12    1    1    2    0    0 -0.77717769694E+01  0.30675208065E+02 -0.39184557825E+01  0.31886097328E+02  0.00000000000E+00 0.  1.
         11    1    3    3    0    0  0.10370730751E+02 -0.20030725150E+02 -0.11455801964E+02  0.25298565281E+02  0.51100000000E-03 0. -1.
        -11    1    3    3    0    0  0.74892281524E+01 -0.15770982541E+02  0.39028042534E+01  0.17889782278E+02  0.51100000000E-03 0.  1.
        -12    1    3    3    0    0 -0.10088181934E+02  0.51264996263E+01  0.11471453493E+02  0.16113555113E+02  0.00000000000E+00 0.  1.
</event>
<event>
 7    1  0.6489567E-013  0.5930193E+02  0.7816164E-02  0.1266605E+00
        -11   -1    0    0    0    0  0.00000000000E+00  0.00000000000E+00  0.45593999997E+02  0.45594000000E+02  0.51100000000E-03 0.  1.
         11   -1    0    0    0    0 -0.00000000000E+00 -0.00000000000E+00 -0.45593999997E+02  0.45594000000E+02  0.51100000000E-03 0. -1.
    9900012    2    1    2    0    0 -0.16148156234E+02 -0.18772348968E+02 -0.20088731117E+02  0.59301934808E+02  0.49999983185E+02 0.  0.
        -12    1    1    2    0    0  0.16148156234E+02  0.18772348968E+02  0.20088731117E+02  0.31886065192E+02  0.00000000000E+00 0.  1.
         11    1    3    3    0    0 -0.61641310721E+01 -0.14560580740E+02 -0.12263086936E+02  0.20009755741E+02  0.51100000000E-03 0. -1.
        -11    1    3    3    0    0  0.77087248798E+01  0.99853048849E+01 -0.10549649549E+02  0.16444630090E+02  0.51100000000E-03 0.  1.
         12    1    3    3    0    0 -0.17692750042E+02 -0.14197073113E+02  0.27240053680E+01  0.22847548978E+02  0.00000000000E+00 0. -1.
</event>
<event>
 7    1  0.6489567E-013  0.5930198E+02  0.7816164E-02  0.1266605E+00
        -11   -1    0    0    0    0  0.00000000000E+00  0.00000000000E+00  0.45593999997E+02  0.45594000000E+02  0.51100000000E-03 0. -1.
         11   -1    0    0    0    0 -0.00000000000E+00 -0.00000000000E+00 -0.45593999997E+02  0.45594000000E+02  0.51100000000E-03 0.  1.
    9900012    2    1    2    0    0  0.95861088034E+01 -0.44043619313E+01  0.30090300458E+02  0.59301983195E+02  0.50000071432E+02 0.  0.
        -12    1    1    2    0    0 -0.95861088034E+01  0.44043619313E+01 -0.30090300458E+02  0.31886016805E+02  0.00000000000E+00 0.  1.
         11    1    3    3    0    0 -0.67856657622E+01 -0.14751215113E+02  0.33383526519E+01  0.16576736887E+02  0.51100000000E-03 0. -1.
        -11    1    3    3    0    0 -0.41784798871E+01  0.12893437490E+01 -0.31063519032E+01  0.53639093838E+01  0.51100000000E-03 0.  1.
        -12    1    3    3    0    0  0.20550254453E+02  0.90575094326E+01  0.29858299710E+02  0.37361336924E+02  0.00000000000E+00 0.  1.
</event>
<event>
 7    1  0.6489567E-013  0.5930194E+02  0.7816164E-02  0.1266605E+00
        -11   -1    0    0    0    0  0.00000000000E+00  0.00000000000E+00  0.45593999997E+02  0.45594000000E+02  0.51100000000E-03 0.  1.
         11   -1    0    0    0    0 -0.00000000000E+00 -0.00000000000E+00 -0.45593999997E+02  0.45594000000E+02  0.51100000000E-03 0. -1.
    9900012    2    1    2    0    0 -0.17150469411E+02 -0.13635297193E+02 -0.23165944578E+02  0.59301938488E+02  0.49999989896E+02 0.  0.
        -12    1    1    2    0    0  0.17150469411E+02  0.13635297193E+02  0.23165944578E+02  0.31886061512E+02  0.00000000000E+00 0.  1.
         11    1    3    3    0    0 -0.28567611631E+01 -0.92662184307E+01 -0.24258228126E+02  0.26124423829E+02  0.51100000000E-03 0. -1.
        -11    1    3    3    0    0 -0.13179962624E+02 -0.36356052806E+01 -0.13092643732E+02  0.18930038581E+02  0.51100000000E-03 0.  1.
        -12    1    3    3    0    0 -0.11137456238E+01 -0.73347348203E+00  0.14184927279E+02  0.14247476078E+02  0.00000000000E+00 0.  1.
</event>
<event>
 7    1  0.6489567E-013  0.5930188E+02  0.7816164E-02  0.1266605E+00
        -11   -1    0    0    0    0  0.00000000000E+00  0.00000000000E+00  0.45593999997E+02  0.45594000000E+02  0.51100000000E-03 0.  1.
         11   -1    0    0    0    0 -0.00000000000E+00 -0.00000000000E+00 -0.45593999997E+02  0.45594000000E+02  0.51100000000E-03 0. -1.
    9900012    2    1    2    0    0  0.16010582246E+02 -0.16495217024E+01 -0.27525713798E+02  0.59301880986E+02  0.49999885027E+02 0.  0.
        -12    1    1    2    0    0 -0.16010582246E+02  0.16495217024E+01  0.27525713798E+02  0.31886119014E+02  0.00000000000E+00 0.  1.
         11    1    3    3    0    0 -0.54476986502E+00  0.77073609892E+01 -0.73719822674E+01  0.10679246717E+02  0.51100000000E-03 0.  1.
        -11    1    3    3    0    0  0.27036551470E+02 -0.59189467649E+01 -0.24307698829E+02  0.36835760733E+02  0.51100000000E-03 0. -1.
        -12    1    3    3    0    0 -0.10481199359E+02 -0.34379359267E+01  0.41539672987E+01  0.11786873536E+02  0.00000000000E+00 0.  1.
</event>
<event>
 7    1  0.6489567E-013  0.5930194E+02  0.7816164E-02  0.1266605E+00
        -11   -1    0    0    0    0  0.00000000000E+00  0.00000000000E+00  0.45593999997E+02  0.45594000000E+02  0.51100000000E-03 0.  1.
         11   -1    0    0    0    0 -0.00000000000E+00 -0.00000000000E+00 -0.45593999997E+02  0.45594000000E+02  0.51100000000E-03 0. -1.
    9900012    2    1    2    0    0 -0.11535728170E+02 -0.29721696658E+02 -0.51803216232E+00  0.59301942954E+02  0.49999998041E+02 0.  0.
        -12    1    1    2    0    0  0.11535728170E+02  0.29721696658E+02  0.51803216232E+00  0.31886057046E+02  0.00000000000E+00 0.  1.
         11    1    3    3    0    0  0.10275296594E+01 -0.50346974846E+00 -0.12601704971E+02  0.12653547622E+02  0.51100000000E-03 0. -1.
        -11    1    3    3    0    0  0.46959895979E+01 -0.27047374192E+02  0.51972471643E+01  0.27939651883E+02  0.51100000000E-03 0.  1.
         12    1    3    3    0    0 -0.17259247427E+02 -0.21708527173E+01  0.68864256445E+01  0.18708743448E+02  0.00000000000E+00 0. -1.
</event>
<event>
 7    1  0.6489567E-013  0.5930198E+02  0.7816164E-02  0.1266605E+00
        -11   -1    0    0    0    0  0.00000000000E+00  0.00000000000E+00  0.45593999997E+02  0.45594000000E+02  0.51100000000E-03 0.  1.
         11   -1    0    0    0    0 -0.00000000000E+00 -0.00000000000E+00 -0.45593999997E+02  0.45594000000E+02  0.51100000000E-03 0. -1.
    9900012    2    1    2    0    0 -0.26955103702E+02  0.12117058836E+02 -0.11971532172E+02  0.59301979349E+02  0.50000064418E+02 0.  0.
        -12    1    1    2    0    0  0.26955103702E+02 -0.12117058836E+02  0.11971532172E+02  0.31886020651E+02  0.00000000000E+00 0.  1.
         11    1    3    3    0    0 -0.93287921895E+01 -0.11477988682E+01  0.10639607105E+01  0.94591658517E+01  0.51100000000E-03 0. -1.
        -11    1    3    3    0    0 -0.26449804153E+02 -0.15029486448E+01 -0.17890959371E+02  0.31967755971E+02  0.51100000000E-03 0.  1.
        -12    1    3    3    0    0  0.88234926408E+01  0.14767806349E+02  0.48554664886E+01  0.17875057526E+02  0.00000000000E+00 0.  1.
</event>
<event>
 7    1  0.6489567E-013  0.5930157E+02  0.7816164E-02  0.1266606E+00
        -11   -1    0    0    0    0  0.00000000000E+00  0.00000000000E+00  0.45593999997E+02  0.45594000000E+02  0.51100000000E-03 0. -1.
         11   -1    0    0    0    0 -0.00000000000E+00 -0.00000000000E+00 -0.45593999997E+02  0.45594000000E+02  0.51100000000E-03 0.  1.
    9900012    2    1    2    0    0  0.25580592197E+02  0.15214116543E+02  0.11441511142E+02  0.59301573161E+02  0.49999323623E+02 0.  0.
        -12    1    1    2    0    0 -0.25580592197E+02 -0.15214116543E+02 -0.11441511142E+02  0.31886426839E+02  0.00000000000E+00 0.  1.
         11    1    3    3    0    0  0.22379447333E+02  0.10224814257E+02  0.16367806995E+02  0.29551507501E+02  0.51100000000E-03 0. -1.
        -11    1    3    3    0    0  0.11055220795E+02  0.12242958169E+02  0.25671708840E+01  0.16694259437E+02  0.51100000000E-03 0.  1.
        -12    1    3    3    0    0 -0.78540759310E+01 -0.72536558822E+01 -0.74934667363E+01  0.13055806222E+02  0.00000000000E+00 0.  1.
</event>
<event>
 7    1  0.6489567E-013  0.5930197E+02  0.7816164E-02  0.1266605E+00
        -11   -1    0    0    0    0  0.00000000000E+00  0.00000000000E+00  0.45593999997E+02  0.45594000000E+02  0.51100000000E-03 0. -1.
         11   -1    0    0    0    0 -0.00000000000E+00 -0.00000000000E+00 -0.45593999997E+02  0.45594000000E+02  0.51100000000E-03 0.  1.
    9900012    2    1    2    0    0  0.18707992658E+02 -0.25387218122E+02  0.47137323712E+01  0.59301966911E+02  0.50000041734E+02 0.  0.
        -12    1    1    2    0    0 -0.18707992658E+02  0.25387218122E+02 -0.47137323712E+01  0.31886033089E+02  0.00000000000E+00 0.  1.
         11    1    3    3    0    0 -0.99417070117E+00  0.59945438798E+01 -0.39160111845E+00  0.60890297591E+01  0.51100000000E-03 0. -1.
        -11    1    3    3    0    0  0.11333442942E+02 -0.21972497949E+01 -0.13376476547E+02  0.17669322586E+02  0.51100000000E-03 0.  1.
         12    1    3    3    0    0  0.83687204168E+01 -0.29184512207E+02  0.18481810037E+02  0.35543614566E+02  0.00000000000E+00 0. -1.
</event>
<event>
 7    1  0.6489567E-013  0.5930190E+02  0.7816164E-02  0.1266605E+00
        -11   -1    0    0    0    0  0.00000000000E+00  0.00000000000E+00  0.45593999997E+02  0.45594000000E+02  0.51100000000E-03 0. -1.
         11   -1    0    0    0    0 -0.00000000000E+00 -0.00000000000E+00 -0.45593999997E+02  0.45594000000E+02  0.51100000000E-03 0.  1.
    9900012    2    1    2    0    0 -0.39498418074E+01  0.31578813364E+02 -0.19750191639E+01  0.59301899510E+02  0.49999918809E+02 0.  0.
        -12    1    1    2    0    0  0.39498418074E+01 -0.31578813364E+02  0.19750191639E+01  0.31886100490E+02  0.00000000000E+00 0.  1.
         11    1    3    3    0    0 -0.12257097658E+02  0.31865885233E+02 -0.74348900085E+01  0.34942075988E+02  0.51100000000E-03 0. -1.
        -11    1    3    3    0    0 -0.41594228290E+01  0.73722761596E+01  0.47604997092E+01  0.97115195406E+01  0.51100000000E-03 0.  1.
        -12    1    3    3    0    0  0.12466678680E+02 -0.76593480285E+01  0.69937113534E+00  0.14648303981E+02  0.00000000000E+00 0.  1.
</event>
<event>
 7    1  0.6489567E-013  0.5930193E+02  0.7816164E-02  0.1266605E+00
        -11   -1    0    0    0    0  0.00000000000E+00  0.00000000000E+00  0.45593999997E+02  0.45594000000E+02  0.51100000000E-03 0.  1.
         11   -1    0    0    0    0 -0.00000000000E+00 -0.00000000000E+00 -0.45593999997E+02  0.45594000000E+02  0.51100000000E-03 0. -1.
    9900012    2    1    2    0    0  0.29709759958E+02  0.11411409253E+02 -0.19574447673E+01  0.59301926427E+02  0.49999967900E+02 0.  0.
        -12    1    1    2    0    0 -0.29709759958E+02 -0.11411409253E+02  0.19574447673E+01  0.31886073573E+02  0.00000000000E+00 0.  1.
         11    1    3    3    0    0 -0.67383125238E+01  0.52131177282E+01 -0.12697682584E+02  0.15290931803E+02  0.51100000000E-03 0. -1.
        -11    1    3    3    0    0  0.14156985906E+02  0.73675072183E+01 -0.49696573191E+01  0.16715199870E+02  0.51100000000E-03 0.  1.
        -12    1    3    3    0    0  0.22291086576E+02 -0.11692156934E+01  0.15709895136E+02  0.27295794754E+02  0.00000000000E+00 0.  1.
</event>
<event>
 7    1  0.6489567E-013  0.5930178E+02  0.7816164E-02  0.1266605E+00
        -11   -1    0    0    0    0  0.00000000000E+00  0.00000000000E+00  0.45593999997E+02  0.45594000000E+02  0.51100000000E-03 0. -1.
         11   -1    0    0    0    0 -0.00000000000E+00 -0.00000000000E+00 -0.45593999997E+02  0.45594000000E+02  0.51100000000E-03 0.  1.
    9900012    2    1    2    0    0 -0.63359334224E+01 -0.31168309585E+02 -0.22635249527E+01  0.59301778525E+02  0.49999698162E+02 0.  0.
        -12    1    1    2    0    0  0.63359334224E+01  0.31168309585E+02  0.22635249527E+01  0.31886221475E+02  0.00000000000E+00 0.  1.
         11    1    3    3    0    0  0.27932337880E+01  0.35985777302E-01  0.10415032492E+02  0.10783151304E+02  0.51100000000E-03 0. -1.
        -11    1    3    3    0    0  0.10216483817E+02 -0.19900047518E+02 -0.13445534699E+02  0.26099249729E+02  0.51100000000E-03 0.  1.
        -12    1    3    3    0    0 -0.19345651028E+02 -0.11304247845E+02  0.76697725440E+00  0.22419377492E+02  0.00000000000E+00 0.  1.
</event>
<event>
 7    1  0.6489567E-013  0.5930192E+02  0.7816164E-02  0.1266605E+00
        -11   -1    0    0    0    0  0.00000000000E+00  0.00000000000E+00  0.45593999997E+02  0.45594000000E+02  0.51100000000E-03 0.  1.
         11   -1    0    0    0    0 -0.00000000000E+00 -0.00000000000E+00 -0.45593999997E+02  0.45594000000E+02  0.51100000000E-03 0. -1.
    9900012    2    1    2    0    0 -0.14180962943E+00 -0.96200085052E+00 -0.31871253229E+02  0.59301916233E+02  0.49999949310E+02 0.  0.
        -12    1    1    2    0    0  0.14180962943E+00  0.96200085052E+00  0.31871253229E+02  0.31886083767E+02  0.00000000000E+00 0.  1.
         11    1    3    3    0    0 -0.94177371211E+01  0.29894950430E+01 -0.35609544605E+01  0.10502916263E+02  0.51100000000E-03 0. -1.
        -11    1    3    3    0    0 -0.56918402401E+01 -0.14144254842E+02 -0.64378275194E-01  0.15246676201E+02  0.51100000000E-03 0.  1.
         12    1    3    3    0    0  0.14967767732E+02  0.10192758948E+02 -0.28245920493E+02  0.33552323770E+02  0.00000000000E+00 0. -1.
</event>
<event>
 7    1  0.6489567E-013  0.5930206E+02  0.7816164E-02  0.1266604E+00
        -11   -1    0    0    0    0  0.00000000000E+00  0.00000000000E+00  0.45593999997E+02  0.45594000000E+02  0.51100000000E-03 0.  1.
         11   -1    0    0    0    0 -0.00000000000E+00 -0.00000000000E+00 -0.45593999997E+02  0.45594000000E+02  0.51100000000E-03 0. -1.
    9900012    2    1    2    0    0 -0.13989290084E+02  0.21446773111E+02 -0.19001283748E+02  0.59302061124E+02  0.50000213556E+02 0.  0.
        -12    1    1    2    0    0  0.13989290084E+02 -0.21446773111E+02  0.19001283748E+02  0.31885938876E+02  0.00000000000E+00 0.  1.
         11    1    3    3    0    0 -0.24263405093E+02 -0.10147490885E+01 -0.12734411989E+02  0.27420937099E+02  0.51100000000E-03 0. -1.
        -11    1    3    3    0    0 -0.53128443288E+01  0.72325939410E+01  0.70382890026E+00  0.90017834543E+01  0.51100000000E-03 0.  1.
         12    1    3    3    0    0  0.15586959338E+02  0.15228928258E+02 -0.69707006594E+01  0.22879340571E+02  0.00000000000E+00 0. -1.
</event>
<event>
 7    1  0.6489567E-013  0.5930194E+02  0.7816164E-02  0.1266605E+00
        -11   -1    0    0    0    0  0.00000000000E+00  0.00000000000E+00  0.45593999997E+02  0.45594000000E+02  0.51100000000E-03 0.  1.
         11   -1    0    0    0    0 -0.00000000000E+00 -0.00000000000E+00 -0.45593999997E+02  0.45594000000E+02  0.51100000000E-03 0. -1.
    9900012    2    1    2    0    0 -0.18775715941E+02  0.22707658116E+01 -0.25671709793E+02  0.59301943954E+02  0.49999999865E+02 0.  0.
        -12    1    1    2    0    0  0.18775715941E+02 -0.22707658116E+01  0.25671709793E+02  0.31886056046E+02  0.00000000000E+00 0.  1.
         11    1    3    3    0    0 -0.17796951720E+02  0.66569644134E+01 -0.18142641466E+02  0.26271697801E+02  0.51100000000E-03 0. -1.
        -11    1    3    3    0    0 -0.51475529710E+01 -0.92537581045E+01 -0.17924156738E+02  0.20818374953E+02  0.51100000000E-03 0.  1.
        -12    1    3    3    0    0  0.41687887493E+01  0.48675595027E+01  0.10395088411E+02  0.12211871200E+02  0.00000000000E+00 0.  1.
</event>
<event>
 7    1  0.6489567E-013  0.5930199E+02  0.7816164E-02  0.1266605E+00
        -11   -1    0    0    0    0  0.00000000000E+00  0.00000000000E+00  0.45593999997E+02  0.45594000000E+02  0.51100000000E-03 0.  1.
         11   -1    0    0    0    0 -0.00000000000E+00 -0.00000000000E+00 -0.45593999997E+02  0.45594000000E+02  0.51100000000E-03 0. -1.
    9900012    2    1    2    0    0  0.18555282435E+02 -0.64379302322E+01 -0.25119153321E+02  0.59301994990E+02  0.50000092942E+02 0.  0.
        -12    1    1    2    0    0 -0.18555282435E+02  0.64379302322E+01  0.25119153321E+02  0.31886005010E+02  0.00000000000E+00 0.  1.
         11    1    3    3    0    0 -0.34386228206E+01  0.47667187829E+01 -0.23670425898E+02  0.24389235276E+02  0.51100000000E-03 0. -1.
        -11    1    3    3    0    0  0.42523278522E+01 -0.91584098412E+01 -0.10773507762E+02  0.14765745248E+02  0.51100000000E-03 0.  1.
        -12    1    3    3    0    0  0.17741577404E+02 -0.20462391740E+01  0.93247803387E+01  0.20147014466E+02  0.00000000000E+00 0.  1.
</event>
<event>
 7    1  0.6489567E-013  0.5930195E+02  0.7816164E-02  0.1266605E+00
        -11   -1    0    0    0    0  0.00000000000E+00  0.00000000000E+00  0.45593999997E+02  0.45594000000E+02  0.51100000000E-03 0. -1.
         11   -1    0    0    0    0 -0.00000000000E+00 -0.00000000000E+00 -0.45593999997E+02  0.45594000000E+02  0.51100000000E-03 0.  1.
    9900012    2    1    2    0    0  0.12603801273E+02  0.29228406285E+02  0.18880695432E+01  0.59301947452E+02  0.50000006246E+02 0.  0.
        -12    1    1    2    0    0 -0.12603801273E+02 -0.29228406285E+02 -0.18880695432E+01  0.31886052548E+02  0.00000000000E+00 0.  1.
         11    1    3    3    0    0  0.15754643526E+02  0.32021859338E+02  0.48261937086E+01  0.36012503579E+02  0.51100000000E-03 0. -1.
        -11    1    3    3    0    0  0.19961519432E+01  0.55724872881E+01 -0.97007866101E+01  0.11364088097E+02  0.51100000000E-03 0.  1.
         12    1    3    3    0    0 -0.51469941964E+01 -0.83659403411E+01  0.67626624447E+01  0.11925355776E+02  0.00000000000E+00 0. -1.
</event>
<event>
 7    1  0.6489567E-013  0.5930195E+02  0.7816164E-02  0.1266605E+00
        -11   -1    0    0    0    0  0.00000000000E+00  0.00000000000E+00  0.45593999997E+02  0.45594000000E+02  0.51100000000E-03 0.  1.
         11   -1    0    0    0    0 -0.00000000000E+00 -0.00000000000E+00 -0.45593999997E+02  0.45594000000E+02  0.51100000000E-03 0. -1.
    9900012    2    1    2    0    0 -0.21905555533E+02 -0.22588429543E+02  0.51604247402E+01  0.59301945118E+02  0.50000001989E+02 0.  0.
        -12    1    1    2    0    0  0.21905555533E+02  0.22588429543E+02 -0.51604247402E+01  0.31886054882E+02  0.00000000000E+00 0.  1.
         11    1    3    3    0    0 -0.12226355237E+01 -0.49871491109E+01 -0.12159305105E+02  0.13199060375E+02  0.51100000000E-03 0. -1.
        -11    1    3    3    0    0 -0.56477770754E+01  0.41658751536E+01 -0.71841814464E+01  0.10043125261E+02  0.51100000000E-03 0.  1.
        -12    1    3    3    0    0 -0.15035142934E+02 -0.21767155585E+02  0.24503911292E+02  0.36059759482E+02  0.00000000000E+00 0.  1.
</event>
<event>
 7    1  0.6489567E-013  0.5930195E+02  0.7816164E-02  0.1266605E+00
        -11   -1    0    0    0    0  0.00000000000E+00  0.00000000000E+00  0.45593999997E+02  0.45594000000E+02  0.51100000000E-03 0.  1.
         11   -1    0    0    0    0 -0.00000000000E+00 -0.00000000000E+00 -0.45593999997E+02  0.45594000000E+02  0.51100000000E-03 0. -1.
    9900012    2    1    2    0    0  0.28149842289E+02  0.20552969903E+01 -0.14835172465E+02  0.59301949622E+02  0.50000010203E+02 0.  0.
        -12    1    1    2    0    0 -0.28149842289E+02 -0.20552969903E+01  0.14835172465E+02  0.31886050378E+02  0.00000000000E+00 0.  1.
         11    1    3    3    0    0  0.16011358645E+02 -0.39961688331E+01 -0.46104937102E+01  0.17134457199E+02  0.51100000000E-03 0. -1.
        -11    1    3    3    0    0  0.10738479872E+02 -0.99285296964E+01 -0.18926010536E+02  0.23918288546E+02  0.51100000000E-03 0.  1.
        -12    1    3    3    0    0  0.14000037723E+01  0.15979995520E+02  0.87013317816E+01  0.18249203877E+02  0.00000000000E+00 0.  1.
</event>
<event>
 7    1  0.6489567E-013  0.5930194E+02  0.7816164E-02  0.1266605E+00
        -11   -1    0    0    0    0  0.00000000000E+00  0.00000000000E+00  0.45593999997E+02  0.45594000000E+02  0.51100000000E-03 0. -1.
         11   -1    0    0    0    0 -0.00000000000E+00 -0.00000000000E+00 -0.45593999997E+02  0.45594000000E+02  0.51100000000E-03 0.  1.
    9900012    2    1    2    0    0  0.23515832323E+02 -0.30437403918E+01  0.21318119785E+02  0.59301937894E+02  0.49999988814E+02 0.  0.
        -12    1    1    2    0    0 -0.23515832323E+02  0.30437403918E+01 -0.21318119785E+02  0.31886062106E+02  0.00000000000E+00 0.  1.
         11    1    3    3    0    0  0.79890012791E+01  0.21634591525E+02  0.16186873366E+02  0.28176134609E+02  0.51100000000E-03 0. -1.
        -11    1    3    3    0    0 -0.79244070546E-01 -0.22877346438E+00 -0.13776601792E+01  0.13987725873E+01  0.51100000000E-03 0.  1.
         12    1    3    3    0    0  0.15606075115E+02 -0.24449558452E+02  0.65089065989E+01  0.29727030698E+02  0.00000000000E+00 0. -1.
</event>
<event>
 7    1  0.6489567E-013  0.5930194E+02  0.7816164E-02  0.1266605E+00
        -11   -1    0    0    0    0  0.00000000000E+00  0.00000000000E+00  0.45593999997E+02  0.45594000000E+02  0.51100000000E-03 0.  1.
         11   -1    0    0    0    0 -0.00000000000E+00 -0.00000000000E+00 -0.45593999997E+02  0.45594000000E+02  0.51100000000E-03 0. -1.
    9900012    2    1    2    0    0 -0.46577931972E+01 -0.17055591522E+02 -0.26535496706E+02  0.59301939957E+02  0.49999992575E+02 0.  0.
        -12    1    1    2    0    0  0.46577931972E+01  0.17055591522E+02  0.26535496706E+02  0.31886060043E+02  0.00000000000E+00 0.  1.
         11    1    3    3    0    0 -0.61375810977E+01 -0.58384015983E+01 -0.40704501630E+01  0.93981593807E+01  0.51100000000E-03 0.  1.
        -11    1    3    3    0    0  0.70231563612E+01 -0.21076617158E+02 -0.29237528313E+02  0.36720315606E+02  0.51100000000E-03 0. -1.
        -12    1    3    3    0    0 -0.55433684607E+01  0.98594272343E+01  0.67724817698E+01  0.13183464969E+02  0.00000000000E+00 0.  1.
</event>
<event>
 7    1  0.6489567E-013  0.5930195E+02  0.7816164E-02  0.1266605E+00
        -11   -1    0    0    0    0  0.00000000000E+00  0.00000000000E+00  0.45593999997E+02  0.45594000000E+02  0.51100000000E-03 0.  1.
         11   -1    0    0    0    0 -0.00000000000E+00 -0.00000000000E+00 -0.45593999997E+02  0.45594000000E+02  0.51100000000E-03 0. -1.
    9900012    2    1    2    0    0 -0.97891391599E+01  0.28042771277E+02  0.11597247908E+02  0.59301946224E+02  0.50000004005E+02 0.  0.
        -12    1    1    2    0    0  0.97891391599E+01 -0.28042771277E+02 -0.11597247908E+02  0.31886053776E+02  0.00000000000E+00 0.  1.
         11    1    3    3    0    0 -0.41672988717E+01 -0.62743175422E+01  0.27550029839E+01  0.80201921554E+01  0.51100000000E-03 0.  1.
        -11    1    3    3    0    0 -0.11484038598E+02  0.31369206794E+02 -0.70031954787E+01  0.34131437482E+02  0.51100000000E-03 0. -1.
         12    1    3    3    0    0  0.58621983096E+01  0.29478820249E+01  0.15845440403E+02  0.17150316587E+02  0.00000000000E+00 0. -1.
</event>
<event>
 7    1  0.6489567E-013  0.5930195E+02  0.7816164E-02  0.1266605E+00
        -11   -1    0    0    0    0  0.00000000000E+00  0.00000000000E+00  0.45593999997E+02  0.45594000000E+02  0.51100000000E-03 0.  1.
         11   -1    0    0    0    0 -0.00000000000E+00 -0.00000000000E+00 -0.45593999997E+02  0.45594000000E+02  0.51100000000E-03 0. -1.
    9900012    2    1    2    0    0  0.29925000502E+02  0.44184707512E+01 -0.10084214061E+02  0.59301954274E+02  0.50000018686E+02 0.  0.
        -12    1    1    2    0    0 -0.29925000502E+02 -0.44184707512E+01  0.10084214061E+02  0.31886045726E+02  0.00000000000E+00 0.  1.
         11    1    3    3    0    0  0.11853292292E+02  0.76881647181E+01 -0.97302046126E+01  0.17154745610E+02  0.51100000000E-03 0. -1.
        -11    1    3    3    0    0  0.55323374872E+01 -0.13453051881E+02 -0.14599799750E+02  0.20609355060E+02  0.51100000000E-03 0.  1.
        -12    1    3    3    0    0  0.12539370723E+02  0.10183357914E+02  0.14245790302E+02  0.21537853604E+02  0.00000000000E+00 0.  1.
</event>
<event>
 7    1  0.6489567E-013  0.5930194E+02  0.7816164E-02  0.1266605E+00
        -11   -1    0    0    0    0  0.00000000000E+00  0.00000000000E+00  0.45593999997E+02  0.45594000000E+02  0.51100000000E-03 0.  1.
         11   -1    0    0    0    0 -0.00000000000E+00 -0.00000000000E+00 -0.45593999997E+02  0.45594000000E+02  0.51100000000E-03 0. -1.
    9900012    2    1    2    0    0 -0.96931041290E+01  0.30214718939E+02 -0.31361504766E+01  0.59301938029E+02  0.49999989060E+02 0.  0.
        -12    1    1    2    0    0  0.96931041290E+01 -0.30214718939E+02  0.31361504766E+01  0.31886061971E+02  0.00000000000E+00 0.  1.
         11    1    3    3    0    0 -0.86881618898E+01 -0.90240934732E+01 -0.24230456553E+01  0.12758901620E+02  0.51100000000E-03 0. -1.
        -11    1    3    3    0    0 -0.72654064798E+01  0.19058462027E+02 -0.10856003028E+02  0.23105495194E+02  0.51100000000E-03 0.  1.
         12    1    3    3    0    0  0.62604642407E+01  0.20180350385E+02  0.10142898207E+02  0.23437541215E+02  0.00000000000E+00 0. -1.
</event>
<event>
 7    1  0.6489567E-013  0.5930187E+02  0.7816164E-02  0.1266605E+00
        -11   -1    0    0    0    0  0.00000000000E+00  0.00000000000E+00  0.45593999997E+02  0.45594000000E+02  0.51100000000E-03 0. -1.
         11   -1    0    0    0    0 -0.00000000000E+00 -0.00000000000E+00 -0.45593999997E+02  0.45594000000E+02  0.51100000000E-03 0.  1.
    9900012    2    1    2    0    0 -0.27695071269E+02 -0.95294980716E+01 -0.12605438474E+02  0.59301868450E+02  0.49999862164E+02 0.  0.
        -12    1    1    2    0    0  0.27695071269E+02  0.95294980716E+01  0.12605438474E+02  0.31886131550E+02  0.00000000000E+00 0.  1.
         11    1    3    3    0    0 -0.25758499346E+02  0.56023261293E+01  0.78940535813E+01  0.27517311439E+02  0.51100000000E-03 0. -1.
        -11    1    3    3    0    0  0.38660476208E+00 -0.20773587227E+01 -0.18205861065E+02  0.18328072999E+02  0.51100000000E-03 0.  1.
        -12    1    3    3    0    0 -0.23231766850E+01 -0.13054465478E+02 -0.22936309906E+01  0.13456484012E+02  0.00000000000E+00 0.  1.
</event>
<event>
 7    1  0.6489567E-013  0.5930199E+02  0.7816164E-02  0.1266605E+00
        -11   -1    0    0    0    0  0.00000000000E+00  0.00000000000E+00  0.45593999997E+02  0.45594000000E+02  0.51100000000E-03 0.  1.
         11   -1    0    0    0    0 -0.00000000000E+00 -0.00000000000E+00 -0.45593999997E+02  0.45594000000E+02  0.51100000000E-03 0. -1.
    9900012    2    1    2    0    0  0.29387035831E+02 -0.10191480105E+02  0.70180729347E+01  0.59301992263E+02  0.50000087970E+02 0.  0.
        -12    1    1    2    0    0 -0.29387035831E+02  0.10191480105E+02 -0.70180729347E+01  0.31886007737E+02  0.00000000000E+00 0.  1.
         11    1    3    3    0    0  0.88261231354E+01 -0.31752780544E+01 -0.15331626811E+02  0.17973358653E+02  0.51100000000E-03 0. -1.
        -11    1    3    3    0    0  0.14940169741E+02  0.68978292489E+01  0.28139187258E+01  0.16694515839E+02  0.51100000000E-03 0.  1.
        -12    1    3    3    0    0  0.56207429548E+01 -0.13914031299E+02  0.19535781020E+02  0.24634117772E+02  0.00000000000E+00 0.  1.
</event>
<event>
 7    1  0.6489567E-013  0.5930194E+02  0.7816164E-02  0.1266605E+00
        -11   -1    0    0    0    0  0.00000000000E+00  0.00000000000E+00  0.45593999997E+02  0.45594000000E+02  0.51100000000E-03 0. -1.
         11   -1    0    0    0    0 -0.00000000000E+00 -0.00000000000E+00 -0.45593999997E+02  0.45594000000E+02  0.51100000000E-03 0.  1.
    9900012    2    1    2    0    0 -0.10555207455E+01 -0.27440955307E+02 -0.16204949486E+02  0.59301944426E+02  0.50000000727E+02 0.  0.
        -12    1    1    2    0    0  0.10555207455E+01  0.27440955307E+02  0.16204949486E+02  0.31886055574E+02  0.00000000000E+00 0.  1.
         11    1    3    3    0    0 -0.21781560245E+02 -0.26390559674E+01 -0.14866881381E+02  0.26503304423E+02  0.51100000000E-03 0.  1.
        -11    1    3    3    0    0  0.77293897801E+01 -0.58694822587E+01 -0.15807920281E+01  0.98332696523E+01  0.51100000000E-03 0. -1.
        -12    1    3    3    0    0  0.12996649719E+02 -0.18932417081E+02  0.24272392321E+00  0.22965370351E+02  0.00000000000E+00 0.  1.
</event>
<event>
 7    1  0.6489567E-013  0.5930198E+02  0.7816164E-02  0.1266605E+00
        -11   -1    0    0    0    0  0.00000000000E+00  0.00000000000E+00  0.45593999997E+02  0.45594000000E+02  0.51100000000E-03 0.  1.
         11   -1    0    0    0    0 -0.00000000000E+00 -0.00000000000E+00 -0.45593999997E+02  0.45594000000E+02  0.51100000000E-03 0. -1.
    9900012    2    1    2    0    0  0.10051995719E+02  0.16038237046E+02 -0.25660296384E+02  0.59301976793E+02  0.50000059756E+02 0.  0.
        -12    1    1    2    0    0 -0.10051995719E+02 -0.16038237046E+02  0.25660296384E+02  0.31886023207E+02  0.00000000000E+00 0.  1.
         11    1    3    3    0    0 -0.31386916184E+01 -0.95819538131E+01 -0.16565839293E+02  0.19393098146E+02  0.51100000000E-03 0. -1.
        -11    1    3    3    0    0 -0.67266747238E+00  0.26258633058E+01 -0.12548066202E+02  0.12837507753E+02  0.51100000000E-03 0.  1.
        -12    1    3    3    0    0  0.13863354810E+02  0.22994327553E+02  0.34536091115E+01  0.27071370894E+02  0.00000000000E+00 0.  1.
</event>
<event>
 7    1  0.6489567E-013  0.5930195E+02  0.7816164E-02  0.1266605E+00
        -11   -1    0    0    0    0  0.00000000000E+00  0.00000000000E+00  0.45593999997E+02  0.45594000000E+02  0.51100000000E-03 0. -1.
         11   -1    0    0    0    0 -0.00000000000E+00 -0.00000000000E+00 -0.45593999997E+02  0.45594000000E+02  0.51100000000E-03 0.  1.
    9900012    2    1    2    0    0  0.29125554888E+02  0.12810990573E+02 -0.20737563102E+01  0.59301954585E+02  0.50000019253E+02 0.  0.
        -12    1    1    2    0    0 -0.29125554888E+02 -0.12810990573E+02  0.20737563102E+01  0.31886045415E+02  0.00000000000E+00 0.  1.
         11    1    3    3    0    0 -0.44802268407E+01  0.40297815663E+01  0.92980683317E+01  0.11079966019E+02  0.51100000000E-03 0. -1.
        -11    1    3    3    0    0  0.64553168062E+01 -0.76047585043E+01 -0.13097013950E+02  0.16463147987E+02  0.51100000000E-03 0.  1.
         12    1    3    3    0    0  0.27150464922E+02  0.16385967511E+02  0.17251893079E+01  0.31758840579E+02  0.00000000000E+00 0. -1.
</event>
<event>
 7    1  0.6489567E-013  0.5930190E+02  0.7816164E-02  0.1266605E+00
        -11   -1    0    0    0    0  0.00000000000E+00  0.00000000000E+00  0.45593999997E+02  0.45594000000E+02  0.51100000000E-03 0. -1.
         11   -1    0    0    0    0 -0.00000000000E+00 -0.00000000000E+00 -0.45593999997E+02  0.45594000000E+02  0.51100000000E-03 0.  1.
    9900012    2    1    2    0    0  0.71051042261E+01  0.31081585107E+02 -0.41911916710E+00  0.59301904289E+02  0.49999927525E+02 0.  0.
        -12    1    1    2    0    0 -0.71051042261E+01 -0.31081585107E+02  0.41911916710E+00  0.31886095711E+02  0.00000000000E+00 0.  1.
         11    1    3    3    0    0 -0.16260417064E+01 -0.53430836401E+00 -0.30053044271E+01  0.34585187609E+01  0.51100000000E-03 0. -1.
        -11    1    3    3    0    0 -0.14837074870E+02 -0.78903682655E+00  0.50648900301E+01  0.15697594755E+02  0.51100000000E-03 0.  1.
         12    1    3    3    0    0  0.23568220803E+02  0.32404930298E+02 -0.24787047701E+01  0.40145790773E+02  0.00000000000E+00 0. -1.
</event>
<event>
 7    1  0.6489567E-013  0.5930193E+02  0.7816164E-02  0.1266605E+00
        -11   -1    0    0    0    0  0.00000000000E+00  0.00000000000E+00  0.45593999997E+02  0.45594000000E+02  0.51100000000E-03 0.  1.
         11   -1    0    0    0    0 -0.00000000000E+00 -0.00000000000E+00 -0.45593999997E+02  0.45594000000E+02  0.51100000000E-03 0. -1.
    9900012    2    1    2    0    0 -0.15824091977E+01 -0.18973000687E+02 -0.25578168666E+02  0.59301929589E+02  0.49999973667E+02 0.  0.
        -12    1    1    2    0    0  0.15824091977E+01  0.18973000687E+02  0.25578168666E+02  0.31886070411E+02  0.00000000000E+00 0.  1.
         11    1    3    3    0    0  0.41318324891E+01 -0.19011520064E+00 -0.54701854474E+01  0.68579233444E+01  0.51100000000E-03 0. -1.
        -11    1    3    3    0    0  0.10088278660E+02 -0.27277063558E+02 -0.61818180124E+01  0.29732582076E+02  0.51100000000E-03 0.  1.
        -12    1    3    3    0    0 -0.15802520347E+02  0.84941780712E+01 -0.13926165206E+02  0.22711424169E+02  0.00000000000E+00 0.  1.
</event>
<event>
 7    1  0.6489567E-013  0.5930184E+02  0.7816164E-02  0.1266605E+00
        -11   -1    0    0    0    0  0.00000000000E+00  0.00000000000E+00  0.45593999997E+02  0.45594000000E+02  0.51100000000E-03 0. -1.
         11   -1    0    0    0    0 -0.00000000000E+00 -0.00000000000E+00 -0.45593999997E+02  0.45594000000E+02  0.51100000000E-03 0.  1.
    9900012    2    1    2    0    0 -0.19295708955E+02 -0.23004011285E+02 -0.10733983276E+02  0.59301838170E+02  0.49999806941E+02 0.  0.
        -12    1    1    2    0    0  0.19295708955E+02  0.23004011285E+02  0.10733983276E+02  0.31886161830E+02  0.00000000000E+00 0.  1.
         11    1    3    3    0    0 -0.24304338548E+02 -0.19679528638E+02 -0.90199366952E+01  0.32547564854E+02  0.51100000000E-03 0. -1.
        -11    1    3    3    0    0 -0.81887063807E+01  0.56644665199E+01 -0.37862911655E+01  0.10652562799E+02  0.51100000000E-03 0.  1.
        -12    1    3    3    0    0  0.13197335974E+02 -0.89889491676E+01  0.20722445852E+01  0.16101710517E+02  0.00000000000E+00 0.  1.
</event>
<event>
 7    1  0.6489567E-013  0.5930192E+02  0.7816164E-02  0.1266605E+00
        -11   -1    0    0    0    0  0.00000000000E+00  0.00000000000E+00  0.45593999997E+02  0.45594000000E+02  0.51100000000E-03 0. -1.
         11   -1    0    0    0    0 -0.00000000000E+00 -0.00000000000E+00 -0.45593999997E+02  0.45594000000E+02  0.51100000000E-03 0.  1.
    9900012    2    1    2    0    0  0.16299241964E+01  0.20664621405E+02  0.24228880533E+02  0.59301923374E+02  0.49999962332E+02 0.  0.
        -12    1    1    2    0    0 -0.16299241964E+01 -0.20664621405E+02 -0.24228880533E+02  0.31886076626E+02  0.00000000000E+00 0.  1.
         11    1    3    3    0    0  0.88814126125E+01 -0.40009480268E+01  0.10455179385E+02  0.14289781361E+02  0.51100000000E-03 0. -1.
        -11    1    3    3    0    0  0.82393870183E+01  0.24348383147E+02  0.14478805239E+02  0.29501984030E+02  0.51100000000E-03 0.  1.
        -12    1    3    3    0    0 -0.15490875434E+02  0.31718628509E+00 -0.70510409104E+00  0.15510157983E+02  0.00000000000E+00 0.  1.
</event>
<event>
 7    1  0.6489567E-013  0.5930194E+02  0.7816164E-02  0.1266605E+00
        -11   -1    0    0    0    0  0.00000000000E+00  0.00000000000E+00  0.45593999997E+02  0.45594000000E+02  0.51100000000E-03 0.  1.
         11   -1    0    0    0    0 -0.00000000000E+00 -0.00000000000E+00 -0.45593999997E+02  0.45594000000E+02  0.51100000000E-03 0. -1.
    9900012    2    1    2    0    0 -0.43956712929E+01 -0.86845290089E+01 -0.30364087112E+02  0.59301941034E+02  0.49999994540E+02 0.  0.
        -12    1    1    2    0    0  0.43956712929E+01  0.86845290089E+01  0.30364087112E+02  0.31886058966E+02  0.00000000000E+00 0.  1.
         11    1    3    3    0    0 -0.65044924213E+01 -0.43618571989E+01 -0.55383230670E+01  0.95920405826E+01  0.51100000000E-03 0. -1.
        -11    1    3    3    0    0  0.20148932484E+00  0.12763833416E+01  0.12172954487E+02  0.12241346886E+02  0.51100000000E-03 0.  1.
         12    1    3    3    0    0  0.19073318036E+01 -0.55990551516E+01 -0.36998718533E+02  0.37468553565E+02  0.00000000000E+00 0. -1.
</event>
<event>
 7    1  0.6489567E-013  0.5930194E+02  0.7816164E-02  0.1266605E+00
        -11   -1    0    0    0    0  0.00000000000E+00  0.00000000000E+00  0.45593999997E+02  0.45594000000E+02  0.51100000000E-03 0. -1.
         11   -1    0    0    0    0 -0.00000000000E+00 -0.00000000000E+00 -0.45593999997E+02  0.45594000000E+02  0.51100000000E-03 0.  1.
    9900012    2    1    2    0    0  0.85726792087E+01 -0.61077335929E+01  0.30098601743E+02  0.59301936189E+02  0.49999985705E+02 0.  0.
        -12    1    1    2    0    0 -0.85726792087E+01  0.61077335929E+01 -0.30098601743E+02  0.31886063811E+02  0.00000000000E+00 0.  1.
         11    1    3    3    0    0  0.72938142367E+01  0.20789485951E+01 -0.23666328208E+01  0.79449798332E+01  0.51100000000E-03 0. -1.
        -11    1    3    3    0    0 -0.66448930059E+01  0.52469074849E+00 -0.72996256985E+01  0.98850614081E+01  0.51100000000E-03 0.  1.
         12    1    3    3    0    0  0.79237579780E+01 -0.87113729365E+01  0.39764860262E+02  0.41471894948E+02  0.00000000000E+00 0. -1.
</event>
<event>
 7    1  0.6489567E-013  0.5930197E+02  0.7816164E-02  0.1266605E+00
        -11   -1    0    0    0    0  0.00000000000E+00  0.00000000000E+00  0.45593999997E+02  0.45594000000E+02  0.51100000000E-03 0. -1.
         11   -1    0    0    0    0 -0.00000000000E+00 -0.00000000000E+00 -0.45593999997E+02  0.45594000000E+02  0.51100000000E-03 0.  1.
    9900012    2    1    2    0    0  0.26822213095E+02  0.65359848173E+00  0.17229639294E+02  0.59301972080E+02  0.50000051161E+02 0.  0.
        -12    1    1    2    0    0 -0.26822213095E+02 -0.65359848173E+00 -0.17229639294E+02  0.31886027920E+02  0.00000000000E+00 0.  1.
         11    1    3    3    0    0  0.14014376520E+01  0.15324992513E+02  0.96335846724E+01  0.18155588035E+02  0.51100000000E-03 0. -1.
        -11    1    3    3    0    0  0.75289212693E+01 -0.41667288067E+01 -0.10528092192E+02  0.13597316275E+02  0.51100000000E-03 0.  1.
        -12    1    3    3    0    0  0.17891854173E+02 -0.10504665224E+02  0.18124146814E+02  0.27549067770E+02  0.00000000000E+00 0.  1.
</event>
<event>
 7    1  0.6489567E-013  0.5930194E+02  0.7816164E-02  0.1266605E+00
        -11   -1    0    0    0    0  0.00000000000E+00  0.00000000000E+00  0.45593999997E+02  0.45594000000E+02  0.51100000000E-03 0.  1.
         11   -1    0    0    0    0 -0.00000000000E+00 -0.00000000000E+00 -0.45593999997E+02  0.45594000000E+02  0.51100000000E-03 0. -1.
    9900012    2    1    2    0    0 -0.94947083685E+01 -0.12634664284E+02 -0.27693619848E+02  0.59301940211E+02  0.49999993040E+02 0.  0.
        -12    1    1    2    0    0  0.94947083685E+01  0.12634664284E+02  0.27693619848E+02  0.31886059789E+02  0.00000000000E+00 0.  1.
         11    1    3    3    0    0 -0.18134707488E+02 -0.73793390064E+01 -0.17790068519E+02  0.26453899486E+02  0.51100000000E-03 0. -1.
        -11    1    3    3    0    0  0.34871157734E+00  0.80156541995E+01 -0.14471497742E+02  0.16546799061E+02  0.51100000000E-03 0.  1.
        -12    1    3    3    0    0  0.82912875422E+01 -0.13270979477E+02  0.45679464127E+01  0.16301241665E+02  0.00000000000E+00 0.  1.
</event>
<event>
 7    1  0.6489567E-013  0.5930195E+02  0.7816164E-02  0.1266605E+00
        -11   -1    0    0    0    0  0.00000000000E+00  0.00000000000E+00  0.45593999997E+02  0.45594000000E+02  0.51100000000E-03 0.  1.
         11   -1    0    0    0    0 -0.00000000000E+00 -0.00000000000E+00 -0.45593999997E+02  0.45594000000E+02  0.51100000000E-03 0. -1.
    9900012    2    1    2    0    0 -0.87937497039E+01  0.13808105247E+02 -0.27362862558E+02  0.59301952083E+02  0.50000014692E+02 0.  0.
        -12    1    1    2    0    0  0.87937497039E+01 -0.13808105247E+02  0.27362862558E+02  0.31886047917E+02  0.00000000000E+00 0.  1.
         11    1    3    3    0    0  0.56703889476E+01  0.97611007921E+01 -0.11345117956E+02  0.16004502529E+02  0.51100000000E-03 0. -1.
        -11    1    3    3    0    0 -0.19862924058E+02  0.15765637857E+02 -0.16721248472E+02  0.30375833156E+02  0.51100000000E-03 0.  1.
         12    1    3    3    0    0  0.53987854062E+01 -0.11718633402E+02  0.70350387088E+00  0.12921616399E+02  0.00000000000E+00 0. -1.
</event>
<event>
 7    1  0.6489567E-013  0.5930193E+02  0.7816164E-02  0.1266605E+00
        -11   -1    0    0    0    0  0.00000000000E+00  0.00000000000E+00  0.45593999997E+02  0.45594000000E+02  0.51100000000E-03 0.  1.
         11   -1    0    0    0    0 -0.00000000000E+00 -0.00000000000E+00 -0.45593999997E+02  0.45594000000E+02  0.51100000000E-03 0. -1.
    9900012    2    1    2    0    0  0.13530605651E+02  0.25991571350E+02 -0.12573088233E+02  0.59301927519E+02  0.49999969892E+02 0.  0.
        -12    1    1    2    0    0 -0.13530605651E+02 -0.25991571350E+02  0.12573088233E+02  0.31886072481E+02  0.00000000000E+00 0.  1.
         11    1    3    3    0    0  0.95433924514E-01  0.21380321465E+02 -0.11203076717E+02  0.24137857854E+02  0.51100000000E-03 0. -1.
        -11    1    3    3    0    0  0.50860818715E+01 -0.25180074533E+00 -0.16468946796E+02  0.17238266770E+02  0.51100000000E-03 0.  1.
        -12    1    3    3    0    0  0.83490898546E+01  0.48630506304E+01  0.15098935280E+02  0.17925802895E+02  0.00000000000E+00 0.  1.
</event>
<event>
 7    1  0.6489567E-013  0.5930195E+02  0.7816164E-02  0.1266605E+00
        -11   -1    0    0    0    0  0.00000000000E+00  0.00000000000E+00  0.45593999997E+02  0.45594000000E+02  0.51100000000E-03 0. -1.
         11   -1    0    0    0    0 -0.00000000000E+00 -0.00000000000E+00 -0.45593999997E+02  0.45594000000E+02  0.51100000000E-03 0.  1.
    9900012    2    1    2    0    0 -0.14657066409E+02 -0.18306960781E+02  0.21604293620E+02  0.59301954281E+02  0.50000018700E+02 0.  0.
        -12    1    1    2    0    0  0.14657066409E+02  0.18306960781E+02 -0.21604293620E+02  0.31886045719E+02  0.00000000000E+00 0.  1.
         11    1    3    3    0    0  0.59927710707E+01  0.29249601907E+00 -0.30475036106E+01  0.67294975700E+01  0.51100000000E-03 0. -1.
        -11    1    3    3    0    0 -0.89503819007E+01  0.28029336354E+01 -0.76449226545E+01  0.12100025446E+02  0.51100000000E-03 0.  1.
         12    1    3    3    0    0 -0.11699455579E+02 -0.21402390435E+02  0.32296719886E+02  0.40472431266E+02  0.00000000000E+00 0. -1.
</event>
<event>
 7    1  0.6489567E-013  0.5930194E+02  0.7816164E-02  0.1266605E+00
        -11   -1    0    0    0    0  0.00000000000E+00  0.00000000000E+00  0.45593999997E+02  0.45594000000E+02  0.51100000000E-03 0. -1.
         11   -1    0    0    0    0 -0.00000000000E+00 -0.00000000000E+00 -0.45593999997E+02  0.45594000000E+02  0.51100000000E-03 0.  1.
    9900012    2    1    2    0    0  0.50688028056E+01  0.27603271487E+02 -0.15135627145E+02  0.59301943992E+02  0.49999999935E+02 0.  0.
        -12    1    1    2    0    0 -0.50688028056E+01 -0.27603271487E+02  0.15135627145E+02  0.31886056008E+02  0.00000000000E+00 0.  1.
         11    1    3    3    0    0  0.20515878159E+01  0.22171835897E+02 -0.51649848350E+00  0.22272541178E+02  0.51100000000E-03 0. -1.
        -11    1    3    3    0    0 -0.13146532918E+01  0.10745210968E+02 -0.23462729110E+02  0.25839650338E+02  0.51100000000E-03 0.  1.
         12    1    3    3    0    0  0.43318682815E+01 -0.53137753773E+01  0.88436004494E+01  0.11189752476E+02  0.00000000000E+00 0. -1.
</event>
<event>
 7    1  0.6489567E-013  0.5930195E+02  0.7816164E-02  0.1266605E+00
        -11   -1    0    0    0    0  0.00000000000E+00  0.00000000000E+00  0.45593999997E+02  0.45594000000E+02  0.51100000000E-03 0.  1.
         11   -1    0    0    0    0 -0.00000000000E+00 -0.00000000000E+00 -0.45593999997E+02  0.45594000000E+02  0.51100000000E-03 0. -1.
    9900012    2    1    2    0    0  0.20675792552E+01  0.17706898830E+01 -0.31769640111E+02  0.59301948827E+02  0.50000008753E+02 0.  0.
        -12    1    1    2    0    0 -0.20675792552E+01 -0.17706898830E+01  0.31769640111E+02  0.31886051173E+02  0.00000000000E+00 0.  1.
         11    1    3    3    0    0  0.44352092179E+01  0.68329420989E+01 -0.45822507738E-01  0.81463045914E+01  0.51100000000E-03 0. -1.
        -11    1    3    3    0    0  0.68368681552E+01 -0.10114665043E+01  0.77715197802E+01  0.10400113010E+02  0.51100000000E-03 0.  1.
         12    1    3    3    0    0 -0.92044981180E+01 -0.40507857115E+01 -0.39495337383E+02  0.40755531226E+02  0.00000000000E+00 0. -1.
</event>
<event>
 7    1  0.6489567E-013  0.5930195E+02  0.7816164E-02  0.1266605E+00
        -11   -1    0    0    0    0  0.00000000000E+00  0.00000000000E+00  0.45593999997E+02  0.45594000000E+02  0.51100000000E-03 0.  1.
         11   -1    0    0    0    0 -0.00000000000E+00 -0.00000000000E+00 -0.45593999997E+02  0.45594000000E+02  0.51100000000E-03 0. -1.
    9900012    2    1    2    0    0  0.16866169544E+02 -0.16113510959E+02 -0.21739528594E+02  0.59301952675E+02  0.50000015770E+02 0.  0.
        -12    1    1    2    0    0 -0.16866169544E+02  0.16113510959E+02  0.21739528594E+02  0.31886047325E+02  0.00000000000E+00 0.  1.
         11    1    3    3    0    0  0.24936594659E+02 -0.78973743245E+01 -0.12304209121E+02  0.28906674605E+02  0.51100000000E-03 0.  1.
        -11    1    3    3    0    0  0.41005990113E+01 -0.14458602941E+02 -0.32152951809E+01  0.15368937329E+02  0.51100000000E-03 0. -1.
        -12    1    3    3    0    0 -0.12171024126E+02  0.62424663063E+01 -0.62200242919E+01  0.15026340740E+02  0.00000000000E+00 0.  1.
</event>
<event>
 7    1  0.6489567E-013  0.5930189E+02  0.7816164E-02  0.1266605E+00
        -11   -1    0    0    0    0  0.00000000000E+00  0.00000000000E+00  0.45593999997E+02  0.45594000000E+02  0.51100000000E-03 0.  1.
         11   -1    0    0    0    0 -0.00000000000E+00 -0.00000000000E+00 -0.45593999997E+02  0.45594000000E+02  0.51100000000E-03 0. -1.
    9900012    2    1    2    0    0 -0.89285001595E+01 -0.23064974647E+02 -0.20124931708E+02  0.59301889437E+02  0.49999900440E+02 0.  0.
        -12    1    1    2    0    0  0.89285001595E+01  0.23064974647E+02  0.20124931708E+02  0.31886110563E+02  0.00000000000E+00 0.  1.
         11    1    3    3    0    0  0.29470784309E+01 -0.69308328169E+01  0.58210672642E+00  0.75538442740E+01  0.51100000000E-03 0.  1.
        -11    1    3    3    0    0  0.89292896880E+01 -0.17241324044E+02  0.35858547404E+01  0.19744716347E+02  0.51100000000E-03 0. -1.
         12    1    3    3    0    0 -0.20804868278E+02  0.11071822136E+01 -0.24292893175E+02  0.32003328816E+02  0.00000000000E+00 0. -1.
</event>
<event>
 7    1  0.6489567E-013  0.5930192E+02  0.7816164E-02  0.1266605E+00
        -11   -1    0    0    0    0  0.00000000000E+00  0.00000000000E+00  0.45593999997E+02  0.45594000000E+02  0.51100000000E-03 0.  1.
         11   -1    0    0    0    0 -0.00000000000E+00 -0.00000000000E+00 -0.45593999997E+02  0.45594000000E+02  0.51100000000E-03 0. -1.
    9900012    2    1    2    0    0  0.24321742495E+01  0.10929630317E+02 -0.29855486132E+02  0.59301916160E+02  0.49999949177E+02 0.  0.
        -12    1    1    2    0    0 -0.24321742495E+01 -0.10929630317E+02  0.29855486132E+02  0.31886083840E+02  0.00000000000E+00 0.  1.
         11    1    3    3    0    0 -0.49558506322E+00  0.94526992178E+01 -0.33323706357E+01  0.10035129365E+02  0.51100000000E-03 0. -1.
        -11    1    3    3    0    0 -0.30818993038E+01  0.43544681602E+01  0.10431403434E+02  0.11716384858E+02  0.51100000000E-03 0.  1.
         12    1    3    3    0    0  0.60096586165E+01 -0.28775370611E+01 -0.36954518931E+02  0.37550401937E+02  0.00000000000E+00 0. -1.
</event>
<event>
 7    1  0.6489567E-013  0.5930191E+02  0.7816164E-02  0.1266605E+00
        -11   -1    0    0    0    0  0.00000000000E+00  0.00000000000E+00  0.45593999997E+02  0.45594000000E+02  0.51100000000E-03 0.  1.
         11   -1    0    0    0    0 -0.00000000000E+00 -0.00000000000E+00 -0.45593999997E+02  0.45594000000E+02  0.51100000000E-03 0. -1.
    9900012    2    1    2    0    0  0.30131934142E+02  0.52799480403E+01 -0.89950899012E+01  0.59301906656E+02  0.49999931843E+02 0.  0.
        -12    1    1    2    0    0 -0.30131934142E+02 -0.52799480403E+01  0.89950899012E+01  0.31886093344E+02  0.00000000000E+00 0.  1.
         11    1    3    3    0    0 -0.26091064607E+01  0.54316108762E+01  0.32119353697E+01  0.68283498968E+01  0.51100000000E-03 0. -1.
        -11    1    3    3    0    0  0.89580138240E+01 -0.14984055410E+02  0.66612938957E+01  0.18685308796E+02  0.51100000000E-03 0.  1.
         12    1    3    3    0    0  0.23783026778E+02  0.14832392574E+02 -0.18868319167E+02  0.33788247962E+02  0.00000000000E+00 0. -1.
</event>
<event>
 7    1  0.6489567E-013  0.5930195E+02  0.7816164E-02  0.1266605E+00
        -11   -1    0    0    0    0  0.00000000000E+00  0.00000000000E+00  0.45593999997E+02  0.45594000000E+02  0.51100000000E-03 0.  1.
         11   -1    0    0    0    0 -0.00000000000E+00 -0.00000000000E+00 -0.45593999997E+02  0.45594000000E+02  0.51100000000E-03 0. -1.
    9900012    2    1    2    0    0  0.29672695079E+02  0.14994046357E+00  0.11671713967E+02  0.59301949409E+02  0.50000009814E+02 0.  0.
        -12    1    1    2    0    0 -0.29672695079E+02 -0.14994046357E+00 -0.11671713967E+02  0.31886050591E+02  0.00000000000E+00 0.  1.
         11    1    3    3    0    0  0.12256290669E+02  0.57308780458E+01 -0.35821788015E+01  0.13996129085E+02  0.51100000000E-03 0. -1.
        -11    1    3    3    0    0  0.41877379465E+01  0.12350990818E+02 -0.61401545263E+01  0.14414770937E+02  0.51100000000E-03 0.  1.
         12    1    3    3    0    0  0.13228666464E+02 -0.17931928400E+02  0.21394047295E+02  0.30891049387E+02  0.00000000000E+00 0. -1.
</event>
<event>
 7    1  0.6489567E-013  0.5930195E+02  0.7816164E-02  0.1266605E+00
        -11   -1    0    0    0    0  0.00000000000E+00  0.00000000000E+00  0.45593999997E+02  0.45594000000E+02  0.51100000000E-03 0.  1.
         11   -1    0    0    0    0 -0.00000000000E+00 -0.00000000000E+00 -0.45593999997E+02  0.45594000000E+02  0.51100000000E-03 0. -1.
    9900012    2    1    2    0    0 -0.13818192054E+02  0.28361010345E+02 -0.46293441853E+01  0.59301950276E+02  0.50000011395E+02 0.  0.
        -12    1    1    2    0    0  0.13818192054E+02 -0.28361010345E+02  0.46293441853E+01  0.31886049724E+02  0.00000000000E+00 0.  1.
         11    1    3    3    0    0  0.14003860839E+02  0.23076680526E+01 -0.10496475304E+02  0.17652462840E+02  0.51100000000E-03 0. -1.
        -11    1    3    3    0    0 -0.40179917593E+01 -0.10065907672E+01 -0.22399528745E+01  0.47090202688E+01  0.51100000000E-03 0.  1.
        -12    1    3    3    0    0 -0.23804061134E+02  0.27059933060E+02  0.81070839929E+01  0.36940467167E+02  0.00000000000E+00 0.  1.
</event>
<event>
 7    1  0.6489567E-013  0.5930196E+02  0.7816164E-02  0.1266605E+00
        -11   -1    0    0    0    0  0.00000000000E+00  0.00000000000E+00  0.45593999997E+02  0.45594000000E+02  0.51100000000E-03 0.  1.
         11   -1    0    0    0    0 -0.00000000000E+00 -0.00000000000E+00 -0.45593999997E+02  0.45594000000E+02  0.51100000000E-03 0. -1.
    9900012    2    1    2    0    0  0.41681659235E+01  0.12816856145E+02 -0.28897650814E+02  0.59301958678E+02  0.50000026719E+02 0.  0.
        -12    1    1    2    0    0 -0.41681659235E+01 -0.12816856145E+02  0.28897650814E+02  0.31886041322E+02  0.00000000000E+00 0.  1.
         11    1    3    3    0    0  0.53518411085E+01  0.51324275221E+01 -0.22133325367E+02  0.23342410063E+02  0.51100000000E-03 0. -1.
        -11    1    3    3    0    0 -0.15457922872E+02  0.76575996561E+01 -0.11713451251E+02  0.20851646277E+02  0.51100000000E-03 0.  1.
         12    1    3    3    0    0  0.14274247687E+02  0.26828966497E-01  0.49491258033E+01  0.15107902337E+02  0.00000000000E+00 0. -1.
</event>
<event>
 7    1  0.6489567E-013  0.5930187E+02  0.7816164E-02  0.1266605E+00
        -11   -1    0    0    0    0  0.00000000000E+00  0.00000000000E+00  0.45593999997E+02  0.45594000000E+02  0.51100000000E-03 0. -1.
         11   -1    0    0    0    0 -0.00000000000E+00 -0.00000000000E+00 -0.45593999997E+02  0.45594000000E+02  0.51100000000E-03 0.  1.
    9900012    2    1    2    0    0  0.16452496673E+02  0.26811687001E+02 -0.52128516348E+01  0.59301874040E+02  0.49999872358E+02 0.  0.
        -12    1    1    2    0    0 -0.16452496673E+02 -0.26811687001E+02  0.52128516348E+01  0.31886125960E+02  0.00000000000E+00 0.  1.
         11    1    3    3    0    0 -0.17997658948E+01  0.10770313245E+02 -0.15929074037E+02  0.19312540086E+02  0.51100000000E-03 0.  1.
        -11    1    3    3    0    0  0.17423748526E+02  0.23259354454E+02  0.13707553295E+02  0.32132251709E+02  0.51100000000E-03 0. -1.
         12    1    3    3    0    0  0.82851404191E+00 -0.72179806981E+01 -0.29913308932E+01  0.78570822440E+01  0.00000000000E+00 0. -1.
</event>
<event>
 7    1  0.6489567E-013  0.5930198E+02  0.7816164E-02  0.1266605E+00
        -11   -1    0    0    0    0  0.00000000000E+00  0.00000000000E+00  0.45593999997E+02  0.45594000000E+02  0.51100000000E-03 0. -1.
         11   -1    0    0    0    0 -0.00000000000E+00 -0.00000000000E+00 -0.45593999997E+02  0.45594000000E+02  0.51100000000E-03 0.  1.
    9900012    2    1    2    0    0  0.21967400540E+02 -0.58751907672E+01  0.22352487276E+02  0.59301980486E+02  0.50000066490E+02 0.  0.
        -12    1    1    2    0    0 -0.21967400540E+02  0.58751907672E+01 -0.22352487276E+02  0.31886019514E+02  0.00000000000E+00 0.  1.
         11    1    3    3    0    0  0.47131658005E+00  0.66616368057E+01  0.28952502693E+02  0.29712740646E+02  0.51100000000E-03 0. -1.
        -11    1    3    3    0    0  0.21612069871E+01 -0.74278495396E+01  0.17271718061E+01  0.79263413460E+01  0.51100000000E-03 0.  1.
        -12    1    3    3    0    0  0.19334876973E+02 -0.51089780333E+01 -0.83271872227E+01  0.21662898494E+02  0.00000000000E+00 0.  1.
</event>
<event>
 7    1  0.6489567E-013  0.5930195E+02  0.7816164E-02  0.1266605E+00
        -11   -1    0    0    0    0  0.00000000000E+00  0.00000000000E+00  0.45593999997E+02  0.45594000000E+02  0.51100000000E-03 0. -1.
         11   -1    0    0    0    0 -0.00000000000E+00 -0.00000000000E+00 -0.45593999997E+02  0.45594000000E+02  0.51100000000E-03 0.  1.
    9900012    2    1    2    0    0 -0.13681849380E+02 -0.12344900619E+02 -0.26021739267E+02  0.59301945239E+02  0.50000002208E+02 0.  0.
        -12    1    1    2    0    0  0.13681849380E+02  0.12344900619E+02  0.26021739267E+02  0.31886054761E+02  0.00000000000E+00 0.  1.
         11    1    3    3    0    0  0.10052422872E+02  0.65364846144E+01 -0.20016626488E+02  0.23333284658E+02  0.51100000000E-03 0.  1.
        -11    1    3    3    0    0 -0.39276488319E+01 -0.10257279303E+02 -0.89471837114E+01  0.14166520415E+02  0.51100000000E-03 0. -1.
        -12    1    3    3    0    0 -0.19806623420E+02 -0.86241059311E+01  0.29420709325E+01  0.21802140165E+02  0.00000000000E+00 0.  1.
</event>
<event>
 7    1  0.6489567E-013  0.5930194E+02  0.7816164E-02  0.1266605E+00
        -11   -1    0    0    0    0  0.00000000000E+00  0.00000000000E+00  0.45593999997E+02  0.45594000000E+02  0.51100000000E-03 0. -1.
         11   -1    0    0    0    0 -0.00000000000E+00 -0.00000000000E+00 -0.45593999997E+02  0.45594000000E+02  0.51100000000E-03 0.  1.
    9900012    2    1    2    0    0 -0.14840156428E+02  0.68374136031E+01  0.27381384442E+02  0.59301942208E+02  0.49999996681E+02 0.  0.
        -12    1    1    2    0    0  0.14840156428E+02 -0.68374136031E+01 -0.27381384442E+02  0.31886057792E+02  0.00000000000E+00 0.  1.
         11    1    3    3    0    0 -0.18859857481E+02  0.11802334935E+01  0.26738428816E+02  0.32741880690E+02  0.51100000000E-03 0. -1.
        -11    1    3    3    0    0  0.83934068835E+01 -0.73669030343E+01  0.48730996290E+01  0.12184729775E+02  0.51100000000E-03 0.  1.
         12    1    3    3    0    0 -0.43737058301E+01  0.13024083144E+02 -0.42301440031E+01  0.14375331743E+02  0.00000000000E+00 0. -1.
</event>
<event>
 7    1  0.6489567E-013  0.5930206E+02  0.7816164E-02  0.1266604E+00
        -11   -1    0    0    0    0  0.00000000000E+00  0.00000000000E+00  0.45593999997E+02  0.45594000000E+02  0.51100000000E-03 0.  1.
         11   -1    0    0    0    0 -0.00000000000E+00 -0.00000000000E+00 -0.45593999997E+02  0.45594000000E+02  0.51100000000E-03 0. -1.
    9900012    2    1    2    0    0 -0.66687060063E+01 -0.27444251713E+02 -0.14800482645E+02  0.59302064568E+02  0.50000219836E+02 0.  0.
        -12    1    1    2    0    0  0.66687060063E+01  0.27444251713E+02  0.14800482645E+02  0.31885935432E+02  0.00000000000E+00 0.  1.
         11    1    3    3    0    0 -0.29764939525E+01 -0.12093754078E+02  0.11863467676E+02  0.17200589220E+02  0.51100000000E-03 0. -1.
        -11    1    3    3    0    0 -0.13550976712E+02  0.15088367563E+00 -0.15566212237E+02  0.20638766906E+02  0.51100000000E-03 0.  1.
        -12    1    3    3    0    0  0.98587646580E+01 -0.15501381310E+02 -0.11097738084E+02  0.21462708443E+02  0.00000000000E+00 0.  1.
</event>
<event>
 7    1  0.6489567E-013  0.5930191E+02  0.7816164E-02  0.1266605E+00
        -11   -1    0    0    0    0  0.00000000000E+00  0.00000000000E+00  0.45593999997E+02  0.45594000000E+02  0.51100000000E-03 0. -1.
         11   -1    0    0    0    0 -0.00000000000E+00 -0.00000000000E+00 -0.45593999997E+02  0.45594000000E+02  0.51100000000E-03 0.  1.
    9900012    2    1    2    0    0 -0.24098052157E+02  0.14595540022E+02  0.14932416495E+02  0.59301906343E+02  0.49999931272E+02 0.  0.
        -12    1    1    2    0    0  0.24098052157E+02 -0.14595540022E+02 -0.14932416495E+02  0.31886093657E+02  0.00000000000E+00 0.  1.
         11    1    3    3    0    0 -0.11270944820E+02 -0.50217801056E+01  0.77486166181E+01  0.14570296233E+02  0.51100000000E-03 0. -1.
        -11    1    3    3    0    0 -0.18968221635E+02  0.26618604745E+01 -0.83835535210E+01  0.20908440953E+02  0.51100000000E-03 0.  1.
         12    1    3    3    0    0  0.61411142976E+01  0.16955459653E+02  0.15567353398E+02  0.23823169157E+02  0.00000000000E+00 0. -1.
</event>
<event>
 7    1  0.6489567E-013  0.5930194E+02  0.7816164E-02  0.1266605E+00
        -11   -1    0    0    0    0  0.00000000000E+00  0.00000000000E+00  0.45593999997E+02  0.45594000000E+02  0.51100000000E-03 0.  1.
         11   -1    0    0    0    0 -0.00000000000E+00 -0.00000000000E+00 -0.45593999997E+02  0.45594000000E+02  0.51100000000E-03 0. -1.
    9900012    2    1    2    0    0  0.29067953813E+01  0.30642770321E+02  0.83241836143E+01  0.59301939328E+02  0.49999991429E+02 0.  0.
        -12    1    1    2    0    0 -0.29067953813E+01 -0.30642770321E+02 -0.83241836143E+01  0.31886060672E+02  0.00000000000E+00 0.  1.
         11    1    3    3    0    0  0.92001973493E+01  0.13528129912E+02 -0.35702198982E+01  0.16745160512E+02  0.51100000000E-03 0. -1.
        -11    1    3    3    0    0  0.10213611649E+02  0.19568984611E+02  0.13363116533E+02  0.25803796337E+02  0.51100000000E-03 0.  1.
        -12    1    3    3    0    0 -0.16507013617E+02 -0.24543442027E+01 -0.14687130208E+01  0.16752982479E+02  0.00000000000E+00 0.  1.
</event>
<event>
 7    1  0.6489567E-013  0.5930199E+02  0.7816164E-02  0.1266605E+00
        -11   -1    0    0    0    0  0.00000000000E+00  0.00000000000E+00  0.45593999997E+02  0.45594000000E+02  0.51100000000E-03 0. -1.
         11   -1    0    0    0    0 -0.00000000000E+00 -0.00000000000E+00 -0.45593999997E+02  0.45594000000E+02  0.51100000000E-03 0.  1.
    9900012    2    1    2    0    0  0.17490299754E+00  0.65318803463E+01  0.31209322617E+02  0.59301986293E+02  0.50000077081E+02 0.  0.
        -12    1    1    2    0    0 -0.17490299754E+00 -0.65318803463E+01 -0.31209322617E+02  0.31886013707E+02  0.00000000000E+00 0.  1.
         11    1    3    3    0    0 -0.41955489336E+00  0.11685777310E+02 -0.59609482174E+00  0.11708490378E+02  0.51100000000E-03 0. -1.
        -11    1    3    3    0    0  0.62328003802E+01  0.78781499261E-01 -0.62152600747E+01  0.88024692650E+01  0.51100000000E-03 0.  1.
         12    1    3    3    0    0 -0.56383424893E+01 -0.52326784626E+01  0.38020677514E+02  0.38791026649E+02  0.00000000000E+00 0. -1.
</event>
<event>
 7    1  0.6489567E-013  0.5930193E+02  0.7816164E-02  0.1266605E+00
        -11   -1    0    0    0    0  0.00000000000E+00  0.00000000000E+00  0.45593999997E+02  0.45594000000E+02  0.51100000000E-03 0.  1.
         11   -1    0    0    0    0 -0.00000000000E+00 -0.00000000000E+00 -0.45593999997E+02  0.45594000000E+02  0.51100000000E-03 0. -1.
    9900012    2    1    2    0    0 -0.13465180835E+02 -0.28637957465E+02 -0.39086972912E+01  0.59301927536E+02  0.49999969923E+02 0.  0.
        -12    1    1    2    0    0  0.13465180835E+02  0.28637957465E+02  0.39086972912E+01  0.31886072464E+02  0.00000000000E+00 0.  1.
         11    1    3    3    0    0 -0.80202406656E+01 -0.80418215331E+01 -0.21373685560E+02  0.24203916802E+02  0.51100000000E-03 0. -1.
        -11    1    3    3    0    0  0.55607190321E+01  0.67967491395E+00  0.26453078449E+00  0.56083447593E+01  0.51100000000E-03 0.  1.
         12    1    3    3    0    0 -0.11005659202E+02 -0.21275810846E+02  0.17200457484E+02  0.29489665974E+02  0.00000000000E+00 0. -1.
</event>
<event>
 7    1  0.6489567E-013  0.5930193E+02  0.7816164E-02  0.1266605E+00
        -11   -1    0    0    0    0  0.00000000000E+00  0.00000000000E+00  0.45593999997E+02  0.45594000000E+02  0.51100000000E-03 0. -1.
         11   -1    0    0    0    0 -0.00000000000E+00 -0.00000000000E+00 -0.45593999997E+02  0.45594000000E+02  0.51100000000E-03 0.  1.
    9900012    2    1    2    0    0 -0.24324082830E+02  0.34819628032E+01  0.20320843715E+02  0.59301925300E+02  0.49999965845E+02 0.  0.
        -12    1    1    2    0    0  0.24324082830E+02 -0.34819628032E+01 -0.20320843715E+02  0.31886074700E+02  0.00000000000E+00 0.  1.
         11    1    3    3    0    0  0.81450889762E+01  0.28104689905E+01  0.42480918776E+01  0.96066380819E+01  0.51100000000E-03 0. -1.
        -11    1    3    3    0    0 -0.18473413329E+02 -0.10769614373E+02  0.21991701361E+02  0.30673873619E+02  0.51100000000E-03 0.  1.
        -12    1    3    3    0    0 -0.13995758477E+02  0.11441108186E+02 -0.59189495234E+01  0.19021413599E+02  0.00000000000E+00 0.  1.
</event>
<event>
 7    1  0.6489567E-013  0.5930196E+02  0.7816164E-02  0.1266605E+00
        -11   -1    0    0    0    0  0.00000000000E+00  0.00000000000E+00  0.45593999997E+02  0.45594000000E+02  0.51100000000E-03 0. -1.
         11   -1    0    0    0    0 -0.00000000000E+00 -0.00000000000E+00 -0.45593999997E+02  0.45594000000E+02  0.51100000000E-03 0.  1.
    9900012    2    1    2    0    0  0.26600293507E+02  0.13041724899E+02 -0.11792269309E+02  0.59301955742E+02  0.50000021363E+02 0.  0.
        -12    1    1    2    0    0 -0.26600293507E+02 -0.13041724899E+02  0.11792269309E+02  0.31886044258E+02  0.00000000000E+00 0.  1.
         11    1    3    3    0    0  0.19831474522E+02  0.11631630528E+02 -0.11028288050E+02  0.25499124456E+02  0.51100000000E-03 0. -1.
        -11    1    3    3    0    0  0.80971308037E+01 -0.16284011104E+01 -0.16109362935E+02  0.18103226007E+02  0.51100000000E-03 0.  1.
        -12    1    3    3    0    0 -0.13283118191E+01  0.30384954818E+01  0.15345381677E+02  0.15699605278E+02  0.00000000000E+00 0.  1.
</event>
<event>
 7    1  0.6489567E-013  0.5930197E+02  0.7816164E-02  0.1266605E+00
        -11   -1    0    0    0    0  0.00000000000E+00  0.00000000000E+00  0.45593999997E+02  0.45594000000E+02  0.51100000000E-03 0. -1.
         11   -1    0    0    0    0 -0.00000000000E+00 -0.00000000000E+00 -0.45593999997E+02  0.45594000000E+02  0.51100000000E-03 0.  1.
    9900012    2    1    2    0    0 -0.22377233021E+02 -0.92131312744E+01  0.20762867249E+02  0.59301968544E+02  0.50000044712E+02 0.  0.
        -12    1    1    2    0    0  0.22377233021E+02  0.92131312744E+01 -0.20762867249E+02  0.31886031456E+02  0.00000000000E+00 0.  1.
         11    1    3    3    0    0  0.26051073519E+01  0.44531582805E+01  0.19783669608E+01  0.55254989891E+01  0.51100000000E-03 0. -1.
        -11    1    3    3    0    0 -0.66272836861E+01  0.80658141676E+01 -0.91690439047E+01  0.13894229508E+02  0.51100000000E-03 0.  1.
        -12    1    3    3    0    0 -0.18355056687E+02 -0.21732103722E+02  0.27953544193E+02  0.39882240047E+02  0.00000000000E+00 0.  1.
</event>
<event>
 7    1  0.6489567E-013  0.5930201E+02  0.7816164E-02  0.1266605E+00
        -11   -1    0    0    0    0  0.00000000000E+00  0.00000000000E+00  0.45593999997E+02  0.45594000000E+02  0.51100000000E-03 0. -1.
         11   -1    0    0    0    0 -0.00000000000E+00 -0.00000000000E+00 -0.45593999997E+02  0.45594000000E+02  0.51100000000E-03 0.  1.
    9900012    2    1    2    0    0 -0.24187314376E+02  0.18015521689E+02  0.10350417251E+02  0.59302010354E+02  0.50000120963E+02 0.  0.
        -12    1    1    2    0    0  0.24187314376E+02 -0.18015521689E+02 -0.10350417251E+02  0.31885989646E+02  0.00000000000E+00 0.  1.
         11    1    3    3    0    0 -0.52078065955E+01  0.45065511589E+01 -0.30796545607E+01  0.75441716152E+01  0.51100000000E-03 0. -1.
        -11    1    3    3    0    0 -0.19839323012E+02 -0.12575915625E+02  0.31181276439E+01  0.23695466057E+02  0.51100000000E-03 0.  1.
         12    1    3    3    0    0  0.85981523231E+00  0.26084886156E+02  0.10311944168E+02  0.28062372681E+02  0.00000000000E+00 0. -1.
</event>
<event>
 7    1  0.6489567E-013  0.5930227E+02  0.7816164E-02  0.1266604E+00
        -11   -1    0    0    0    0  0.00000000000E+00  0.00000000000E+00  0.45593999997E+02  0.45594000000E+02  0.51100000000E-03 0.  1.
         11   -1    0    0    0    0 -0.00000000000E+00 -0.00000000000E+00 -0.45593999997E+02  0.45594000000E+02  0.51100000000E-03 0. -1.
    9900012    2    1    2    0    0 -0.25433121173E+02  0.13847043421E+02 -0.13345983371E+02  0.59302273785E+02  0.50000601395E+02 0.  0.
        -12    1    1    2    0    0  0.25433121173E+02 -0.13847043421E+02  0.13345983371E+02  0.31885726215E+02  0.00000000000E+00 0.  1.
         11    1    3    3    0    0 -0.32687753799E+01  0.15843732142E+02 -0.17899127913E+02  0.24126490026E+02  0.51100000000E-03 0. -1.
        -11    1    3    3    0    0 -0.34657128645E+01  0.11328720999E+02  0.26226933924E+01  0.12133820752E+02  0.51100000000E-03 0.  1.
        -12    1    3    3    0    0 -0.18698632929E+02 -0.13325409720E+02  0.19304511490E+01  0.23041963008E+02  0.00000000000E+00 0.  1.
</event>
<event>
 7    1  0.6489567E-013  0.5930193E+02  0.7816164E-02  0.1266605E+00
        -11   -1    0    0    0    0  0.00000000000E+00  0.00000000000E+00  0.45593999997E+02  0.45594000000E+02  0.51100000000E-03 0.  1.
         11   -1    0    0    0    0 -0.00000000000E+00 -0.00000000000E+00 -0.45593999997E+02  0.45594000000E+02  0.51100000000E-03 0. -1.
    9900012    2    1    2    0    0 -0.29463410883E+02  0.93629362251E+01 -0.78079508551E+01  0.59301933259E+02  0.49999980361E+02 0.  0.
        -12    1    1    2    0    0  0.29463410883E+02 -0.93629362251E+01  0.78079508551E+01  0.31886066741E+02  0.00000000000E+00 0.  1.
         11    1    3    3    0    0 -0.15902461107E+01 -0.15333643086E+01  0.49904623975E+01  0.54575456020E+01  0.51100000000E-03 0. -1.
        -11    1    3    3    0    0 -0.31997895000E+02  0.31335532655E+01  0.63523295387E+01  0.32772496569E+02  0.51100000000E-03 0.  1.
         12    1    3    3    0    0  0.41247302276E+01  0.77627472682E+01 -0.19150742791E+02  0.21071891089E+02  0.00000000000E+00 0. -1.
</event>
<event>
 7    1  0.6489567E-013  0.5930195E+02  0.7816164E-02  0.1266605E+00
        -11   -1    0    0    0    0  0.00000000000E+00  0.00000000000E+00  0.45593999997E+02  0.45594000000E+02  0.51100000000E-03 0.  1.
         11   -1    0    0    0    0 -0.00000000000E+00 -0.00000000000E+00 -0.45593999997E+02  0.45594000000E+02  0.51100000000E-03 0. -1.
    9900012    2    1    2    0    0 -0.89809440988E+01  0.85348737024E+01 -0.29380588080E+02  0.59301946905E+02  0.50000005248E+02 0.  0.
        -12    1    1    2    0    0  0.89809440988E+01 -0.85348737024E+01  0.29380588080E+02  0.31886053095E+02  0.00000000000E+00 0.  1.
         11    1    3    3    0    0  0.20133922843E+01  0.11401662522E+02  0.39626437410E+01  0.12237409956E+02  0.51100000000E-03 0. -1.
        -11    1    3    3    0    0 -0.17758192786E+02 -0.49425374166E+00 -0.59284240757E+01  0.18728158214E+02  0.51100000000E-03 0.  1.
         12    1    3    3    0    0  0.67638564033E+01 -0.23725350775E+01 -0.27414807745E+02  0.28336378736E+02  0.00000000000E+00 0. -1.
</event>
<event>
 7    1  0.6489567E-013  0.5930216E+02  0.7816164E-02  0.1266604E+00
        -11   -1    0    0    0    0  0.00000000000E+00  0.00000000000E+00  0.45593999997E+02  0.45594000000E+02  0.51100000000E-03 0.  1.
         11   -1    0    0    0    0 -0.00000000000E+00 -0.00000000000E+00 -0.45593999997E+02  0.45594000000E+02  0.51100000000E-03 0. -1.
    9900012    2    1    2    0    0 -0.20290504808E+02  0.10714230992E+02 -0.22140625728E+02  0.59302162411E+02  0.50000398278E+02 0.  0.
        -12    1    1    2    0    0  0.20290504808E+02 -0.10714230992E+02  0.22140625728E+02  0.31885837589E+02  0.00000000000E+00 0.  1.
         11    1    3    3    0    0 -0.12321163025E+02 -0.86897502016E+01 -0.35330321198E+01  0.15485642804E+02  0.51100000000E-03 0. -1.
        -11    1    3    3    0    0  0.39214803268E+01 -0.83442976885E+01 -0.22898043134E+01  0.94999218903E+01  0.51100000000E-03 0.  1.
         12    1    3    3    0    0 -0.11890822110E+02  0.27748278882E+02 -0.16317789295E+02  0.34316597716E+02  0.00000000000E+00 0. -1.
</event>
<event>
 7    1  0.6489567E-013  0.5930192E+02  0.7816164E-02  0.1266605E+00
        -11   -1    0    0    0    0  0.00000000000E+00  0.00000000000E+00  0.45593999997E+02  0.45594000000E+02  0.51100000000E-03 0.  1.
         11   -1    0    0    0    0 -0.00000000000E+00 -0.00000000000E+00 -0.45593999997E+02  0.45594000000E+02  0.51100000000E-03 0. -1.
    9900012    2    1    2    0    0  0.19008073566E+02 -0.23336044362E+02  0.10528270106E+02  0.59301916851E+02  0.49999950436E+02 0.  0.
        -12    1    1    2    0    0 -0.19008073566E+02  0.23336044362E+02 -0.10528270106E+02  0.31886083149E+02  0.00000000000E+00 0.  1.
         11    1    3    3    0    0  0.38609460349E+01 -0.94479539109E+00 -0.11404546839E+01  0.41352363612E+01  0.51100000000E-03 0. -1.
        -11    1    3    3    0    0 -0.10052064007E+02 -0.10218313948E+02 -0.11860341454E+02  0.18604451898E+02  0.51100000000E-03 0.  1.
         12    1    3    3    0    0  0.25199191539E+02 -0.12172935023E+02  0.23529066244E+02  0.36562228592E+02  0.00000000000E+00 0. -1.
</event>
<event>
 7    1  0.6489567E-013  0.5930194E+02  0.7816164E-02  0.1266605E+00
        -11   -1    0    0    0    0  0.00000000000E+00  0.00000000000E+00  0.45593999997E+02  0.45594000000E+02  0.51100000000E-03 0.  1.
         11   -1    0    0    0    0 -0.00000000000E+00 -0.00000000000E+00 -0.45593999997E+02  0.45594000000E+02  0.51100000000E-03 0. -1.
    9900012    2    1    2    0    0  0.97630062257E+01 -0.51725420311E+01 -0.29910689822E+02  0.59301939609E+02  0.49999991942E+02 0.  0.
        -12    1    1    2    0    0 -0.97630062257E+01  0.51725420311E+01  0.29910689822E+02  0.31886060391E+02  0.00000000000E+00 0.  1.
         11    1    3    3    0    0  0.15211216451E+02  0.47911854498E+01 -0.88714366034E+00  0.15972588646E+02  0.51100000000E-03 0. -1.
        -11    1    3    3    0    0  0.31089881159E+01 -0.16148998675E+02 -0.51628639282E+01  0.17236911832E+02  0.51100000000E-03 0.  1.
        -12    1    3    3    0    0 -0.85571983408E+01  0.61852711937E+01 -0.23860682233E+02  0.26092439131E+02  0.00000000000E+00 0.  1.
</event>
<event>
 7    1  0.6489567E-013  0.5930195E+02  0.7816164E-02  0.1266605E+00
        -11   -1    0    0    0    0  0.00000000000E+00  0.00000000000E+00  0.45593999997E+02  0.45594000000E+02  0.51100000000E-03 0. -1.
         11   -1    0    0    0    0 -0.00000000000E+00 -0.00000000000E+00 -0.45593999997E+02  0.45594000000E+02  0.51100000000E-03 0.  1.
    9900012    2    1    2    0    0  0.80524555126E+01  0.71912003792E+01  0.30002747664E+02  0.59301948660E+02  0.50000008448E+02 0.  0.
        -12    1    1    2    0    0 -0.80524555126E+01 -0.71912003792E+01 -0.30002747664E+02  0.31886051340E+02  0.00000000000E+00 0.  1.
         11    1    3    3    0    0  0.15673171052E+02 -0.12983677475E+02  0.24141379094E+02  0.31575787503E+02  0.51100000000E-03 0. -1.
        -11    1    3    3    0    0 -0.64395416421E+01 -0.42346801466E+00  0.17763528170E+01  0.66934633271E+01  0.51100000000E-03 0.  1.
        -12    1    3    3    0    0 -0.11811738972E+01  0.20598345869E+02  0.40850157527E+01  0.21032697830E+02  0.00000000000E+00 0.  1.
</event>
<event>
 7    1  0.6489567E-013  0.5930195E+02  0.7816164E-02  0.1266605E+00
        -11   -1    0    0    0    0  0.00000000000E+00  0.00000000000E+00  0.45593999997E+02  0.45594000000E+02  0.51100000000E-03 0.  1.
         11   -1    0    0    0    0 -0.00000000000E+00 -0.00000000000E+00 -0.45593999997E+02  0.45594000000E+02  0.51100000000E-03 0. -1.
    9900012    2    1    2    0    0  0.28575805826E+02 -0.64636539394E+01 -0.12584310709E+02  0.59301946985E+02  0.50000005394E+02 0.  0.
        -12    1    1    2    0    0 -0.28575805826E+02  0.64636539394E+01  0.12584310709E+02  0.31886053015E+02  0.00000000000E+00 0.  1.
         11    1    3    3    0    0  0.81852595153E+01 -0.14357822515E+02 -0.40620561288E+00  0.16532106459E+02  0.51100000000E-03 0. -1.
        -11    1    3    3    0    0  0.26216620957E+02 -0.50034637284E+01 -0.61628776962E+01  0.27392096039E+02  0.51100000000E-03 0.  1.
        -12    1    3    3    0    0 -0.58260746461E+01  0.12897632304E+02 -0.60152273998E+01  0.15377744487E+02  0.00000000000E+00 0.  1.
</event>
<event>
 7    1  0.6489567E-013  0.5930201E+02  0.7816164E-02  0.1266605E+00
        -11   -1    0    0    0    0  0.00000000000E+00  0.00000000000E+00  0.45593999997E+02  0.45594000000E+02  0.51100000000E-03 0. -1.
         11   -1    0    0    0    0 -0.00000000000E+00 -0.00000000000E+00 -0.45593999997E+02  0.45594000000E+02  0.51100000000E-03 0.  1.
    9900012    2    1    2    0    0  0.21211554013E+02  0.13125380612E+02  0.19862286075E+02  0.59302014865E+02  0.50000129191E+02 0.  0.
        -12    1    1    2    0    0 -0.21211554013E+02 -0.13125380612E+02 -0.19862286075E+02  0.31885985135E+02  0.00000000000E+00 0.  1.
         11    1    3    3    0    0  0.25657949164E+02  0.23735932147E+01  0.15226796130E+02  0.29930245918E+02  0.51100000000E-03 0. -1.
        -11    1    3    3    0    0  0.88550001411E+00 -0.83732542643E+01  0.44346244854E+01  0.95163749315E+01  0.51100000000E-03 0.  1.
         12    1    3    3    0    0 -0.53318951650E+01  0.19125041661E+02  0.20086546027E+00  0.19855394016E+02  0.00000000000E+00 0. -1.
</event>
<event>
 7    1  0.6489567E-013  0.5930194E+02  0.7816164E-02  0.1266605E+00
        -11   -1    0    0    0    0  0.00000000000E+00  0.00000000000E+00  0.45593999997E+02  0.45594000000E+02  0.51100000000E-03 0. -1.
         11   -1    0    0    0    0 -0.00000000000E+00 -0.00000000000E+00 -0.45593999997E+02  0.45594000000E+02  0.51100000000E-03 0.  1.
    9900012    2    1    2    0    0 -0.27213323898E+02  0.85859035463E+01  0.14228065811E+02  0.59301943580E+02  0.49999999183E+02 0.  0.
        -12    1    1    2    0    0  0.27213323898E+02 -0.85859035463E+01 -0.14228065811E+02  0.31886056420E+02  0.00000000000E+00 0.  1.
         11    1    3    3    0    0 -0.75720945412E+01  0.19165386948E+02 -0.24158685932E+01  0.20748134710E+02  0.51100000000E-03 0. -1.
        -11    1    3    3    0    0 -0.15338701272E+02 -0.38417374625E+01 -0.40893326532E+01  0.16332707836E+02  0.51100000000E-03 0.  1.
         12    1    3    3    0    0 -0.43025280849E+01 -0.67377459396E+01  0.20733267058E+02  0.22221101034E+02  0.00000000000E+00 0. -1.
</event>
<event>
 7    1  0.6489567E-013  0.5930196E+02  0.7816164E-02  0.1266605E+00
        -11   -1    0    0    0    0  0.00000000000E+00  0.00000000000E+00  0.45593999997E+02  0.45594000000E+02  0.51100000000E-03 0. -1.
         11   -1    0    0    0    0 -0.00000000000E+00 -0.00000000000E+00 -0.45593999997E+02  0.45594000000E+02  0.51100000000E-03 0.  1.
    9900012    2    1    2    0    0 -0.21198151653E+02  0.11999826268E+02  0.20575766612E+02  0.59301958608E+02  0.50000026591E+02 0.  0.
        -12    1    1    2    0    0  0.21198151653E+02 -0.11999826268E+02 -0.20575766612E+02  0.31886041392E+02  0.00000000000E+00 0.  1.
         11    1    3    3    0    0  0.42177784961E+01  0.40676228563E+01  0.11891000045E+02  0.13256360491E+02  0.51100000000E-03 0. -1.
        -11    1    3    3    0    0 -0.34346631184E+01  0.18987749965E+02 -0.16331454217E+01  0.19364883777E+02  0.51100000000E-03 0.  1.
        -12    1    3    3    0    0 -0.21981267031E+02 -0.11055546554E+02  0.10317911989E+02  0.26680714340E+02  0.00000000000E+00 0.  1.
</event>
<event>
 7    1  0.6489567E-013  0.5930187E+02  0.7816164E-02  0.1266605E+00
        -11   -1    0    0    0    0  0.00000000000E+00  0.00000000000E+00  0.45593999997E+02  0.45594000000E+02  0.51100000000E-03 0.  1.
         11   -1    0    0    0    0 -0.00000000000E+00 -0.00000000000E+00 -0.45593999997E+02  0.45594000000E+02  0.51100000000E-03 0. -1.
    9900012    2    1    2    0    0 -0.27052500653E+02  0.13905201556E+02 -0.95672673051E+01  0.59301874090E+02  0.49999872450E+02 0.  0.
        -12    1    1    2    0    0  0.27052500653E+02 -0.13905201556E+02  0.95672673051E+01  0.31886125910E+02  0.00000000000E+00 0.  1.
         11    1    3    3    0    0 -0.11245554218E+02  0.67342838440E+01 -0.23624099307E+02  0.27016867637E+02  0.51100000000E-03 0. -1.
        -11    1    3    3    0    0  0.37563519007E+01  0.18895364220E+01 -0.35020077734E+01  0.54721646721E+01  0.51100000000E-03 0.  1.
         12    1    3    3    0    0 -0.19563298336E+02  0.52813812901E+01  0.17558839776E+02  0.26812841781E+02  0.00000000000E+00 0. -1.
</event>
<event>
 7    1  0.6489567E-013  0.5930198E+02  0.7816164E-02  0.1266605E+00
        -11   -1    0    0    0    0  0.00000000000E+00  0.00000000000E+00  0.45593999997E+02  0.45594000000E+02  0.51100000000E-03 0.  1.
         11   -1    0    0    0    0 -0.00000000000E+00 -0.00000000000E+00 -0.45593999997E+02  0.45594000000E+02  0.51100000000E-03 0. -1.
    9900012    2    1    2    0    0  0.12925160137E+02 -0.28904382551E+02 -0.37676825054E+01  0.59301975998E+02  0.50000058306E+02 0.  0.
        -12    1    1    2    0    0 -0.12925160137E+02  0.28904382551E+02  0.37676825054E+01  0.31886024002E+02  0.00000000000E+00 0.  1.
         11    1    3    3    0    0  0.16763668847E+02 -0.78708796256E+01 -0.36725743665E+01  0.18880125583E+02  0.51100000000E-03 0. -1.
        -11    1    3    3    0    0  0.12290578365E+02 -0.20118047522E+02 -0.37150420797E+01  0.23866203941E+02  0.51100000000E-03 0.  1.
        -12    1    3    3    0    0 -0.16129087074E+02 -0.91545540307E+00  0.36199339408E+01  0.16555646474E+02  0.00000000000E+00 0.  1.
</event>
<event>
 7    1  0.6489567E-013  0.5930194E+02  0.7816164E-02  0.1266605E+00
        -11   -1    0    0    0    0  0.00000000000E+00  0.00000000000E+00  0.45593999997E+02  0.45594000000E+02  0.51100000000E-03 0.  1.
         11   -1    0    0    0    0 -0.00000000000E+00 -0.00000000000E+00 -0.45593999997E+02  0.45594000000E+02  0.51100000000E-03 0. -1.
    9900012    2    1    2    0    0  0.30333525894E+02  0.98041819937E+01 -0.68985238534E+00  0.59301942325E+02  0.49999996895E+02 0.  0.
        -12    1    1    2    0    0 -0.30333525894E+02 -0.98041819937E+01  0.68985238534E+00  0.31886057675E+02  0.00000000000E+00 0.  1.
         11    1    3    3    0    0  0.12522498820E+02 -0.94522270021E+01  0.80599926758E+01  0.17638623931E+02  0.51100000000E-03 0. -1.
        -11    1    3    3    0    0 -0.19157911225E+01  0.98790650862E+01  0.90136825659E+01  0.13509724507E+02  0.51100000000E-03 0.  1.
         12    1    3    3    0    0  0.19726818196E+02  0.93773439096E+01 -0.17763527627E+02  0.28153593886E+02  0.00000000000E+00 0. -1.
</event>
<event>
 7    1  0.6489567E-013  0.5930196E+02  0.7816164E-02  0.1266605E+00
        -11   -1    0    0    0    0  0.00000000000E+00  0.00000000000E+00  0.45593999997E+02  0.45594000000E+02  0.51100000000E-03 0. -1.
         11   -1    0    0    0    0 -0.00000000000E+00 -0.00000000000E+00 -0.45593999997E+02  0.45594000000E+02  0.51100000000E-03 0.  1.
    9900012    2    1    2    0    0 -0.30594740464E+02  0.14882178398E+01  0.88581519920E+01  0.59301956139E+02  0.50000022087E+02 0.  0.
        -12    1    1    2    0    0  0.30594740464E+02 -0.14882178398E+01 -0.88581519920E+01  0.31886043861E+02  0.00000000000E+00 0.  1.
         11    1    3    3    0    0 -0.27814695795E+02 -0.91586871335E+01  0.21331509211E+02  0.36229437445E+02  0.51100000000E-03 0. -1.
        -11    1    3    3    0    0 -0.55713517265E+01  0.13115290265E+02 -0.57108128367E+01  0.15351357670E+02  0.51100000000E-03 0.  1.
        -12    1    3    3    0    0  0.27913070568E+01 -0.24683852916E+01 -0.67625443818E+01  0.77211610234E+01  0.00000000000E+00 0.  1.
</event>
<event>
 7    1  0.6489567E-013  0.5930192E+02  0.7816164E-02  0.1266605E+00
        -11   -1    0    0    0    0  0.00000000000E+00  0.00000000000E+00  0.45593999997E+02  0.45594000000E+02  0.51100000000E-03 0. -1.
         11   -1    0    0    0    0 -0.00000000000E+00 -0.00000000000E+00 -0.45593999997E+02  0.45594000000E+02  0.51100000000E-03 0.  1.
    9900012    2    1    2    0    0 -0.30695178288E+02  0.73911532550E+01  0.44608319536E+01  0.59301919365E+02  0.49999955020E+02 0.  0.
        -12    1    1    2    0    0  0.30695178288E+02 -0.73911532550E+01 -0.44608319536E+01  0.31886080635E+02  0.00000000000E+00 0.  1.
         11    1    3    3    0    0 -0.71243544966E-02 -0.34412644661E+01 -0.12403230511E+02  0.12871770634E+02  0.51100000000E-03 0. -1.
        -11    1    3    3    0    0  0.37874415459E+01  0.73603944633E+01  0.56053918434E+01  0.99970264628E+01  0.51100000000E-03 0.  1.
         12    1    3    3    0    0 -0.34475495479E+02  0.34720232578E+01  0.11258670621E+02  0.36433122268E+02  0.00000000000E+00 0. -1.
</event>
<event>
 7    1  0.6489567E-013  0.5930168E+02  0.7816164E-02  0.1266606E+00
        -11   -1    0    0    0    0  0.00000000000E+00  0.00000000000E+00  0.45593999997E+02  0.45594000000E+02  0.51100000000E-03 0.  1.
         11   -1    0    0    0    0 -0.00000000000E+00 -0.00000000000E+00 -0.45593999997E+02  0.45594000000E+02  0.51100000000E-03 0. -1.
    9900012    2    1    2    0    0 -0.20828461309E+02  0.10035996968E+02 -0.21958854342E+02  0.59301681309E+02  0.49999520862E+02 0.  0.
        -12    1    1    2    0    0  0.20828461309E+02 -0.10035996968E+02  0.21958854342E+02  0.31886318691E+02  0.00000000000E+00 0.  1.
         11    1    3    3    0    0 -0.24348566721E+02  0.13257000354E+02 -0.26516531930E+02  0.38363097185E+02  0.51100000000E-03 0.  1.
        -11    1    3    3    0    0  0.72092613521E+01  0.57024259028E+01 -0.18148801808E+01  0.93693596768E+01  0.51100000000E-03 0. -1.
        -12    1    3    3    0    0 -0.36891559398E+01 -0.89234292883E+01  0.63725577685E+01  0.11569224448E+02  0.00000000000E+00 0.  1.
</event>
<event>
 7    1  0.6489567E-013  0.5930197E+02  0.7816164E-02  0.1266605E+00
        -11   -1    0    0    0    0  0.00000000000E+00  0.00000000000E+00  0.45593999997E+02  0.45594000000E+02  0.51100000000E-03 0.  1.
         11   -1    0    0    0    0 -0.00000000000E+00 -0.00000000000E+00 -0.45593999997E+02  0.45594000000E+02  0.51100000000E-03 0. -1.
    9900012    2    1    2    0    0 -0.29754201261E+02  0.77284298449E+01  0.84662600844E+01  0.59301973588E+02  0.50000053911E+02 0.  0.
        -12    1    1    2    0    0  0.29754201261E+02 -0.77284298449E+01 -0.84662600844E+01  0.31886026412E+02  0.00000000000E+00 0.  1.
         11    1    3    3    0    0  0.10778306285E+02  0.46432170068E+01  0.85232046412E+01  0.14504356868E+02  0.51100000000E-03 0. -1.
        -11    1    3    3    0    0 -0.36835096477E+01  0.35169612458E+01  0.55380488664E+01  0.75237786541E+01  0.51100000000E-03 0.  1.
         12    1    3    3    0    0 -0.36848997898E+02 -0.43174840761E+00 -0.55949934232E+01  0.37273838066E+02  0.00000000000E+00 0. -1.
</event>
<event>
 7    1  0.6489567E-013  0.5930194E+02  0.7816164E-02  0.1266605E+00
        -11   -1    0    0    0    0  0.00000000000E+00  0.00000000000E+00  0.45593999997E+02  0.45594000000E+02  0.51100000000E-03 0. -1.
         11   -1    0    0    0    0 -0.00000000000E+00 -0.00000000000E+00 -0.45593999997E+02  0.45594000000E+02  0.51100000000E-03 0.  1.
    9900012    2    1    2    0    0 -0.38688229059E+01  0.29107573657E+02 -0.12429883873E+02  0.59301942734E+02  0.49999997641E+02 0.  0.
        -12    1    1    2    0    0  0.38688229059E+01 -0.29107573657E+02  0.12429883873E+02  0.31886057266E+02  0.00000000000E+00 0.  1.
         11    1    3    3    0    0 -0.11399538596E+02 -0.41218778929E+00  0.24373773321E+00  0.11409591899E+02  0.51100000000E-03 0. -1.
        -11    1    3    3    0    0  0.15587584239E+02  0.38177079108E-01 -0.51619228053E+01  0.16420100097E+02  0.51100000000E-03 0.  1.
         12    1    3    3    0    0 -0.80568685493E+01  0.29481584367E+02 -0.75116988005E+01  0.31472250737E+02  0.00000000000E+00 0. -1.
</event>
<event>
 7    1  0.6489567E-013  0.5930194E+02  0.7816164E-02  0.1266605E+00
        -11   -1    0    0    0    0  0.00000000000E+00  0.00000000000E+00  0.45593999997E+02  0.45594000000E+02  0.51100000000E-03 0.  1.
         11   -1    0    0    0    0 -0.00000000000E+00 -0.00000000000E+00 -0.45593999997E+02  0.45594000000E+02  0.51100000000E-03 0. -1.
    9900012    2    1    2    0    0  0.12014815295E+02 -0.58534853934E+01 -0.28949982617E+02  0.59301943936E+02  0.49999999832E+02 0.  0.
        -12    1    1    2    0    0 -0.12014815295E+02  0.58534853934E+01  0.28949982617E+02  0.31886056064E+02  0.00000000000E+00 0.  1.
         11    1    3    3    0    0 -0.10795495786E+01 -0.66009628044E+01 -0.18320422933E+02  0.19503231372E+02  0.51100000000E-03 0. -1.
        -11    1    3    3    0    0  0.20039715359E+01 -0.95510971835E+01 -0.19819875464E+02  0.22092234450E+02  0.51100000000E-03 0.  1.
        -12    1    3    3    0    0  0.11090393337E+02  0.10298574595E+02  0.91903157798E+01  0.17706478114E+02  0.00000000000E+00 0.  1.
</event>
<event>
 7    1  0.6489567E-013  0.5930195E+02  0.7816164E-02  0.1266605E+00
        -11   -1    0    0    0    0  0.00000000000E+00  0.00000000000E+00  0.45593999997E+02  0.45594000000E+02  0.51100000000E-03 0. -1.
         11   -1    0    0    0    0 -0.00000000000E+00 -0.00000000000E+00 -0.45593999997E+02  0.45594000000E+02  0.51100000000E-03 0.  1.
    9900012    2    1    2    0    0  0.20098073910E+02  0.24380187606E+02 -0.42888406700E+01  0.59301948553E+02  0.50000008253E+02 0.  0.
        -12    1    1    2    0    0 -0.20098073910E+02 -0.24380187606E+02  0.42888406700E+01  0.31886051447E+02  0.00000000000E+00 0.  1.
         11    1    3    3    0    0  0.57578797192E+01  0.21366473494E+02 -0.48585483114E+01  0.22655790879E+02  0.51100000000E-03 0.  1.
        -11    1    3    3    0    0 -0.64219881311E+01  0.10254562005E+02  0.66844762933E+01  0.13823176084E+02  0.51100000000E-03 0. -1.
         12    1    3    3    0    0  0.20762182322E+02 -0.72408478925E+01 -0.61147686518E+01  0.22822981590E+02  0.00000000000E+00 0. -1.
</event>
<event>
 7    1  0.6489567E-013  0.5930190E+02  0.7816164E-02  0.1266605E+00
        -11   -1    0    0    0    0  0.00000000000E+00  0.00000000000E+00  0.45593999997E+02  0.45594000000E+02  0.51100000000E-03 0.  1.
         11   -1    0    0    0    0 -0.00000000000E+00 -0.00000000000E+00 -0.45593999997E+02  0.45594000000E+02  0.51100000000E-03 0. -1.
    9900012    2    1    2    0    0  0.20403384529E+02 -0.10242456464E+02 -0.22260217330E+02  0.59301901302E+02  0.49999922078E+02 0.  0.
        -12    1    1    2    0    0 -0.20403384529E+02  0.10242456464E+02  0.22260217330E+02  0.31886098698E+02  0.00000000000E+00 0.  1.
         11    1    3    3    0    0  0.38600754302E+01  0.89447997568E+01 -0.16958044146E+02  0.19557220829E+02  0.51100000000E-03 0. -1.
        -11    1    3    3    0    0 -0.90657181946E+00 -0.39080887867E+01 -0.14311043329E+02  0.14862738370E+02  0.51100000000E-03 0.  1.
        -12    1    3    3    0    0  0.17449880918E+02 -0.15279167434E+02  0.90088701454E+01  0.24881942103E+02  0.00000000000E+00 0.  1.
</event>
<event>
 7    1  0.6489567E-013  0.5930172E+02  0.7816164E-02  0.1266606E+00
        -11   -1    0    0    0    0  0.00000000000E+00  0.00000000000E+00  0.45593999997E+02  0.45594000000E+02  0.51100000000E-03 0. -1.
         11   -1    0    0    0    0 -0.00000000000E+00 -0.00000000000E+00 -0.45593999997E+02  0.45594000000E+02  0.51100000000E-03 0.  1.
    9900012    2    1    2    0    0 -0.24298429875E+02 -0.16276660862E+02 -0.12703991596E+02  0.59301721044E+02  0.49999593329E+02 0.  0.
        -12    1    1    2    0    0  0.24298429875E+02  0.16276660862E+02  0.12703991596E+02  0.31886278956E+02  0.00000000000E+00 0.  1.
         11    1    3    3    0    0 -0.33951611763E+02  0.39975530740E+01 -0.89924537867E+01  0.35349067841E+02  0.51100000000E-03 0. -1.
        -11    1    3    3    0    0 -0.83003211160E+00 -0.31929696816E+01  0.83215938262E+00  0.34024253398E+01  0.51100000000E-03 0.  1.
        -12    1    3    3    0    0  0.10483213999E+02 -0.17081244254E+02 -0.45436971917E+01  0.20550227862E+02  0.00000000000E+00 0.  1.
</event>
<event>
 7    1  0.6489567E-013  0.5930194E+02  0.7816164E-02  0.1266605E+00
        -11   -1    0    0    0    0  0.00000000000E+00  0.00000000000E+00  0.45593999997E+02  0.45594000000E+02  0.51100000000E-03 0.  1.
         11   -1    0    0    0    0 -0.00000000000E+00 -0.00000000000E+00 -0.45593999997E+02  0.45594000000E+02  0.51100000000E-03 0. -1.
    9900012    2    1    2    0    0 -0.94225981999E+01  0.20884621973E+02 -0.22175846245E+02  0.59301938022E+02  0.49999989047E+02 0.  0.
        -12    1    1    2    0    0  0.94225981999E+01 -0.20884621973E+02  0.22175846245E+02  0.31886061978E+02  0.00000000000E+00 0.  1.
         11    1    3    3    0    0 -0.47997896030E+01 -0.24166309775E+01 -0.22627495642E+02  0.23256862316E+02  0.51100000000E-03 0. -1.
        -11    1    3    3    0    0  0.71679900823E+01 -0.25325970225E+01 -0.62004176178E+00  0.76274885477E+01  0.51100000000E-03 0.  1.
        -12    1    3    3    0    0 -0.11790798679E+02  0.25833849973E+02  0.10716911589E+01  0.28417587158E+02  0.00000000000E+00 0.  1.
</event>
<event>
 7    1  0.6489567E-013  0.5930178E+02  0.7816164E-02  0.1266605E+00
        -11   -1    0    0    0    0  0.00000000000E+00  0.00000000000E+00  0.45593999997E+02  0.45594000000E+02  0.51100000000E-03 0.  1.
         11   -1    0    0    0    0 -0.00000000000E+00 -0.00000000000E+00 -0.45593999997E+02  0.45594000000E+02  0.51100000000E-03 0. -1.
    9900012    2    1    2    0    0  0.69109856687E+01  0.97851512260E+01 -0.29550293590E+02  0.59301784190E+02  0.49999708493E+02 0.  0.
        -12    1    1    2    0    0 -0.69109856687E+01 -0.97851512260E+01  0.29550293590E+02  0.31886215810E+02  0.00000000000E+00 0.  1.
         11    1    3    3    0    0 -0.35528970556E+00 -0.10112255292E+02  0.46670431923E+01  0.11142945315E+02  0.51100000000E-03 0. -1.
        -11    1    3    3    0    0  0.10533050212E+01 -0.38133802605E+01 -0.18778203639E+02  0.19190420856E+02  0.51100000000E-03 0.  1.
         12    1    3    3    0    0  0.62129703530E+01  0.23710786779E+02 -0.15439133144E+02  0.28968418019E+02  0.00000000000E+00 0. -1.
</event>
<event>
 7    1  0.6489567E-013  0.5930191E+02  0.7816164E-02  0.1266605E+00
        -11   -1    0    0    0    0  0.00000000000E+00  0.00000000000E+00  0.45593999997E+02  0.45594000000E+02  0.51100000000E-03 0. -1.
         11   -1    0    0    0    0 -0.00000000000E+00 -0.00000000000E+00 -0.45593999997E+02  0.45594000000E+02  0.51100000000E-03 0.  1.
    9900012    2    1    2    0    0 -0.15289180791E+02 -0.73217532916E+01  0.27006581334E+02  0.59301912817E+02  0.49999943079E+02 0.  0.
        -12    1    1    2    0    0  0.15289180791E+02  0.73217532916E+01 -0.27006581334E+02  0.31886087183E+02  0.00000000000E+00 0.  1.
         11    1    3    3    0    0 -0.12937327599E+02  0.44515930716E+01  0.55390233919E+01  0.14760484636E+02  0.51100000000E-03 0. -1.
        -11    1    3    3    0    0  0.68852656671E+01  0.11373861192E+02  0.32962823327E+01  0.13698068447E+02  0.51100000000E-03 0.  1.
         12    1    3    3    0    0 -0.92371188586E+01 -0.23147207555E+02  0.18171275609E+02  0.30843359733E+02  0.00000000000E+00 0. -1.
</event>
<event>
 7    1  0.6489567E-013  0.5930197E+02  0.7816164E-02  0.1266605E+00
        -11   -1    0    0    0    0  0.00000000000E+00  0.00000000000E+00  0.45593999997E+02  0.45594000000E+02  0.51100000000E-03 0. -1.
         11   -1    0    0    0    0 -0.00000000000E+00 -0.00000000000E+00 -0.45593999997E+02  0.45594000000E+02  0.51100000000E-03 0.  1.
    9900012    2    1    2    0    0 -0.29467655540E+02  0.37342085001E+01  0.11594481618E+02  0.59301967946E+02  0.50000043622E+02 0.  0.
        -12    1    1    2    0    0  0.29467655540E+02 -0.37342085001E+01 -0.11594481618E+02  0.31886032054E+02  0.00000000000E+00 0.  1.
         11    1    3    3    0    0 -0.68361769949E+01  0.56760267317E+01  0.13119281381E+02  0.15845066727E+02  0.51100000000E-03 0. -1.
        -11    1    3    3    0    0 -0.18588548809E+02 -0.16156118120E+02 -0.98153135761E+01  0.26512160990E+02  0.51100000000E-03 0.  1.
         12    1    3    3    0    0 -0.40429297360E+01  0.14214299888E+02  0.82905138125E+01  0.16944740229E+02  0.00000000000E+00 0. -1.
</event>
<event>
 7    1  0.6489567E-013  0.5930201E+02  0.7816164E-02  0.1266605E+00
        -11   -1    0    0    0    0  0.00000000000E+00  0.00000000000E+00  0.45593999997E+02  0.45594000000E+02  0.51100000000E-03 0.  1.
         11   -1    0    0    0    0 -0.00000000000E+00 -0.00000000000E+00 -0.45593999997E+02  0.45594000000E+02  0.51100000000E-03 0. -1.
    9900012    2    1    2    0    0 -0.23548088198E+02  0.91841012896E+00 -0.21479296677E+02  0.59302013726E+02  0.50000127113E+02 0.  0.
        -12    1    1    2    0    0  0.23548088198E+02 -0.91841012896E+00  0.21479296677E+02  0.31885986274E+02  0.00000000000E+00 0.  1.
         11    1    3    3    0    0 -0.14786727099E+02  0.12466387294E+01 -0.38443926619E+01  0.15329082218E+02  0.51100000000E-03 0. -1.
        -11    1    3    3    0    0 -0.20435420126E+02  0.76607526388E+01 -0.60280479131E+00  0.21832473533E+02  0.51100000000E-03 0.  1.
        -12    1    3    3    0    0  0.11674059027E+02 -0.79889812392E+01 -0.17032099223E+02  0.22140457975E+02  0.00000000000E+00 0.  1.
</event>
<event>
 7    1  0.6489567E-013  0.5930196E+02  0.7816164E-02  0.1266605E+00
        -11   -1    0    0    0    0  0.00000000000E+00  0.00000000000E+00  0.45593999997E+02  0.45594000000E+02  0.51100000000E-03 0.  1.
         11   -1    0    0    0    0 -0.00000000000E+00 -0.00000000000E+00 -0.45593999997E+02  0.45594000000E+02  0.51100000000E-03 0. -1.
    9900012    2    1    2    0    0  0.28628422135E+02 -0.13663504210E+02 -0.32313507812E+01  0.59301960278E+02  0.50000029637E+02 0.  0.
        -12    1    1    2    0    0 -0.28628422135E+02  0.13663504210E+02  0.32313507812E+01  0.31886039722E+02  0.00000000000E+00 0.  1.
         11    1    3    3    0    0 -0.49434291437E+01 -0.10287550594E+01  0.57381043740E+01  0.76434070112E+01  0.51100000000E-03 0. -1.
        -11    1    3    3    0    0  0.70256148854E+01 -0.18727682632E+02  0.55984533507E+01  0.20770845950E+02  0.51100000000E-03 0.  1.
         12    1    3    3    0    0  0.26546236394E+02  0.60929334814E+01 -0.14567908506E+02  0.30887707317E+02  0.00000000000E+00 0. -1.
</event>
<event>
 7    1  0.6489567E-013  0.5930194E+02  0.7816164E-02  0.1266605E+00
        -11   -1    0    0    0    0  0.00000000000E+00  0.00000000000E+00  0.45593999997E+02  0.45594000000E+02  0.51100000000E-03 0. -1.
         11   -1    0    0    0    0 -0.00000000000E+00 -0.00000000000E+00 -0.45593999997E+02  0.45594000000E+02  0.51100000000E-03 0.  1.
    9900012    2    1    2    0    0  0.14642834033E+02 -0.20974748920E+02  0.19035964213E+02  0.59301943262E+02  0.49999998604E+02 0.  0.
        -12    1    1    2    0    0 -0.14642834033E+02  0.20974748920E+02 -0.19035964213E+02  0.31886056738E+02  0.00000000000E+00 0.  1.
         11    1    3    3    0    0  0.25572826725E+02 -0.18319961951E+02  0.13114842472E+02  0.34082100374E+02  0.51100000000E-03 0. -1.
        -11    1    3    3    0    0  0.58866752354E+01 -0.47517910574E+01  0.20033311058E+01  0.78259695476E+01  0.51100000000E-03 0.  1.
        -12    1    3    3    0    0 -0.16816667927E+02  0.20970040886E+01  0.39177906352E+01  0.17393873340E+02  0.00000000000E+00 0.  1.
</event>
<event>
 7    1  0.6489567E-013  0.5930196E+02  0.7816164E-02  0.1266605E+00
        -11   -1    0    0    0    0  0.00000000000E+00  0.00000000000E+00  0.45593999997E+02  0.45594000000E+02  0.51100000000E-03 0. -1.
         11   -1    0    0    0    0 -0.00000000000E+00 -0.00000000000E+00 -0.45593999997E+02  0.45594000000E+02  0.51100000000E-03 0.  1.
    9900012    2    1    2    0    0  0.15997582379E+02 -0.20106102820E+01  0.27509170666E+02  0.59301958126E+02  0.50000025711E+02 0.  0.
        -12    1    1    2    0    0 -0.15997582379E+02  0.20106102820E+01 -0.27509170666E+02  0.31886041874E+02  0.00000000000E+00 0.  1.
         11    1    3    3    0    0  0.19765493525E+02 -0.90094171618E+01  0.31271129208E+02  0.38075291910E+02  0.51100000000E-03 0. -1.
        -11    1    3    3    0    0  0.68710748281E+01  0.32540708857E+01  0.28888104859E+01  0.81330113063E+01  0.51100000000E-03 0.  1.
        -12    1    3    3    0    0 -0.10638985974E+02  0.37447359940E+01 -0.66507690274E+01  0.13093654909E+02  0.00000000000E+00 0.  1.
</event>
<event>
 7    1  0.6489567E-013  0.5930196E+02  0.7816164E-02  0.1266605E+00
        -11   -1    0    0    0    0  0.00000000000E+00  0.00000000000E+00  0.45593999997E+02  0.45594000000E+02  0.51100000000E-03 0.  1.
         11   -1    0    0    0    0 -0.00000000000E+00 -0.00000000000E+00 -0.45593999997E+02  0.45594000000E+02  0.51100000000E-03 0. -1.
    9900012    2    1    2    0    0  0.29551524489E+02  0.35204218925E+01 -0.11447002647E+02  0.59301955412E+02  0.50000020761E+02 0.  0.
        -12    1    1    2    0    0 -0.29551524489E+02 -0.35204218925E+01  0.11447002647E+02  0.31886044588E+02  0.00000000000E+00 0.  1.
         11    1    3    3    0    0  0.10242647506E+02 -0.91446793161E+01  0.11768289392E+02  0.18083960385E+02  0.51100000000E-03 0. -1.
        -11    1    3    3    0    0  0.98686126950E+01  0.15740479573E+02 -0.31675133812E+01  0.18846361850E+02  0.51100000000E-03 0.  1.
        -12    1    3    3    0    0  0.94402642875E+01 -0.30753783644E+01 -0.20047778657E+02  0.22371633176E+02  0.00000000000E+00 0.  1.
</event>
<event>
 7    1  0.6489567E-013  0.5930193E+02  0.7816164E-02  0.1266605E+00
        -11   -1    0    0    0    0  0.00000000000E+00  0.00000000000E+00  0.45593999997E+02  0.45594000000E+02  0.51100000000E-03 0.  1.
         11   -1    0    0    0    0 -0.00000000000E+00 -0.00000000000E+00 -0.45593999997E+02  0.45594000000E+02  0.51100000000E-03 0. -1.
    9900012    2    1    2    0    0  0.22480399551E+02 -0.21988021458E+02  0.52801413209E+01  0.59301931820E+02  0.49999977736E+02 0.  0.
        -12    1    1    2    0    0 -0.22480399551E+02  0.21988021458E+02 -0.52801413209E+01  0.31886068180E+02  0.00000000000E+00 0.  1.
         11    1    3    3    0    0  0.48243184955E+01  0.48804520696E+01 -0.13508885147E+02  0.15151991272E+02  0.51100000000E-03 0. -1.
        -11    1    3    3    0    0  0.18746418531E+02 -0.18514246182E+02  0.33475717094E+01  0.26559588777E+02  0.51100000000E-03 0.  1.
         12    1    3    3    0    0 -0.10903374749E+01 -0.83542273458E+01  0.15441454758E+02  0.17590351770E+02  0.00000000000E+00 0. -1.
</event>
<event>
 7    1  0.6489567E-013  0.5930180E+02  0.7816164E-02  0.1266605E+00
        -11   -1    0    0    0    0  0.00000000000E+00  0.00000000000E+00  0.45593999997E+02  0.45594000000E+02  0.51100000000E-03 0.  1.
         11   -1    0    0    0    0 -0.00000000000E+00 -0.00000000000E+00 -0.45593999997E+02  0.45594000000E+02  0.51100000000E-03 0. -1.
    9900012    2    1    2    0    0  0.11799407229E+02 -0.74624700052E+01 -0.28667324721E+02  0.59301796460E+02  0.49999730872E+02 0.  0.
        -12    1    1    2    0    0 -0.11799407229E+02  0.74624700052E+01  0.28667324721E+02  0.31886203540E+02  0.00000000000E+00 0.  1.
         11    1    3    3    0    0  0.13436045071E+01 -0.51889917003E+01  0.15296048069E+00  0.53623040857E+01  0.51100000000E-03 0. -1.
        -11    1    3    3    0    0  0.23834995113E+02  0.79969939999E+01 -0.65080286199E+01  0.25969469418E+02  0.51100000000E-03 0.  1.
         12    1    3    3    0    0 -0.13379192392E+02 -0.10270472305E+02 -0.22312256582E+02  0.27970022956E+02  0.00000000000E+00 0. -1.
</event>
<event>
 7    1  0.6489567E-013  0.5930198E+02  0.7816164E-02  0.1266605E+00
        -11   -1    0    0    0    0  0.00000000000E+00  0.00000000000E+00  0.45593999997E+02  0.45594000000E+02  0.51100000000E-03 0.  1.
         11   -1    0    0    0    0 -0.00000000000E+00 -0.00000000000E+00 -0.45593999997E+02  0.45594000000E+02  0.51100000000E-03 0. -1.
    9900012    2    1    2    0    0  0.20354706595E+01 -0.24651038947E+00 -0.31820029803E+02  0.59301981044E+02  0.50000067509E+02 0.  0.
        -12    1    1    2    0    0 -0.20354706595E+01  0.24651038947E+00  0.31820029803E+02  0.31886018956E+02  0.00000000000E+00 0.  1.
         11    1    3    3    0    0 -0.51470898723E+00  0.13964124401E+02 -0.15504303366E+02  0.20872113423E+02  0.51100000000E-03 0. -1.
        -11    1    3    3    0    0 -0.63750264315E+01 -0.13642408210E+02 -0.22841693936E+02  0.27358714259E+02  0.51100000000E-03 0.  1.
         12    1    3    3    0    0  0.89252060782E+01 -0.56822658078E+00  0.65259674981E+01  0.11071153362E+02  0.00000000000E+00 0. -1.
</event>
<event>
 7    1  0.6489567E-013  0.5930194E+02  0.7816164E-02  0.1266605E+00
        -11   -1    0    0    0    0  0.00000000000E+00  0.00000000000E+00  0.45593999997E+02  0.45594000000E+02  0.51100000000E-03 0. -1.
         11   -1    0    0    0    0 -0.00000000000E+00 -0.00000000000E+00 -0.45593999997E+02  0.45594000000E+02  0.51100000000E-03 0.  1.
    9900012    2    1    2    0    0  0.29765242738E+02 -0.71971322007E+01  0.88855347069E+01  0.59301935423E+02  0.49999984307E+02 0.  0.
        -12    1    1    2    0    0 -0.29765242738E+02  0.71971322007E+01 -0.88855347069E+01  0.31886064577E+02  0.00000000000E+00 0.  1.
         11    1    3    3    0    0  0.23464064901E+02  0.20714563244E+01 -0.81929047873E+00  0.23569567457E+02  0.51100000000E-03 0. -1.
        -11    1    3    3    0    0  0.18211016352E+01 -0.17986788136E+02 -0.43522949289E+01  0.18595252889E+02  0.51100000000E-03 0.  1.
         12    1    3    3    0    0  0.44800762023E+01  0.87181996109E+01  0.14057120115E+02  0.17137115077E+02  0.00000000000E+00 0. -1.
</event>
<event>
 7    1  0.6489567E-013  0.5930192E+02  0.7816164E-02  0.1266605E+00
        -11   -1    0    0    0    0  0.00000000000E+00  0.00000000000E+00  0.45593999997E+02  0.45594000000E+02  0.51100000000E-03 0.  1.
         11   -1    0    0    0    0 -0.00000000000E+00 -0.00000000000E+00 -0.45593999997E+02  0.45594000000E+02  0.51100000000E-03 0. -1.
    9900012    2    1    2    0    0 -0.18904222298E+02 -0.19793454743E+02  0.16357608144E+02  0.59301924426E+02  0.49999964251E+02 0.  0.
        -12    1    1    2    0    0  0.18904222298E+02  0.19793454743E+02 -0.16357608144E+02  0.31886075574E+02  0.00000000000E+00 0.  1.
         11    1    3    3    0    0 -0.41030905818E+01  0.13540009269E+02  0.27600317618E+01  0.14414748659E+02  0.51100000000E-03 0.  1.
        -11    1    3    3    0    0 -0.78795475664E+01 -0.22193633212E+01 -0.32813123280E+01  0.88192887615E+01  0.51100000000E-03 0. -1.
        -12    1    3    3    0    0 -0.69215841496E+01 -0.31114100691E+02  0.16878888710E+02  0.36067887005E+02  0.00000000000E+00 0.  1.
</event>
<event>
 7    1  0.6489567E-013  0.5930194E+02  0.7816164E-02  0.1266605E+00
        -11   -1    0    0    0    0  0.00000000000E+00  0.00000000000E+00  0.45593999997E+02  0.45594000000E+02  0.51100000000E-03 0. -1.
         11   -1    0    0    0    0 -0.00000000000E+00 -0.00000000000E+00 -0.45593999997E+02  0.45594000000E+02  0.51100000000E-03 0.  1.
    9900012    2    1    2    0    0 -0.11487599709E+01 -0.25349454419E+01  0.31764369190E+02  0.59301941167E+02  0.49999994784E+02 0.  0.
        -12    1    1    2    0    0  0.11487599709E+01  0.25349454419E+01 -0.31764369190E+02  0.31886058833E+02  0.00000000000E+00 0.  1.
         11    1    3    3    0    0 -0.92052268983E+01  0.80530069099E+01  0.56739641682E+01  0.13482618150E+02  0.51100000000E-03 0. -1.
        -11    1    3    3    0    0 -0.19902756713E+01  0.74329845296E+01 -0.45054273772E+01  0.89168005684E+01  0.51100000000E-03 0.  1.
         12    1    3    3    0    0  0.10046742599E+02 -0.18020936881E+02  0.30595832399E+02  0.36902522449E+02  0.00000000000E+00 0. -1.
</event>
<event>
 7    1  0.6489567E-013  0.5930194E+02  0.7816164E-02  0.1266605E+00
        -11   -1    0    0    0    0  0.00000000000E+00  0.00000000000E+00  0.45593999997E+02  0.45594000000E+02  0.51100000000E-03 0.  1.
         11   -1    0    0    0    0 -0.00000000000E+00 -0.00000000000E+00 -0.45593999997E+02  0.45594000000E+02  0.51100000000E-03 0. -1.
    9900012    2    1    2    0    0  0.22982147409E+02 -0.55813375483E+01  0.21386688105E+02  0.59301939465E+02  0.49999991679E+02 0.  0.
        -12    1    1    2    0    0 -0.22982147409E+02  0.55813375483E+01 -0.21386688105E+02  0.31886060535E+02  0.00000000000E+00 0.  1.
         11    1    3    3    0    0 -0.32173564609E+01  0.29882059134E+01 -0.38183330344E+01  0.58189710946E+01  0.51100000000E-03 0. -1.
        -11    1    3    3    0    0 -0.77164220322E+01  0.47564067231E+01  0.11285143083E+02  0.14474841227E+02  0.51100000000E-03 0.  1.
        -12    1    3    3    0    0  0.33915925902E+02 -0.13325950185E+02  0.13919878056E+02  0.39008127143E+02  0.00000000000E+00 0.  1.
</event>
<event>
 7    1  0.6489567E-013  0.5930190E+02  0.7816164E-02  0.1266605E+00
        -11   -1    0    0    0    0  0.00000000000E+00  0.00000000000E+00  0.45593999997E+02  0.45594000000E+02  0.51100000000E-03 0. -1.
         11   -1    0    0    0    0 -0.00000000000E+00 -0.00000000000E+00 -0.45593999997E+02  0.45594000000E+02  0.51100000000E-03 0.  1.
    9900012    2    1    2    0    0 -0.24527414970E+02  0.73228630085E+01  0.19013285088E+02  0.59301899304E+02  0.49999918435E+02 0.  0.
        -12    1    1    2    0    0  0.24527414970E+02 -0.73228630085E+01 -0.19013285088E+02  0.31886100696E+02  0.00000000000E+00 0.  1.
         11    1    3    3    0    0 -0.88646852110E+01  0.54922188700E+01  0.61206164733E+01  0.12091693772E+02  0.51100000000E-03 0. -1.
        -11    1    3    3    0    0 -0.10459884590E+02  0.21831293626E+02  0.33193445960E+01  0.24434250875E+02  0.51100000000E-03 0.  1.
         12    1    3    3    0    0 -0.52028451688E+01 -0.20000649487E+02  0.95733240191E+01  0.22775954657E+02  0.00000000000E+00 0. -1.
</event>
<event>
 7    1  0.6489567E-013  0.5930196E+02  0.7816164E-02  0.1266605E+00
        -11   -1    0    0    0    0  0.00000000000E+00  0.00000000000E+00  0.45593999997E+02  0.45594000000E+02  0.51100000000E-03 0.  1.
         11   -1    0    0    0    0 -0.00000000000E+00 -0.00000000000E+00 -0.45593999997E+02  0.45594000000E+02  0.51100000000E-03 0. -1.
    9900012    2    1    2    0    0 -0.28879483332E+01 -0.23091220578E+02 -0.21798505507E+02  0.59301959862E+02  0.50000028877E+02 0.  0.
        -12    1    1    2    0    0  0.28879483332E+01  0.23091220578E+02  0.21798505507E+02  0.31886040138E+02  0.00000000000E+00 0.  1.
         11    1    3    3    0    0  0.37976643687E+01 -0.25478334759E+02 -0.30560694688E+01  0.25940457930E+02  0.51100000000E-03 0.  1.
        -11    1    3    3    0    0 -0.41069858654E+01 -0.12135039650E+02 -0.78342148527E+01  0.15016705458E+02  0.51100000000E-03 0. -1.
         12    1    3    3    0    0 -0.25786268364E+01  0.14522153830E+02 -0.10908221185E+02  0.18344796474E+02  0.00000000000E+00 0. -1.
</event>
<event>
 7    1  0.6489567E-013  0.5930196E+02  0.7816164E-02  0.1266605E+00
        -11   -1    0    0    0    0  0.00000000000E+00  0.00000000000E+00  0.45593999997E+02  0.45594000000E+02  0.51100000000E-03 0.  1.
         11   -1    0    0    0    0 -0.00000000000E+00 -0.00000000000E+00 -0.45593999997E+02  0.45594000000E+02  0.51100000000E-03 0. -1.
    9900012    2    1    2    0    0 -0.22144767689E+02 -0.63617849039E+00 -0.22933033801E+02  0.59301960760E+02  0.50000030516E+02 0.  0.
        -12    1    1    2    0    0  0.22144767689E+02  0.63617849039E+00  0.22933033801E+02  0.31886039240E+02  0.00000000000E+00 0.  1.
         11    1    3    3    0    0 -0.15032838152E+02 -0.11802074951E+01 -0.72229843449E+01  0.16719767215E+02  0.51100000000E-03 0. -1.
        -11    1    3    3    0    0 -0.20138279955E+02  0.10857474177E+02 -0.77209027810E+01  0.24146374574E+02  0.51100000000E-03 0.  1.
         12    1    3    3    0    0  0.13026350418E+02 -0.10313445172E+02 -0.79891466749E+01  0.18435818971E+02  0.00000000000E+00 0. -1.
</event>
<event>
 7    1  0.6489567E-013  0.5930172E+02  0.7816164E-02  0.1266606E+00
        -11   -1    0    0    0    0  0.00000000000E+00  0.00000000000E+00  0.45593999997E+02  0.45594000000E+02  0.51100000000E-03 0.  1.
         11   -1    0    0    0    0 -0.00000000000E+00 -0.00000000000E+00 -0.45593999997E+02  0.45594000000E+02  0.51100000000E-03 0. -1.
    9900012    2    1    2    0    0  0.83338736540E+01 -0.12462182379E+02 -0.28142057201E+02  0.59301720455E+02  0.49999592255E+02 0.  0.
        -12    1    1    2    0    0 -0.83338736540E+01  0.12462182379E+02  0.28142057201E+02  0.31886279545E+02  0.00000000000E+00 0.  1.
         11    1    3    3    0    0 -0.11792130191E+02 -0.46298345166E+01 -0.12220507434E+02  0.17602002850E+02  0.51100000000E-03 0. -1.
        -11    1    3    3    0    0 -0.53881865120E+01  0.67822221285E+01 -0.64799914052E+01  0.10817642061E+02  0.51100000000E-03 0.  1.
        -12    1    3    3    0    0  0.25514190357E+02 -0.14614569991E+02 -0.94415583613E+01  0.30882075544E+02  0.00000000000E+00 0.  1.
</event>
<event>
 7    1  0.6489567E-013  0.5930194E+02  0.7816164E-02  0.1266605E+00
        -11   -1    0    0    0    0  0.00000000000E+00  0.00000000000E+00  0.45593999997E+02  0.45594000000E+02  0.51100000000E-03 0.  1.
         11   -1    0    0    0    0 -0.00000000000E+00 -0.00000000000E+00 -0.45593999997E+02  0.45594000000E+02  0.51100000000E-03 0. -1.
    9900012    2    1    2    0    0  0.15121492086E+02 -0.37444774709E+00 -0.28069929052E+02  0.59301942687E+02  0.49999997554E+02 0.  0.
        -12    1    1    2    0    0 -0.15121492086E+02  0.37444774709E+00  0.28069929052E+02  0.31886057313E+02  0.00000000000E+00 0.  1.
         11    1    3    3    0    0 -0.14753604960E+02  0.35111772366E+01 -0.20742963169E+01  0.15306858932E+02  0.51100000000E-03 0.  1.
        -11    1    3    3    0    0  0.11490444501E+02  0.30748840501E+01 -0.20300409816E+02  0.23528533012E+02  0.51100000000E-03 0. -1.
        -12    1    3    3    0    0  0.18384652545E+02 -0.69605090338E+01 -0.56952229183E+01  0.20466550743E+02  0.00000000000E+00 0.  1.
</event>
<event>
 7    1  0.6489567E-013  0.5930196E+02  0.7816164E-02  0.1266605E+00
        -11   -1    0    0    0    0  0.00000000000E+00  0.00000000000E+00  0.45593999997E+02  0.45594000000E+02  0.51100000000E-03 0.  1.
         11   -1    0    0    0    0 -0.00000000000E+00 -0.00000000000E+00 -0.45593999997E+02  0.45594000000E+02  0.51100000000E-03 0. -1.
    9900012    2    1    2    0    0 -0.31648060538E+02 -0.71399469238E-01  0.38877785617E+01  0.59301958291E+02  0.50000026013E+02 0.  0.
        -12    1    1    2    0    0  0.31648060538E+02  0.71399469238E-01 -0.38877785617E+01  0.31886041709E+02  0.00000000000E+00 0.  1.
         11    1    3    3    0    0  0.56881662601E+01  0.30187914816E+01  0.64749434084E+00  0.64720620048E+01  0.51100000000E-03 0. -1.
        -11    1    3    3    0    0 -0.21258181476E+02  0.16773959226E+02  0.32575551386E+01  0.27274303905E+02  0.51100000000E-03 0.  1.
        -12    1    3    3    0    0 -0.16078045323E+02 -0.19864150177E+02 -0.17270917761E-01  0.25555592381E+02  0.00000000000E+00 0.  1.
</event>
<event>
 7    1  0.6489567E-013  0.5930195E+02  0.7816164E-02  0.1266605E+00
        -11   -1    0    0    0    0  0.00000000000E+00  0.00000000000E+00  0.45593999997E+02  0.45594000000E+02  0.51100000000E-03 0. -1.
         11   -1    0    0    0    0 -0.00000000000E+00 -0.00000000000E+00 -0.45593999997E+02  0.45594000000E+02  0.51100000000E-03 0.  1.
    9900012    2    1    2    0    0  0.31741604786E+02 -0.30177556054E+01 -0.28962596395E+00  0.59301949657E+02  0.50000010267E+02 0.  0.
        -12    1    1    2    0    0 -0.31741604786E+02  0.30177556054E+01  0.28962596395E+00  0.31886050343E+02  0.00000000000E+00 0.  1.
         11    1    3    3    0    0  0.85035666334E+01  0.13340655074E+02 -0.15027964282E+02  0.21820252840E+02  0.51100000000E-03 0. -1.
        -11    1    3    3    0    0  0.48861553824E+00  0.39412353805E+01  0.15879276382E+01  0.42771013448E+01  0.51100000000E-03 0.  1.
         12    1    3    3    0    0  0.22749422614E+02 -0.20299646060E+02  0.13150410680E+02  0.33204595472E+02  0.00000000000E+00 0. -1.
</event>
<event>
 7    1  0.6489567E-013  0.5930192E+02  0.7816164E-02  0.1266605E+00
        -11   -1    0    0    0    0  0.00000000000E+00  0.00000000000E+00  0.45593999997E+02  0.45594000000E+02  0.51100000000E-03 0.  1.
         11   -1    0    0    0    0 -0.00000000000E+00 -0.00000000000E+00 -0.45593999997E+02  0.45594000000E+02  0.51100000000E-03 0. -1.
    9900012    2    1    2    0    0  0.47696932641E+01 -0.15261530023E+02 -0.27587280942E+02  0.59301916167E+02  0.49999949188E+02 0.  0.
        -12    1    1    2    0    0 -0.47696932641E+01  0.15261530023E+02  0.27587280942E+02  0.31886083833E+02  0.00000000000E+00 0.  1.
         11    1    3    3    0    0  0.11352599731E+02  0.20869692080E+01 -0.18596953254E+02  0.21887979160E+02  0.51100000000E-03 0. -1.
        -11    1    3    3    0    0  0.26028663794E+01 -0.92282666934E+01 -0.19198799626E+02  0.21459956358E+02  0.51100000000E-03 0.  1.
        -12    1    3    3    0    0 -0.91857728459E+01 -0.81202325371E+01  0.10208471938E+02  0.15953980649E+02  0.00000000000E+00 0.  1.
</event>
<event>
 7    1  0.6489567E-013  0.5930195E+02  0.7816164E-02  0.1266605E+00
        -11   -1    0    0    0    0  0.00000000000E+00  0.00000000000E+00  0.45593999997E+02  0.45594000000E+02  0.51100000000E-03 0. -1.
         11   -1    0    0    0    0 -0.00000000000E+00 -0.00000000000E+00 -0.45593999997E+02  0.45594000000E+02  0.51100000000E-03 0.  1.
    9900012    2    1    2    0    0  0.79148252949E+01  0.22493650571E+02  0.21168637156E+02  0.59301953295E+02  0.50000016901E+02 0.  0.
        -12    1    1    2    0    0 -0.79148252949E+01 -0.22493650571E+02 -0.21168637156E+02  0.31886046705E+02  0.00000000000E+00 0.  1.
         11    1    3    3    0    0  0.66020840558E+01  0.85775486210E+00 -0.11194679795E+02  0.13024750027E+02  0.51100000000E-03 0. -1.
        -11    1    3    3    0    0 -0.10915081197E+02  0.13771908486E+02  0.12090868144E+02  0.21330577902E+02  0.51100000000E-03 0.  1.
         12    1    3    3    0    0  0.12227822436E+02  0.78639872232E+01  0.20272448806E+02  0.24946625367E+02  0.00000000000E+00 0. -1.
</event>
<event>
 7    1  0.6489567E-013  0.5930200E+02  0.7816164E-02  0.1266605E+00
        -11   -1    0    0    0    0  0.00000000000E+00  0.00000000000E+00  0.45593999997E+02  0.45594000000E+02  0.51100000000E-03 0.  1.
         11   -1    0    0    0    0 -0.00000000000E+00 -0.00000000000E+00 -0.45593999997E+02  0.45594000000E+02  0.51100000000E-03 0. -1.
    9900012    2    1    2    0    0  0.30037391228E+02 -0.28644106750E+01 -0.10308587253E+02  0.59302004776E+02  0.50000110790E+02 0.  0.
        -12    1    1    2    0    0 -0.30037391228E+02  0.28644106750E+01  0.10308587253E+02  0.31885995224E+02  0.00000000000E+00 0.  1.
         11    1    3    3    0    0  0.27241185115E+02  0.11785866675E+01 -0.16391293162E+02  0.31814237769E+02  0.51100000000E-03 0. -1.
        -11    1    3    3    0    0  0.54112786855E+01 -0.14434041216E+02  0.65811704127E+01  0.16761124279E+02  0.51100000000E-03 0.  1.
        -12    1    3    3    0    0 -0.26150725730E+01  0.10391043874E+02 -0.49846450328E+00  0.10726642728E+02  0.00000000000E+00 0.  1.
</event>
<event>
 7    1  0.6489567E-013  0.5930194E+02  0.7816164E-02  0.1266605E+00
        -11   -1    0    0    0    0  0.00000000000E+00  0.00000000000E+00  0.45593999997E+02  0.45594000000E+02  0.51100000000E-03 0.  1.
         11   -1    0    0    0    0 -0.00000000000E+00 -0.00000000000E+00 -0.45593999997E+02  0.45594000000E+02  0.51100000000E-03 0. -1.
    9900012    2    1    2    0    0  0.40265775874E+01  0.92401192314E+01 -0.30251078941E+02  0.59301938663E+02  0.49999990216E+02 0.  0.
        -12    1    1    2    0    0 -0.40265775874E+01 -0.92401192314E+01  0.30251078941E+02  0.31886061337E+02  0.00000000000E+00 0.  1.
         11    1    3    3    0    0 -0.28624510683E+00  0.23209649110E+01 -0.13843844198E+02  0.14039972821E+02  0.51100000000E-03 0. -1.
        -11    1    3    3    0    0 -0.11841165499E+02 -0.11555421268E+02 -0.16536476109E+01  0.16627552788E+02  0.51100000000E-03 0.  1.
        -12    1    3    3    0    0  0.16153988193E+02  0.18474575588E+02 -0.14753587133E+02  0.28634413054E+02  0.00000000000E+00 0.  1.
</event>
<event>
 7    1  0.6489567E-013  0.5930192E+02  0.7816164E-02  0.1266605E+00
        -11   -1    0    0    0    0  0.00000000000E+00  0.00000000000E+00  0.45593999997E+02  0.45594000000E+02  0.51100000000E-03 0. -1.
         11   -1    0    0    0    0 -0.00000000000E+00 -0.00000000000E+00 -0.45593999997E+02  0.45594000000E+02  0.51100000000E-03 0.  1.
    9900012    2    1    2    0    0 -0.92288633932E+01  0.30506278628E+02 -0.95766912939E+00  0.59301920194E+02  0.49999956532E+02 0.  0.
        -12    1    1    2    0    0  0.92288633932E+01 -0.30506278628E+02  0.95766912939E+00  0.31886079806E+02  0.00000000000E+00 0.  1.
         11    1    3    3    0    0 -0.21974075760E+02  0.22286093838E+02 -0.35089474183E+00  0.31299410720E+02  0.51100000000E-03 0. -1.
        -11    1    3    3    0    0 -0.15965394768E+01 -0.69165353155E+01  0.54057516636E+00  0.71189620622E+01  0.51100000000E-03 0.  1.
        -12    1    3    3    0    0  0.14341751843E+02  0.15136720105E+02 -0.11473495539E+01  0.20883547411E+02  0.00000000000E+00 0.  1.
</event>
<event>
 7    1  0.6489567E-013  0.5930195E+02  0.7816164E-02  0.1266605E+00
        -11   -1    0    0    0    0  0.00000000000E+00  0.00000000000E+00  0.45593999997E+02  0.45594000000E+02  0.51100000000E-03 0.  1.
         11   -1    0    0    0    0 -0.00000000000E+00 -0.00000000000E+00 -0.45593999997E+02  0.45594000000E+02  0.51100000000E-03 0. -1.
    9900012    2    1    2    0    0 -0.30448547881E+02 -0.18874817815E+01 -0.92759779373E+01  0.59301946274E+02  0.50000004096E+02 0.  0.
        -12    1    1    2    0    0  0.30448547881E+02  0.18874817815E+01  0.92759779373E+01  0.31886053726E+02  0.00000000000E+00 0.  1.
         11    1    3    3    0    0 -0.11206621217E+01 -0.72981908221E+01  0.13108752202E+02  0.15045227065E+02  0.51100000000E-03 0. -1.
        -11    1    3    3    0    0 -0.25644889453E+02 -0.28152793628E+01 -0.75191949625E+01  0.26872373287E+02  0.51100000000E-03 0.  1.
         12    1    3    3    0    0 -0.36829963064E+01  0.82259884035E+01 -0.14865535177E+02  0.17384345921E+02  0.00000000000E+00 0. -1.
</event>
<event>
 7    1  0.6489567E-013  0.5930211E+02  0.7816164E-02  0.1266604E+00
        -11   -1    0    0    0    0  0.00000000000E+00  0.00000000000E+00  0.45593999997E+02  0.45594000000E+02  0.51100000000E-03 0. -1.
         11   -1    0    0    0    0 -0.00000000000E+00 -0.00000000000E+00 -0.45593999997E+02  0.45594000000E+02  0.51100000000E-03 0.  1.
    9900012    2    1    2    0    0  0.96696673331E+01 -0.11262387851E+02  0.28219957600E+02  0.59302112002E+02  0.50000306344E+02 0.  0.
        -12    1    1    2    0    0 -0.96696673331E+01  0.11262387851E+02 -0.28219957600E+02  0.31885887998E+02  0.00000000000E+00 0.  1.
         11    1    3    3    0    0 -0.15279477184E+01  0.88548202986E+01  0.83251028579E+01  0.12249481810E+02  0.51100000000E-03 0. -1.
        -11    1    3    3    0    0 -0.10692087723E+02 -0.14815192175E+02  0.21841245843E+01  0.18400572261E+02  0.51100000000E-03 0.  1.
         12    1    3    3    0    0  0.21889702775E+02 -0.53020159744E+01  0.17710730158E+02  0.28652057931E+02  0.00000000000E+00 0. -1.
</event>
<event>
 7    1  0.6489567E-013  0.5930194E+02  0.7816164E-02  0.1266605E+00
        -11   -1    0    0    0    0  0.00000000000E+00  0.00000000000E+00  0.45593999997E+02  0.45594000000E+02  0.51100000000E-03 0. -1.
         11   -1    0    0    0    0 -0.00000000000E+00 -0.00000000000E+00 -0.45593999997E+02  0.45594000000E+02  0.51100000000E-03 0.  1.
    9900012    2    1    2    0    0 -0.18500767003E+02 -0.57828414286E+01  0.25318001458E+02  0.59301939841E+02  0.49999992364E+02 0.  0.
        -12    1    1    2    0    0  0.18500767003E+02  0.57828414286E+01 -0.25318001458E+02  0.31886060159E+02  0.00000000000E+00 0.  1.
         11    1    3    3    0    0 -0.51033401161E+01 -0.25600644552E+01  0.17436999865E+02  0.18347941980E+02  0.51100000000E-03 0. -1.
        -11    1    3    3    0    0 -0.10144060085E+02 -0.88236657247E+01  0.21793871541E+02  0.25607262033E+02  0.51100000000E-03 0.  1.
        -12    1    3    3    0    0 -0.32533668012E+01  0.56008887513E+01 -0.13912869948E+02  0.15346735827E+02  0.00000000000E+00 0.  1.
</event>
<event>
 7    1  0.6489567E-013  0.5930195E+02  0.7816164E-02  0.1266605E+00
        -11   -1    0    0    0    0  0.00000000000E+00  0.00000000000E+00  0.45593999997E+02  0.45594000000E+02  0.51100000000E-03 0.  1.
         11   -1    0    0    0    0 -0.00000000000E+00 -0.00000000000E+00 -0.45593999997E+02  0.45594000000E+02  0.51100000000E-03 0. -1.
    9900012    2    1    2    0    0  0.31604564098E+02  0.11963756706E+01  0.40546962314E+01  0.59301947437E+02  0.50000006217E+02 0.  0.
        -12    1    1    2    0    0 -0.31604564098E+02 -0.11963756706E+01 -0.40546962314E+01  0.31886052563E+02  0.00000000000E+00 0.  1.
         11    1    3    3    0    0  0.40765350079E+01  0.47409036686E+01 -0.10538706787E+01  0.63407372548E+01  0.51100000000E-03 0. -1.
        -11    1    3    3    0    0  0.25545146981E+02  0.76192725816E+01  0.20652385202E+02  0.33721341369E+02  0.51100000000E-03 0.  1.
         12    1    3    3    0    0  0.19828821091E+01 -0.11163800580E+02 -0.15543818292E+02  0.19239868813E+02  0.00000000000E+00 0. -1.
</event>
<event>
 7    1  0.6489567E-013  0.5930194E+02  0.7816164E-02  0.1266605E+00
        -11   -1    0    0    0    0  0.00000000000E+00  0.00000000000E+00  0.45593999997E+02  0.45594000000E+02  0.51100000000E-03 0. -1.
         11   -1    0    0    0    0 -0.00000000000E+00 -0.00000000000E+00 -0.45593999997E+02  0.45594000000E+02  0.51100000000E-03 0.  1.
    9900012    2    1    2    0    0  0.72404694639E+01  0.22200019132E+02  0.21713028768E+02  0.59301939318E+02  0.49999991411E+02 0.  0.
        -12    1    1    2    0    0 -0.72404694639E+01 -0.22200019132E+02 -0.21713028768E+02  0.31886060682E+02  0.00000000000E+00 0.  1.
         11    1    3    3    0    0 -0.14877243508E+02  0.11708612055E+02  0.86183854438E+01  0.20801455203E+02  0.51100000000E-03 0.  1.
        -11    1    3    3    0    0 -0.27492621231E+01  0.48099596956E+01  0.11710837974E+02  0.12955226003E+02  0.51100000000E-03 0. -1.
        -12    1    3    3    0    0  0.24866975095E+02  0.56814473810E+01  0.13838053506E+01  0.25545258111E+02  0.00000000000E+00 0.  1.
</event>
<event>
 7    1  0.6489567E-013  0.5930194E+02  0.7816164E-02  0.1266605E+00
        -11   -1    0    0    0    0  0.00000000000E+00  0.00000000000E+00  0.45593999997E+02  0.45594000000E+02  0.51100000000E-03 0.  1.
         11   -1    0    0    0    0 -0.00000000000E+00 -0.00000000000E+00 -0.45593999997E+02  0.45594000000E+02  0.51100000000E-03 0. -1.
    9900012    2    1    2    0    0  0.27151960239E+02 -0.29008409503E+01 -0.16464410134E+02  0.59301943109E+02  0.49999998324E+02 0.  0.
        -12    1    1    2    0    0 -0.27151960239E+02  0.29008409503E+01  0.16464410134E+02  0.31886056891E+02  0.00000000000E+00 0.  1.
         11    1    3    3    0    0 -0.22242086935E+01  0.22709900472E+01 -0.31952479609E+01  0.45071176931E+01  0.51100000000E-03 0. -1.
        -11    1    3    3    0    0  0.10660726505E+02 -0.46280565598E+01 -0.28423102277E+02  0.30707372737E+02  0.51100000000E-03 0.  1.
        -12    1    3    3    0    0  0.18715442427E+02 -0.54377443774E+00  0.15153940104E+02  0.24087452678E+02  0.00000000000E+00 0.  1.
</event>
<event>
 7    1  0.6489567E-013  0.5930192E+02  0.7816164E-02  0.1266605E+00
        -11   -1    0    0    0    0  0.00000000000E+00  0.00000000000E+00  0.45593999997E+02  0.45594000000E+02  0.51100000000E-03 0. -1.
         11   -1    0    0    0    0 -0.00000000000E+00 -0.00000000000E+00 -0.45593999997E+02  0.45594000000E+02  0.51100000000E-03 0.  1.
    9900012    2    1    2    0    0  0.14812455904E+02  0.27699558730E+02  0.54815541234E+01  0.59301924053E+02  0.49999963570E+02 0.  0.
        -12    1    1    2    0    0 -0.14812455904E+02 -0.27699558730E+02 -0.54815541234E+01  0.31886075947E+02  0.00000000000E+00 0.  1.
         11    1    3    3    0    0  0.93992740730E+01  0.85506484014E+01 -0.13057820218E+01  0.12773605917E+02  0.51100000000E-03 0. -1.
        -11    1    3    3    0    0  0.15904966504E+02 -0.52841038567E+01 -0.49312705222E+01  0.17470178656E+02  0.51100000000E-03 0.  1.
        -12    1    3    3    0    0 -0.10491784673E+02  0.24433014185E+02  0.11718606667E+02  0.29058139479E+02  0.00000000000E+00 0.  1.
</event>
<event>
 7    1  0.6489567E-013  0.5930196E+02  0.7816164E-02  0.1266605E+00
        -11   -1    0    0    0    0  0.00000000000E+00  0.00000000000E+00  0.45593999997E+02  0.45594000000E+02  0.51100000000E-03 0.  1.
         11   -1    0    0    0    0 -0.00000000000E+00 -0.00000000000E+00 -0.45593999997E+02  0.45594000000E+02  0.51100000000E-03 0. -1.
    9900012    2    1    2    0    0  0.27980729917E+02  0.13789152758E+02 -0.66073908711E+01  0.59301959252E+02  0.50000027765E+02 0.  0.
        -12    1    1    2    0    0 -0.27980729917E+02 -0.13789152758E+02  0.66073908711E+01  0.31886040748E+02  0.00000000000E+00 0.  1.
         11    1    3    3    0    0  0.13823736875E+02  0.11390680828E+02 -0.20940735575E+02  0.27556446027E+02  0.51100000000E-03 0. -1.
        -11    1    3    3    0    0  0.26391401712E+01 -0.25853472638E+01 -0.64696303905E+01  0.74501811367E+01  0.51100000000E-03 0.  1.
        -12    1    3    3    0    0  0.11517852871E+02  0.49838191932E+01  0.20802975095E+02  0.24295332089E+02  0.00000000000E+00 0.  1.
</event>
<event>
 7    1  0.6489567E-013  0.5930194E+02  0.7816164E-02  0.1266605E+00
        -11   -1    0    0    0    0  0.00000000000E+00  0.00000000000E+00  0.45593999997E+02  0.45594000000E+02  0.51100000000E-03 0.  1.
         11   -1    0    0    0    0 -0.00000000000E+00 -0.00000000000E+00 -0.45593999997E+02  0.45594000000E+02  0.51100000000E-03 0. -1.
    9900012    2    1    2    0    0 -0.30151810692E+02  0.67635318287E+01 -0.78640905716E+01  0.59301937663E+02  0.49999988393E+02 0.  0.
        -12    1    1    2    0    0  0.30151810692E+02 -0.67635318287E+01  0.78640905716E+01  0.31886062337E+02  0.00000000000E+00 0.  1.
         11    1    3    3    0    0 -0.21499339103E+02 -0.17184968532E+01 -0.52882060027E+01  0.22206754294E+02  0.51100000000E-03 0. -1.
        -11    1    3    3    0    0 -0.14122225613E+02  0.16449831169E+02  0.76825650166E+01  0.23001217517E+02  0.51100000000E-03 0.  1.
         12    1    3    3    0    0  0.54697540237E+01 -0.79678024873E+01 -0.10258449585E+02  0.14093965853E+02  0.00000000000E+00 0. -1.
</event>
<event>
 7    1  0.6489567E-013  0.5930195E+02  0.7816164E-02  0.1266605E+00
        -11   -1    0    0    0    0  0.00000000000E+00  0.00000000000E+00  0.45593999997E+02  0.45594000000E+02  0.51100000000E-03 0. -1.
         11   -1    0    0    0    0 -0.00000000000E+00 -0.00000000000E+00 -0.45593999997E+02  0.45594000000E+02  0.51100000000E-03 0.  1.
    9900012    2    1    2    0    0  0.61167548463E+01  0.22422068826E+02  0.21830165642E+02  0.59301953016E+02  0.50000016393E+02 0.  0.
        -12    1    1    2    0    0 -0.61167548463E+01 -0.22422068826E+02 -0.21830165642E+02  0.31886046984E+02  0.00000000000E+00 0.  1.
         11    1    3    3    0    0  0.17218187782E-02  0.74613708471E+01 -0.26167370836E+01  0.79069191920E+01  0.51100000000E-03 0. -1.
        -11    1    3    3    0    0 -0.11520369475E+02  0.21940157587E+02  0.20171667796E+02  0.31952865438E+02  0.51100000000E-03 0.  1.
        -12    1    3    3    0    0  0.17635402502E+02 -0.69794596090E+01  0.42752349303E+01  0.19442168386E+02  0.00000000000E+00 0.  1.
</event>
<event>
 7    1  0.6489567E-013  0.5930195E+02  0.7816164E-02  0.1266605E+00
        -11   -1    0    0    0    0  0.00000000000E+00  0.00000000000E+00  0.45593999997E+02  0.45594000000E+02  0.51100000000E-03 0.  1.
         11   -1    0    0    0    0 -0.00000000000E+00 -0.00000000000E+00 -0.45593999997E+02  0.45594000000E+02  0.51100000000E-03 0. -1.
    9900012    2    1    2    0    0  0.16466794259E+02  0.10025736421E+02 -0.25397827591E+02  0.59301947402E+02  0.50000006154E+02 0.  0.
        -12    1    1    2    0    0 -0.16466794259E+02 -0.10025736421E+02  0.25397827591E+02  0.31886052598E+02  0.00000000000E+00 0.  1.
         11    1    3    3    0    0  0.51606706662E+00  0.12996691002E+01 -0.15876411337E+02  0.15937876338E+02  0.51100000000E-03 0.  1.
        -11    1    3    3    0    0  0.26318171434E+01 -0.14798560673E+02 -0.11982697893E+01  0.15078451851E+02  0.51100000000E-03 0. -1.
        -12    1    3    3    0    0  0.13318910049E+02  0.23524627994E+02 -0.83231464648E+01  0.28285619212E+02  0.00000000000E+00 0.  1.
</event>
<event>
 7    1  0.6489567E-013  0.5930191E+02  0.7816164E-02  0.1266605E+00
        -11   -1    0    0    0    0  0.00000000000E+00  0.00000000000E+00  0.45593999997E+02  0.45594000000E+02  0.51100000000E-03 0.  1.
         11   -1    0    0    0    0 -0.00000000000E+00 -0.00000000000E+00 -0.45593999997E+02  0.45594000000E+02  0.51100000000E-03 0. -1.
    9900012    2    1    2    0    0  0.27857667347E+02 -0.12597657265E+02 -0.90538521401E+01  0.59301908405E+02  0.49999935033E+02 0.  0.
        -12    1    1    2    0    0 -0.27857667347E+02  0.12597657265E+02  0.90538521401E+01  0.31886091595E+02  0.00000000000E+00 0.  1.
         11    1    3    3    0    0  0.39379169966E+01 -0.16051161093E+02 -0.19968586043E+02  0.25920867877E+02  0.51100000000E-03 0. -1.
        -11    1    3    3    0    0  0.18344483764E+02 -0.64805439794E+01  0.34433730173E+01  0.19757893431E+02  0.51100000000E-03 0.  1.
        -12    1    3    3    0    0  0.55752665866E+01  0.99340478071E+01  0.74713608852E+01  0.13623147097E+02  0.00000000000E+00 0.  1.
</event>
<event>
 7    1  0.6489567E-013  0.5930197E+02  0.7816164E-02  0.1266605E+00
        -11   -1    0    0    0    0  0.00000000000E+00  0.00000000000E+00  0.45593999997E+02  0.45594000000E+02  0.51100000000E-03 0. -1.
         11   -1    0    0    0    0 -0.00000000000E+00 -0.00000000000E+00 -0.45593999997E+02  0.45594000000E+02  0.51100000000E-03 0.  1.
    9900012    2    1    2    0    0 -0.11859851651E+02  0.21159801450E+01  0.29522626298E+02  0.59301969882E+02  0.50000047151E+02 0.  0.
        -12    1    1    2    0    0  0.11859851651E+02 -0.21159801450E+01 -0.29522626298E+02  0.31886030118E+02  0.00000000000E+00 0.  1.
         11    1    3    3    0    0  0.55539607960E+01 -0.10545364165E+02  0.27655910966E+02  0.30114790345E+02  0.51100000000E-03 0. -1.
        -11    1    3    3    0    0  0.40857448928E+00  0.55419666669E+01  0.73623135525E+01  0.92240982625E+01  0.51100000000E-03 0.  1.
        -12    1    3    3    0    0 -0.17822386937E+02  0.71193776437E+01 -0.54955982202E+01  0.19963081274E+02  0.00000000000E+00 0.  1.
</event>
<event>
 7    1  0.6489567E-013  0.5930193E+02  0.7816164E-02  0.1266605E+00
        -11   -1    0    0    0    0  0.00000000000E+00  0.00000000000E+00  0.45593999997E+02  0.45594000000E+02  0.51100000000E-03 0. -1.
         11   -1    0    0    0    0 -0.00000000000E+00 -0.00000000000E+00 -0.45593999997E+02  0.45594000000E+02  0.51100000000E-03 0.  1.
    9900012    2    1    2    0    0  0.31294641857E+02  0.10908869475E+01  0.60147368650E+01  0.59301926193E+02  0.49999967473E+02 0.  0.
        -12    1    1    2    0    0 -0.31294641857E+02 -0.10908869475E+01 -0.60147368650E+01  0.31886073807E+02  0.00000000000E+00 0.  1.
         11    1    3    3    0    0  0.27988045269E+02  0.88256548930E+01  0.47312969135E+00  0.29350412505E+02  0.51100000000E-03 0. -1.
        -11    1    3    3    0    0  0.51751016348E+01 -0.43840412663E+01 -0.11026253025E+02  0.12945259780E+02  0.51100000000E-03 0.  1.
         12    1    3    3    0    0 -0.18685050469E+01 -0.33507266793E+01  0.16567860198E+02  0.17006253907E+02  0.00000000000E+00 0. -1.
</event>
<event>
 7    1  0.6489567E-013  0.5930195E+02  0.7816164E-02  0.1266605E+00
        -11   -1    0    0    0    0  0.00000000000E+00  0.00000000000E+00  0.45593999997E+02  0.45594000000E+02  0.51100000000E-03 0.  1.
         11   -1    0    0    0    0 -0.00000000000E+00 -0.00000000000E+00 -0.45593999997E+02  0.45594000000E+02  0.51100000000E-03 0. -1.
    9900012    2    1    2    0    0 -0.13623351678E+02  0.11264512716E+01 -0.28807211215E+02  0.59301952559E+02  0.50000015559E+02 0.  0.
        -12    1    1    2    0    0  0.13623351678E+02 -0.11264512716E+01  0.28807211215E+02  0.31886047441E+02  0.00000000000E+00 0.  1.
         11    1    3    3    0    0  0.72901979835E+00 -0.14555781787E+02 -0.14032323711E+02  0.20231370747E+02  0.51100000000E-03 0. -1.
        -11    1    3    3    0    0  0.57645887414E+01  0.14202042195E+02 -0.10126774181E+02  0.18370629859E+02  0.51100000000E-03 0.  1.
        -12    1    3    3    0    0 -0.20116960218E+02  0.14801908636E+01 -0.46481133233E+01  0.20699951953E+02  0.00000000000E+00 0.  1.
</event>
<event>
 7    1  0.6489567E-013  0.5930193E+02  0.7816164E-02  0.1266605E+00
        -11   -1    0    0    0    0  0.00000000000E+00  0.00000000000E+00  0.45593999997E+02  0.45594000000E+02  0.51100000000E-03 0.  1.
         11   -1    0    0    0    0 -0.00000000000E+00 -0.00000000000E+00 -0.45593999997E+02  0.45594000000E+02  0.51100000000E-03 0. -1.
    9900012    2    1    2    0    0  0.17062292670E+02  0.19967200646E+02 -0.18080661937E+02  0.59301932998E+02  0.49999979884E+02 0.  0.
        -12    1    1    2    0    0 -0.17062292670E+02 -0.19967200646E+02  0.18080661937E+02  0.31886067002E+02  0.00000000000E+00 0.  1.
         11    1    3    3    0    0  0.27114985911E+02  0.83225953906E+01 -0.22153225556E+02  0.35989629865E+02  0.51100000000E-03 0. -1.
        -11    1    3    3    0    0 -0.81078378144E+01  0.14081672569E+02 -0.21125142582E+01  0.16385763733E+02  0.51100000000E-03 0.  1.
        -12    1    3    3    0    0 -0.19448554268E+01 -0.24370673135E+01  0.61850778769E+01  0.69265394004E+01  0.00000000000E+00 0.  1.
</event>
<event>
 7    1  0.6489567E-013  0.5930181E+02  0.7816164E-02  0.1266605E+00
        -11   -1    0    0    0    0  0.00000000000E+00  0.00000000000E+00  0.45593999997E+02  0.45594000000E+02  0.51100000000E-03 0. -1.
         11   -1    0    0    0    0 -0.00000000000E+00 -0.00000000000E+00 -0.45593999997E+02  0.45594000000E+02  0.51100000000E-03 0.  1.
    9900012    2    1    2    0    0  0.17630216330E+02  0.22401219452E+02  0.14286011220E+02  0.59301807418E+02  0.49999750856E+02 0.  0.
        -12    1    1    2    0    0 -0.17630216330E+02 -0.22401219452E+02 -0.14286011220E+02  0.31886192582E+02  0.00000000000E+00 0.  1.
         11    1    3    3    0    0  0.21650976153E+02  0.21723127444E+02  0.12620485646E+02  0.33165278417E+02  0.51100000000E-03 0. -1.
        -11    1    3    3    0    0  0.98132792066E+01 -0.18077588842E+01  0.57280357334E+01  0.11505600141E+02  0.51100000000E-03 0.  1.
         12    1    3    3    0    0 -0.13834039029E+02  0.24858508923E+01 -0.40625101589E+01  0.14630928860E+02  0.00000000000E+00 0. -1.
</event>
<event>
 7    1  0.6489567E-013  0.5930195E+02  0.7816164E-02  0.1266605E+00
        -11   -1    0    0    0    0  0.00000000000E+00  0.00000000000E+00  0.45593999997E+02  0.45594000000E+02  0.51100000000E-03 0.  1.
         11   -1    0    0    0    0 -0.00000000000E+00 -0.00000000000E+00 -0.45593999997E+02  0.45594000000E+02  0.51100000000E-03 0. -1.
    9900012    2    1    2    0    0  0.14303101606E+02 -0.18268600041E+02 -0.21872344470E+02  0.59301954218E+02  0.50000018584E+02 0.  0.
        -12    1    1    2    0    0 -0.14303101606E+02  0.18268600041E+02  0.21872344470E+02  0.31886045782E+02  0.00000000000E+00 0.  1.
         11    1    3    3    0    0 -0.74294196329E+01  0.68933668708E+01  0.42586860334E+01  0.10993233823E+02  0.51100000000E-03 0. -1.
        -11    1    3    3    0    0 -0.40392283850E+01 -0.88223470603E+01 -0.34901032769E+01  0.10311643649E+02  0.51100000000E-03 0.  1.
         12    1    3    3    0    0  0.25771749623E+02 -0.16339619852E+02 -0.22640927226E+02  0.37997076746E+02  0.00000000000E+00 0. -1.
</event>
<event>
 7    1  0.6489567E-013  0.5930179E+02  0.7816164E-02  0.1266605E+00
        -11   -1    0    0    0    0  0.00000000000E+00  0.00000000000E+00  0.45593999997E+02  0.45594000000E+02  0.51100000000E-03 0.  1.
         11   -1    0    0    0    0 -0.00000000000E+00 -0.00000000000E+00 -0.45593999997E+02  0.45594000000E+02  0.51100000000E-03 0. -1.
    9900012    2    1    2    0    0 -0.45654875848E-01  0.14643235966E+02 -0.28324967205E+02  0.59301792777E+02  0.49999724154E+02 0.  0.
        -12    1    1    2    0    0  0.45654875848E-01 -0.14643235966E+02  0.28324967205E+02  0.31886207223E+02  0.00000000000E+00 0.  1.
         11    1    3    3    0    0  0.88634772380E+01 -0.14706688288E+02 -0.99808093278E+01  0.19861129481E+02  0.51100000000E-03 0. -1.
        -11    1    3    3    0    0 -0.23311073764E+01 -0.77712962412E+00  0.13965690476E+01  0.28263753146E+01  0.51100000000E-03 0.  1.
         12    1    3    3    0    0 -0.65780247374E+01  0.30127053879E+02 -0.19740726924E+02  0.36614287981E+02  0.00000000000E+00 0. -1.
</event>
<event>
 7    1  0.6489567E-013  0.5930196E+02  0.7816164E-02  0.1266605E+00
        -11   -1    0    0    0    0  0.00000000000E+00  0.00000000000E+00  0.45593999997E+02  0.45594000000E+02  0.51100000000E-03 0.  1.
         11   -1    0    0    0    0 -0.00000000000E+00 -0.00000000000E+00 -0.45593999997E+02  0.45594000000E+02  0.51100000000E-03 0. -1.
    9900012    2    1    2    0    0 -0.24148487779E+02 -0.20752468471E+02 -0.17044188096E+01  0.59301961470E+02  0.50000031811E+02 0.  0.
        -12    1    1    2    0    0  0.24148487779E+02  0.20752468471E+02  0.17044188096E+01  0.31886038530E+02  0.00000000000E+00 0.  1.
         11    1    3    3    0    0 -0.86725524397E+01  0.96643861905E+01  0.14812729853E+01  0.13069341842E+02  0.51100000000E-03 0. -1.
        -11    1    3    3    0    0  0.33729859151E+01  0.47784352547E+01 -0.23376220295E+01  0.62988057980E+01  0.51100000000E-03 0.  1.
         12    1    3    3    0    0 -0.18848921255E+02 -0.35195289916E+02 -0.84806976533E+00  0.39933813830E+02  0.00000000000E+00 0. -1.
</event>
<event>
 7    1  0.6489567E-013  0.5930197E+02  0.7816164E-02  0.1266605E+00
        -11   -1    0    0    0    0  0.00000000000E+00  0.00000000000E+00  0.45593999997E+02  0.45594000000E+02  0.51100000000E-03 0.  1.
         11   -1    0    0    0    0 -0.00000000000E+00 -0.00000000000E+00 -0.45593999997E+02  0.45594000000E+02  0.51100000000E-03 0. -1.
    9900012    2    1    2    0    0  0.18381336831E+02 -0.18089743237E+02 -0.18751177587E+02  0.59301968341E+02  0.50000044342E+02 0.  0.
        -12    1    1    2    0    0 -0.18381336831E+02  0.18089743237E+02  0.18751177587E+02  0.31886031659E+02  0.00000000000E+00 0.  1.
         11    1    3    3    0    0 -0.29582683159E+01  0.10437282672E+02 -0.71387865572E+01  0.12986550534E+02  0.51100000000E-03 0.  1.
        -11    1    3    3    0    0  0.77556269050E+01  0.36951916132E+01 -0.69243399386E+01  0.11034068769E+02  0.51100000000E-03 0. -1.
         12    1    3    3    0    0  0.13583978242E+02 -0.32222217522E+02 -0.46880510908E+01  0.35281349038E+02  0.00000000000E+00 0. -1.
</event>
<event>
 7    1  0.6489567E-013  0.5930195E+02  0.7816164E-02  0.1266605E+00
        -11   -1    0    0    0    0  0.00000000000E+00  0.00000000000E+00  0.45593999997E+02  0.45594000000E+02  0.51100000000E-03 0. -1.
         11   -1    0    0    0    0 -0.00000000000E+00 -0.00000000000E+00 -0.45593999997E+02  0.45594000000E+02  0.51100000000E-03 0.  1.
    9900012    2    1    2    0    0 -0.23498416346E+01 -0.25491219138E+01  0.31697012057E+02  0.59301947382E+02  0.50000006117E+02 0.  0.
        -12    1    1    2    0    0  0.23498416346E+01  0.25491219138E+01 -0.31697012057E+02  0.31886052618E+02  0.00000000000E+00 0.  1.
         11    1    3    3    0    0  0.70928177484E+01  0.36003078030E+01  0.15579531359E+02  0.17492629234E+02  0.51100000000E-03 0. -1.
        -11    1    3    3    0    0 -0.23140903518E+01  0.33600570459E+01  0.26021147578E+02  0.26339041726E+02  0.51100000000E-03 0.  1.
        -12    1    3    3    0    0 -0.71285690312E+01 -0.95094867627E+01 -0.99036668794E+01  0.15470276422E+02  0.00000000000E+00 0.  1.
</event>
<event>
 7    1  0.6489567E-013  0.5930194E+02  0.7816164E-02  0.1266605E+00
        -11   -1    0    0    0    0  0.00000000000E+00  0.00000000000E+00  0.45593999997E+02  0.45594000000E+02  0.51100000000E-03 0. -1.
         11   -1    0    0    0    0 -0.00000000000E+00 -0.00000000000E+00 -0.45593999997E+02  0.45594000000E+02  0.51100000000E-03 0.  1.
    9900012    2    1    2    0    0  0.13284736614E+02  0.12147444233E+02  0.26318741444E+02  0.59301940671E+02  0.49999993879E+02 0.  0.
        -12    1    1    2    0    0 -0.13284736614E+02 -0.12147444233E+02 -0.26318741444E+02  0.31886059329E+02  0.00000000000E+00 0.  1.
         11    1    3    3    0    0  0.31891706196E+01 -0.90617627211E+01  0.71819252415E+01  0.11994432179E+02  0.51100000000E-03 0. -1.
        -11    1    3    3    0    0 -0.13317178507E+02  0.73366832126E+01  0.11435237514E+02  0.19024689780E+02  0.51100000000E-03 0.  1.
         12    1    3    3    0    0  0.23412744502E+02  0.13872523741E+02  0.77015786887E+01  0.28282818713E+02  0.00000000000E+00 0. -1.
</event>
<event>
 7    1  0.6489567E-013  0.5930195E+02  0.7816164E-02  0.1266605E+00
        -11   -1    0    0    0    0  0.00000000000E+00  0.00000000000E+00  0.45593999997E+02  0.45594000000E+02  0.51100000000E-03 0.  1.
         11   -1    0    0    0    0 -0.00000000000E+00 -0.00000000000E+00 -0.45593999997E+02  0.45594000000E+02  0.51100000000E-03 0. -1.
    9900012    2    1    2    0    0  0.27509785956E+02 -0.14504214609E+02 -0.70398632668E+01  0.59301949138E+02  0.50000009320E+02 0.  0.
        -12    1    1    2    0    0 -0.27509785956E+02  0.14504214609E+02  0.70398632668E+01  0.31886050862E+02  0.00000000000E+00 0.  1.
         11    1    3    3    0    0  0.64822227559E+01 -0.18155981833E+01 -0.50986000296E+00  0.67509677901E+01  0.51100000000E-03 0. -1.
        -11    1    3    3    0    0  0.16714312255E+02  0.13688120278E+02  0.68471621016E+01  0.22663108790E+02  0.51100000000E-03 0.  1.
        -12    1    3    3    0    0  0.43132509449E+01 -0.26376736704E+02 -0.13377165365E+02  0.29887872558E+02  0.00000000000E+00 0.  1.
</event>
<event>
 7    1  0.6489567E-013  0.5930192E+02  0.7816164E-02  0.1266605E+00
        -11   -1    0    0    0    0  0.00000000000E+00  0.00000000000E+00  0.45593999997E+02  0.45594000000E+02  0.51100000000E-03 0.  1.
         11   -1    0    0    0    0 -0.00000000000E+00 -0.00000000000E+00 -0.45593999997E+02  0.45594000000E+02  0.51100000000E-03 0. -1.
    9900012    2    1    2    0    0  0.66369501876E+01  0.10581531952E+02 -0.29337762461E+02  0.59301917888E+02  0.49999952327E+02 0.  0.
        -12    1    1    2    0    0 -0.66369501876E+01 -0.10581531952E+02  0.29337762461E+02  0.31886082112E+02  0.00000000000E+00 0.  1.
         11    1    3    3    0    0 -0.51751839157E+01 -0.54697280879E+01 -0.35449503290E+02  0.36240415805E+02  0.51100000000E-03 0. -1.
        -11    1    3    3    0    0  0.55455546231E+01  0.94756071088E+01 -0.16639632322E+01  0.11104462169E+02  0.51100000000E-03 0.  1.
        -12    1    3    3    0    0  0.62665794802E+01  0.65756529310E+01  0.77757040616E+01  0.11957039914E+02  0.00000000000E+00 0.  1.
</event>
<event>
 7    1  0.6489567E-013  0.5930194E+02  0.7816164E-02  0.1266605E+00
        -11   -1    0    0    0    0  0.00000000000E+00  0.00000000000E+00  0.45593999997E+02  0.45594000000E+02  0.51100000000E-03 0. -1.
         11   -1    0    0    0    0 -0.00000000000E+00 -0.00000000000E+00 -0.45593999997E+02  0.45594000000E+02  0.51100000000E-03 0.  1.
    9900012    2    1    2    0    0  0.86191603514E+01  0.22527485540E+02  0.20855288783E+02  0.59301943483E+02  0.49999999007E+02 0.  0.
        -12    1    1    2    0    0 -0.86191603514E+01 -0.22527485540E+02 -0.20855288783E+02  0.31886056517E+02  0.00000000000E+00 0.  1.
         11    1    3    3    0    0 -0.12692800870E+02  0.18911812374E+02  0.13914839358E+02  0.26690571291E+02  0.51100000000E-03 0. -1.
        -11    1    3    3    0    0  0.37144909512E+01  0.98028197771E+01  0.90369128091E+01  0.13840466466E+02  0.51100000000E-03 0.  1.
        -12    1    3    3    0    0  0.17597470270E+02 -0.61871466106E+01 -0.20964633838E+01  0.18770905727E+02  0.00000000000E+00 0.  1.
</event>
<event>
 7    1  0.6489567E-013  0.5930195E+02  0.7816164E-02  0.1266605E+00
        -11   -1    0    0    0    0  0.00000000000E+00  0.00000000000E+00  0.45593999997E+02  0.45594000000E+02  0.51100000000E-03 0.  1.
         11   -1    0    0    0    0 -0.00000000000E+00 -0.00000000000E+00 -0.45593999997E+02  0.45594000000E+02  0.51100000000E-03 0. -1.
    9900012    2    1    2    0    0 -0.27712172914E+01  0.17921819615E+02 -0.26226868470E+02  0.59301954567E+02  0.50000019221E+02 0.  0.
        -12    1    1    2    0    0  0.27712172914E+01 -0.17921819615E+02  0.26226868470E+02  0.31886045433E+02  0.00000000000E+00 0.  1.
         11    1    3    3    0    0 -0.13476400258E+02  0.22690004320E+02 -0.23606926118E+02  0.35408143427E+02  0.51100000000E-03 0. -1.
        -11    1    3    3    0    0 -0.39289462702E+01  0.27247659750E+01  0.39370336737E+01  0.61936421289E+01  0.51100000000E-03 0.  1.
         12    1    3    3    0    0  0.14634129237E+02 -0.74929506796E+01 -0.65569760257E+01  0.17700169011E+02  0.00000000000E+00 0. -1.
</event>
<event>
 7    1  0.6489567E-013  0.5930196E+02  0.7816164E-02  0.1266605E+00
        -11   -1    0    0    0    0  0.00000000000E+00  0.00000000000E+00  0.45593999997E+02  0.45594000000E+02  0.51100000000E-03 0.  1.
         11   -1    0    0    0    0 -0.00000000000E+00 -0.00000000000E+00 -0.45593999997E+02  0.45594000000E+02  0.51100000000E-03 0. -1.
    9900012    2    1    2    0    0  0.81430527302E+01 -0.37160247500E+01 -0.30603947221E+02  0.59301957078E+02  0.50000023801E+02 0.  0.
        -12    1    1    2    0    0 -0.81430527302E+01  0.37160247500E+01  0.30603947221E+02  0.31886042922E+02  0.00000000000E+00 0.  1.
         11    1    3    3    0    0 -0.54572035157E+01 -0.38567666739E+01 -0.14204818197E+02  0.15698171220E+02  0.51100000000E-03 0. -1.
        -11    1    3    3    0    0  0.69001231891E+01 -0.17266371786E+02 -0.16636522454E+02  0.24950213913E+02  0.51100000000E-03 0.  1.
        -12    1    3    3    0    0  0.67001330568E+01  0.17407113710E+02  0.23739342971E+00  0.18653571946E+02  0.00000000000E+00 0.  1.
</event>
<event>
 7    1  0.6489567E-013  0.5930195E+02  0.7816164E-02  0.1266605E+00
        -11   -1    0    0    0    0  0.00000000000E+00  0.00000000000E+00  0.45593999997E+02  0.45594000000E+02  0.51100000000E-03 0. -1.
         11   -1    0    0    0    0 -0.00000000000E+00 -0.00000000000E+00 -0.45593999997E+02  0.45594000000E+02  0.51100000000E-03 0.  1.
    9900012    2    1    2    0    0 -0.15494670937E+02  0.17678956156E+02 -0.21542747642E+02  0.59301948282E+02  0.50000007758E+02 0.  0.
        -12    1    1    2    0    0  0.15494670937E+02 -0.17678956156E+02  0.21542747642E+02  0.31886051718E+02  0.00000000000E+00 0.  1.
         11    1    3    3    0    0  0.65128751261E+01  0.14237977941E+02 -0.23257613339E+01  0.15828667799E+02  0.51100000000E-03 0. -1.
        -11    1    3    3    0    0 -0.10007620264E+02 -0.21222949555E+01 -0.26477254614E+02  0.28384883501E+02  0.51100000000E-03 0.  1.
         12    1    3    3    0    0 -0.11999925800E+02  0.55632731708E+01  0.72602683066E+01  0.15088396981E+02  0.00000000000E+00 0. -1.
</event>
<event>
 7    1  0.6489567E-013  0.5930194E+02  0.7816164E-02  0.1266605E+00
        -11   -1    0    0    0    0  0.00000000000E+00  0.00000000000E+00  0.45593999997E+02  0.45594000000E+02  0.51100000000E-03 0.  1.
         11   -1    0    0    0    0 -0.00000000000E+00 -0.00000000000E+00 -0.45593999997E+02  0.45594000000E+02  0.51100000000E-03 0. -1.
    9900012    2    1    2    0    0 -0.72725644143E+01  0.16816499305E+02 -0.26096665284E+02  0.59301940649E+02  0.49999993837E+02 0.  0.
        -12    1    1    2    0    0  0.72725644143E+01 -0.16816499305E+02  0.26096665284E+02  0.31886059351E+02  0.00000000000E+00 0.  1.
         11    1    3    3    0    0  0.81653744063E+01  0.56597166400E+01 -0.11973836181E+02  0.15558871579E+02  0.51100000000E-03 0. -1.
        -11    1    3    3    0    0 -0.16840057192E+01 -0.22989715458E+01  0.11416467810E+02  0.11766770286E+02  0.51100000000E-03 0.  1.
        -12    1    3    3    0    0 -0.13753933101E+02  0.13455754210E+02 -0.25539296913E+02  0.31976298784E+02  0.00000000000E+00 0.  1.
</event>
<event>
 7    1  0.6489567E-013  0.5930194E+02  0.7816164E-02  0.1266605E+00
        -11   -1    0    0    0    0  0.00000000000E+00  0.00000000000E+00  0.45593999997E+02  0.45594000000E+02  0.51100000000E-03 0. -1.
         11   -1    0    0    0    0 -0.00000000000E+00 -0.00000000000E+00 -0.45593999997E+02  0.45594000000E+02  0.51100000000E-03 0.  1.
    9900012    2    1    2    0    0 -0.19343311787E+02 -0.18086782404E+02  0.17760211053E+02  0.59301944972E+02  0.50000001722E+02 0.  0.
        -12    1    1    2    0    0  0.19343311787E+02  0.18086782404E+02 -0.17760211053E+02  0.31886055028E+02  0.00000000000E+00 0.  1.
         11    1    3    3    0    0 -0.18812297208E+02 -0.18930047340E+02 -0.35069714386E+01  0.26917430551E+02  0.51100000000E-03 0. -1.
        -11    1    3    3    0    0  0.53304119446E+01 -0.81040942455E+01  0.13723839488E+01  0.97965847623E+01  0.51100000000E-03 0.  1.
         12    1    3    3    0    0 -0.58614265232E+01  0.89473591813E+01  0.19894798543E+02  0.22587929659E+02  0.00000000000E+00 0. -1.
</event>
<event>
 7    1  0.6489567E-013  0.5930200E+02  0.7816164E-02  0.1266605E+00
        -11   -1    0    0    0    0  0.00000000000E+00  0.00000000000E+00  0.45593999997E+02  0.45594000000E+02  0.51100000000E-03 0. -1.
         11   -1    0    0    0    0 -0.00000000000E+00 -0.00000000000E+00 -0.45593999997E+02  0.45594000000E+02  0.51100000000E-03 0.  1.
    9900012    2    1    2    0    0 -0.28198669849E+02 -0.93248778842E+01  0.11601672220E+02  0.59301997944E+02  0.50000098330E+02 0.  0.
        -12    1    1    2    0    0  0.28198669849E+02  0.93248778842E+01 -0.11601672220E+02  0.31886002056E+02  0.00000000000E+00 0.  1.
         11    1    3    3    0    0 -0.51766219965E+01 -0.87809212537E+01 -0.42525851888E+01  0.11044748725E+02  0.51100000000E-03 0. -1.
        -11    1    3    3    0    0 -0.88503468801E+01 -0.18816411591E+02  0.13981981530E+02  0.25057569572E+02  0.51100000000E-03 0.  1.
         12    1    3    3    0    0 -0.14171700973E+02  0.18272454961E+02  0.18722758782E+01  0.23199679647E+02  0.00000000000E+00 0. -1.
</event>
<event>
 7    1  0.6489567E-013  0.5930195E+02  0.7816164E-02  0.1266605E+00
        -11   -1    0    0    0    0  0.00000000000E+00  0.00000000000E+00  0.45593999997E+02  0.45594000000E+02  0.51100000000E-03 0.  1.
         11   -1    0    0    0    0 -0.00000000000E+00 -0.00000000000E+00 -0.45593999997E+02  0.45594000000E+02  0.51100000000E-03 0. -1.
    9900012    2    1    2    0    0  0.16544072132E+02  0.12332647788E+02 -0.24308843883E+02  0.59301946385E+02  0.50000004300E+02 0.  0.
        -12    1    1    2    0    0 -0.16544072132E+02 -0.12332647788E+02  0.24308843883E+02  0.31886053615E+02  0.00000000000E+00 0.  1.
         11    1    3    3    0    0  0.12167664529E+02  0.72426774486E+01 -0.13282562252E+02  0.19414811278E+02  0.51100000000E-03 0. -1.
        -11    1    3    3    0    0  0.18431725865E+02  0.65853713356E+01  0.32001558170E+01  0.19832716191E+02  0.51100000000E-03 0.  1.
        -12    1    3    3    0    0 -0.14055318263E+02 -0.14954009963E+01 -0.14226437449E+02  0.20054418916E+02  0.00000000000E+00 0.  1.
</event>
<event>
 7    1  0.6489567E-013  0.5930191E+02  0.7816164E-02  0.1266605E+00
        -11   -1    0    0    0    0  0.00000000000E+00  0.00000000000E+00  0.45593999997E+02  0.45594000000E+02  0.51100000000E-03 0. -1.
         11   -1    0    0    0    0 -0.00000000000E+00 -0.00000000000E+00 -0.45593999997E+02  0.45594000000E+02  0.51100000000E-03 0.  1.
    9900012    2    1    2    0    0  0.13061113119E+02  0.60396785438E+01  0.28454393520E+02  0.59301907367E+02  0.49999933140E+02 0.  0.
        -12    1    1    2    0    0 -0.13061113119E+02 -0.60396785438E+01 -0.28454393520E+02  0.31886092633E+02  0.00000000000E+00 0.  1.
         11    1    3    3    0    0 -0.14794696303E+02 -0.47841502703E+01  0.18783503247E+02  0.24384239316E+02  0.51100000000E-03 0. -1.
        -11    1    3    3    0    0  0.64206714417E+01  0.19082452937E+01 -0.41693028983E+01  0.78898357893E+01  0.51100000000E-03 0.  1.
        -12    1    3    3    0    0  0.21435137981E+02  0.89155835204E+01  0.13840193171E+02  0.27027832262E+02  0.00000000000E+00 0.  1.
</event>
<event>
 7    1  0.6489567E-013  0.5930195E+02  0.7816164E-02  0.1266605E+00
        -11   -1    0    0    0    0  0.00000000000E+00  0.00000000000E+00  0.45593999997E+02  0.45594000000E+02  0.51100000000E-03 0. -1.
         11   -1    0    0    0    0 -0.00000000000E+00 -0.00000000000E+00 -0.45593999997E+02  0.45594000000E+02  0.51100000000E-03 0.  1.
    9900012    2    1    2    0    0  0.30032413289E+02 -0.31368512174E+01  0.10243743298E+02  0.59301953517E+02  0.50000017306E+02 0.  0.
        -12    1    1    2    0    0 -0.30032413289E+02  0.31368512174E+01 -0.10243743298E+02  0.31886046483E+02  0.00000000000E+00 0.  1.
         11    1    3    3    0    0  0.73231443337E+00  0.43619478719E+01  0.15129128077E+01  0.46745886548E+01  0.51100000000E-03 0. -1.
        -11    1    3    3    0    0  0.10157487681E+02  0.12503463244E+02 -0.11960063081E+02  0.20063754839E+02  0.51100000000E-03 0.  1.
         12    1    3    3    0    0  0.19142611175E+02 -0.20002262334E+02  0.20690893571E+02  0.34563610023E+02  0.00000000000E+00 0. -1.
</event>
<event>
 7    1  0.6489567E-013  0.5930195E+02  0.7816164E-02  0.1266605E+00
        -11   -1    0    0    0    0  0.00000000000E+00  0.00000000000E+00  0.45593999997E+02  0.45594000000E+02  0.51100000000E-03 0.  1.
         11   -1    0    0    0    0 -0.00000000000E+00 -0.00000000000E+00 -0.45593999997E+02  0.45594000000E+02  0.51100000000E-03 0. -1.
    9900012    2    1    2    0    0  0.17598645231E+02 -0.25076643634E+01 -0.26471101677E+02  0.59301954172E+02  0.50000018502E+02 0.  0.
        -12    1    1    2    0    0 -0.17598645231E+02  0.25076643634E+01  0.26471101677E+02  0.31886045828E+02  0.00000000000E+00 0.  1.
         11    1    3    3    0    0  0.91101891117E+01  0.16408264120E+02 -0.74309909047E+01  0.20185299184E+02  0.51100000000E-03 0. -1.
        -11    1    3    3    0    0  0.14655025613E+02 -0.45737508956E+01 -0.11833471827E+01  0.15397703848E+02  0.51100000000E-03 0.  1.
         12    1    3    3    0    0 -0.61665694942E+01 -0.14342177588E+02 -0.17856763590E+02  0.23718951140E+02  0.00000000000E+00 0. -1.
</event>
<event>
 7    1  0.6489567E-013  0.5930195E+02  0.7816164E-02  0.1266605E+00
        -11   -1    0    0    0    0  0.00000000000E+00  0.00000000000E+00  0.45593999997E+02  0.45594000000E+02  0.51100000000E-03 0. -1.
         11   -1    0    0    0    0 -0.00000000000E+00 -0.00000000000E+00 -0.45593999997E+02  0.45594000000E+02  0.51100000000E-03 0.  1.
    9900012    2    1    2    0    0 -0.15207727593E+02 -0.47570299740E+01  0.27619119961E+02  0.59301951324E+02  0.50000013307E+02 0.  0.
        -12    1    1    2    0    0  0.15207727593E+02  0.47570299740E+01 -0.27619119961E+02  0.31886048676E+02  0.00000000000E+00 0.  1.
         11    1    3    3    0    0  0.53423601822E+00  0.13772863797E+02  0.17567539640E+02  0.22329255128E+02  0.51100000000E-03 0. -1.
        -11    1    3    3    0    0  0.42556451663E+01 -0.12405575805E+02  0.92386968915E+01  0.16042516865E+02  0.51100000000E-03 0.  1.
        -12    1    3    3    0    0 -0.19997608778E+02 -0.61243179657E+01  0.81288342907E+00  0.20930179332E+02  0.00000000000E+00 0.  1.
</event>
<event>
 7    1  0.6489567E-013  0.5930200E+02  0.7816164E-02  0.1266605E+00
        -11   -1    0    0    0    0  0.00000000000E+00  0.00000000000E+00  0.45593999997E+02  0.45594000000E+02  0.51100000000E-03 0.  1.
         11   -1    0    0    0    0 -0.00000000000E+00 -0.00000000000E+00 -0.45593999997E+02  0.45594000000E+02  0.51100000000E-03 0. -1.
    9900012    2    1    2    0    0  0.30261919088E+02 -0.18556123251E+01 -0.98737148832E+01  0.59301995397E+02  0.50000093685E+02 0.  0.
        -12    1    1    2    0    0 -0.30261919088E+02  0.18556123251E+01  0.98737148832E+01  0.31886004603E+02  0.00000000000E+00 0.  1.
         11    1    3    3    0    0  0.24494726750E+02  0.22402360188E+01  0.10852347995E+02  0.26884637867E+02  0.51100000000E-03 0. -1.
        -11    1    3    3    0    0  0.12327676470E+02  0.52224041156E+01 -0.12908171679E+02  0.18597473168E+02  0.51100000000E-03 0.  1.
         12    1    3    3    0    0 -0.65604841325E+01 -0.93182524595E+01 -0.78178911998E+01  0.13819884361E+02  0.00000000000E+00 0. -1.
</event>
<event>
 7    1  0.6489567E-013  0.5930195E+02  0.7816164E-02  0.1266605E+00
        -11   -1    0    0    0    0  0.00000000000E+00  0.00000000000E+00  0.45593999997E+02  0.45594000000E+02  0.51100000000E-03 0.  1.
         11   -1    0    0    0    0 -0.00000000000E+00 -0.00000000000E+00 -0.45593999997E+02  0.45594000000E+02  0.51100000000E-03 0. -1.
    9900012    2    1    2    0    0 -0.25355374862E+02  0.12999544994E+01 -0.19290806421E+02  0.59301950880E+02  0.50000012498E+02 0.  0.
        -12    1    1    2    0    0  0.25355374862E+02 -0.12999544994E+01  0.19290806421E+02  0.31886049120E+02  0.00000000000E+00 0.  1.
         11    1    3    3    0    0  0.27315613065E+01 -0.11971763143E+02 -0.83325106004E+01  0.14839652054E+02  0.51100000000E-03 0. -1.
        -11    1    3    3    0    0 -0.26947145454E+01  0.17791460839E+01  0.94051214311E+01  0.99440010390E+01  0.51100000000E-03 0.  1.
         12    1    3    3    0    0 -0.25392221623E+02  0.11492571558E+02 -0.20363417251E+02  0.34518297787E+02  0.00000000000E+00 0. -1.
</event>
<event>
 7    1  0.6489567E-013  0.5930196E+02  0.7816164E-02  0.1266605E+00
        -11   -1    0    0    0    0  0.00000000000E+00  0.00000000000E+00  0.45593999997E+02  0.45594000000E+02  0.51100000000E-03 0.  1.
         11   -1    0    0    0    0 -0.00000000000E+00 -0.00000000000E+00 -0.45593999997E+02  0.45594000000E+02  0.51100000000E-03 0. -1.
    9900012    2    1    2    0    0  0.24009081740E+02  0.20973459266E+02 -0.63059748232E+00  0.59301958340E+02  0.50000026102E+02 0.  0.
        -12    1    1    2    0    0 -0.24009081740E+02 -0.20973459266E+02  0.63059748232E+00  0.31886041660E+02  0.00000000000E+00 0.  1.
         11    1    3    3    0    0  0.23972768154E+01 -0.11821753467E+02  0.19768161167E+01  0.12223280794E+02  0.51100000000E-03 0. -1.
        -11    1    3    3    0    0 -0.32908381886E+01  0.93658053113E+01  0.62850325811E+01  0.11749449345E+02  0.51100000000E-03 0.  1.
         12    1    3    3    0    0  0.24902643113E+02  0.23429407422E+02 -0.88924461801E+01  0.35329228200E+02  0.00000000000E+00 0. -1.
</event>
<event>
 7    1  0.6489567E-013  0.5930205E+02  0.7816164E-02  0.1266604E+00
        -11   -1    0    0    0    0  0.00000000000E+00  0.00000000000E+00  0.45593999997E+02  0.45594000000E+02  0.51100000000E-03 0. -1.
         11   -1    0    0    0    0 -0.00000000000E+00 -0.00000000000E+00 -0.45593999997E+02  0.45594000000E+02  0.51100000000E-03 0.  1.
    9900012    2    1    2    0    0 -0.31376195680E+02  0.56604727484E+01  0.45492295363E+00  0.59302053849E+02  0.50000200287E+02 0.  0.
        -12    1    1    2    0    0  0.31376195680E+02 -0.56604727484E+01 -0.45492295363E+00  0.31885946151E+02  0.00000000000E+00 0.  1.
         11    1    3    3    0    0 -0.10680460109E+02  0.15109526180E+02  0.49177915027E+01  0.19145617855E+02  0.51100000000E-03 0. -1.
        -11    1    3    3    0    0  0.69451012510E+01 -0.57157761866E+01 -0.80045605264E+01  0.12040661040E+02  0.51100000000E-03 0.  1.
        -12    1    3    3    0    0 -0.27640836822E+02 -0.37332772445E+01  0.35416919774E+01  0.28115774954E+02  0.00000000000E+00 0.  1.
</event>
<event>
 7    1  0.6489567E-013  0.5930197E+02  0.7816164E-02  0.1266605E+00
        -11   -1    0    0    0    0  0.00000000000E+00  0.00000000000E+00  0.45593999997E+02  0.45594000000E+02  0.51100000000E-03 0. -1.
         11   -1    0    0    0    0 -0.00000000000E+00 -0.00000000000E+00 -0.45593999997E+02  0.45594000000E+02  0.51100000000E-03 0.  1.
    9900012    2    1    2    0    0 -0.26311678334E+02  0.17951771909E+00  0.18010613820E+02  0.59301970873E+02  0.50000048959E+02 0.  0.
        -12    1    1    2    0    0  0.26311678334E+02 -0.17951771909E+00 -0.18010613820E+02  0.31886029127E+02  0.00000000000E+00 0.  1.
         11    1    3    3    0    0 -0.18342215687E+02 -0.10479516968E+02  0.65174589276E+01  0.22107338676E+02  0.51100000000E-03 0. -1.
        -11    1    3    3    0    0  0.58880252806E+01 -0.92848985559E+01  0.48510151738E+01  0.12017093300E+02  0.51100000000E-03 0.  1.
         12    1    3    3    0    0 -0.13857487928E+02  0.19943933243E+02  0.66421397182E+01  0.25177538897E+02  0.00000000000E+00 0. -1.
</event>
<event>
 7    1  0.6489567E-013  0.5930195E+02  0.7816164E-02  0.1266605E+00
        -11   -1    0    0    0    0  0.00000000000E+00  0.00000000000E+00  0.45593999997E+02  0.45594000000E+02  0.51100000000E-03 0.  1.
         11   -1    0    0    0    0 -0.00000000000E+00 -0.00000000000E+00 -0.45593999997E+02  0.45594000000E+02  0.51100000000E-03 0. -1.
    9900012    2    1    2    0    0  0.56902462955E+01 -0.21354987674E+02 -0.22984901368E+02  0.59301951446E+02  0.50000013530E+02 0.  0.
        -12    1    1    2    0    0 -0.56902462955E+01  0.21354987674E+02  0.22984901368E+02  0.31886048554E+02  0.00000000000E+00 0.  1.
         11    1    3    3    0    0  0.31738507975E+01 -0.49194416094E+01  0.84190641278E+01  0.10254505141E+02  0.51100000000E-03 0. -1.
        -11    1    3    3    0    0  0.38352907047E+01  0.71075921804E+01  0.18463357022E+01  0.82847013934E+01  0.51100000000E-03 0.  1.
         12    1    3    3    0    0 -0.13188952067E+01 -0.23543138245E+02 -0.33250301198E+02  0.40762744912E+02  0.00000000000E+00 0. -1.
</event>
<event>
 7    1  0.6489567E-013  0.5930195E+02  0.7816164E-02  0.1266605E+00
        -11   -1    0    0    0    0  0.00000000000E+00  0.00000000000E+00  0.45593999997E+02  0.45594000000E+02  0.51100000000E-03 0. -1.
         11   -1    0    0    0    0 -0.00000000000E+00 -0.00000000000E+00 -0.45593999997E+02  0.45594000000E+02  0.51100000000E-03 0.  1.
    9900012    2    1    2    0    0 -0.20269383299E+02 -0.90242274872E+01  0.22900557473E+02  0.59301951113E+02  0.50000012921E+02 0.  0.
        -12    1    1    2    0    0  0.20269383299E+02  0.90242274872E+01 -0.22900557473E+02  0.31886048887E+02  0.00000000000E+00 0.  1.
         11    1    3    3    0    0 -0.94768972641E+01  0.15769555429E+02 -0.48060818457E+00  0.18404386560E+02  0.51100000000E-03 0. -1.
        -11    1    3    3    0    0 -0.33213981643E+01 -0.19960624649E+01 -0.32473518051E+01  0.50558130045E+01  0.51100000000E-03 0.  1.
        -12    1    3    3    0    0 -0.74710878705E+01 -0.22797720451E+02  0.26628517463E+02  0.35841751548E+02  0.00000000000E+00 0.  1.
</event>
<event>
 7    1  0.6489567E-013  0.5930218E+02  0.7816164E-02  0.1266604E+00
        -11   -1    0    0    0    0  0.00000000000E+00  0.00000000000E+00  0.45593999997E+02  0.45594000000E+02  0.51100000000E-03 0.  1.
         11   -1    0    0    0    0 -0.00000000000E+00 -0.00000000000E+00 -0.45593999997E+02  0.45594000000E+02  0.51100000000E-03 0. -1.
    9900012    2    1    2    0    0  0.17227627252E+02 -0.84111104068E+01 -0.25478768632E+02  0.59302179170E+02  0.50000428841E+02 0.  0.
        -12    1    1    2    0    0 -0.17227627252E+02  0.84111104068E+01  0.25478768632E+02  0.31885820830E+02  0.00000000000E+00 0.  1.
         11    1    3    3    0    0  0.12139062044E+02  0.18851501095E+01 -0.23164716007E+02  0.26220501258E+02  0.51100000000E-03 0. -1.
        -11    1    3    3    0    0  0.13851186742E+02 -0.13078093666E+02 -0.96178409322E+01  0.21339980613E+02  0.51100000000E-03 0.  1.
        -12    1    3    3    0    0 -0.87626215341E+01  0.27818331497E+01  0.73037883079E+01  0.11741697299E+02  0.00000000000E+00 0.  1.
</event>
<event>
 7    1  0.6489567E-013  0.5930192E+02  0.7816164E-02  0.1266605E+00
        -11   -1    0    0    0    0  0.00000000000E+00  0.00000000000E+00  0.45593999997E+02  0.45594000000E+02  0.51100000000E-03 0.  1.
         11   -1    0    0    0    0 -0.00000000000E+00 -0.00000000000E+00 -0.45593999997E+02  0.45594000000E+02  0.51100000000E-03 0. -1.
    9900012    2    1    2    0    0 -0.90228102104E+01 -0.27325318147E+02 -0.13734555397E+02  0.59301919528E+02  0.49999955318E+02 0.  0.
        -12    1    1    2    0    0  0.90228102104E+01  0.27325318147E+02  0.13734555397E+02  0.31886080472E+02  0.00000000000E+00 0.  1.
         11    1    3    3    0    0 -0.12567901434E+01  0.37644893741E+01 -0.87526431534E+01  0.96103935478E+01  0.51100000000E-03 0. -1.
        -11    1    3    3    0    0 -0.15061876865E+02 -0.23143472020E+01  0.80922872286E+01  0.17254027081E+02  0.51100000000E-03 0.  1.
         12    1    3    3    0    0  0.72958567982E+01 -0.28775460319E+02 -0.13074199472E+02  0.32437498899E+02  0.00000000000E+00 0. -1.
</event>
<event>
 7    1  0.6489567E-013  0.5930194E+02  0.7816164E-02  0.1266605E+00
        -11   -1    0    0    0    0  0.00000000000E+00  0.00000000000E+00  0.45593999997E+02  0.45594000000E+02  0.51100000000E-03 0.  1.
         11   -1    0    0    0    0 -0.00000000000E+00 -0.00000000000E+00 -0.45593999997E+02  0.45594000000E+02  0.51100000000E-03 0. -1.
    9900012    2    1    2    0    0  0.27928137363E+02 -0.17063446896E+01  0.15291444843E+02  0.59301941069E+02  0.49999994604E+02 0.  0.
        -12    1    1    2    0    0 -0.27928137363E+02  0.17063446896E+01 -0.15291444843E+02  0.31886058931E+02  0.00000000000E+00 0.  1.
         11    1    3    3    0    0  0.10317818850E+02 -0.11460286541E+02  0.12595596068E+02  0.19910916453E+02  0.51100000000E-03 0. -1.
        -11    1    3    3    0    0 -0.53818046466E+01 -0.77873983741E+01 -0.29713133911E+01  0.99214967732E+01  0.51100000000E-03 0.  1.
        -12    1    3    3    0    0  0.22992123159E+02  0.17541340225E+02  0.56671621662E+01  0.29469527843E+02  0.00000000000E+00 0.  1.
</event>
<event>
 7    1  0.6489567E-013  0.5930204E+02  0.7816164E-02  0.1266604E+00
        -11   -1    0    0    0    0  0.00000000000E+00  0.00000000000E+00  0.45593999997E+02  0.45594000000E+02  0.51100000000E-03 0.  1.
         11   -1    0    0    0    0 -0.00000000000E+00 -0.00000000000E+00 -0.45593999997E+02  0.45594000000E+02  0.51100000000E-03 0. -1.
    9900012    2    1    2    0    0  0.78921099481E+01  0.24344142361E+02 -0.19020821214E+02  0.59302042175E+02  0.50000178997E+02 0.  0.
        -12    1    1    2    0    0 -0.78921099481E+01 -0.24344142361E+02  0.19020821214E+02  0.31885957825E+02  0.00000000000E+00 0.  1.
         11    1    3    3    0    0  0.15363265901E+02  0.24663749425E+02 -0.75461136242E+01  0.30021230920E+02  0.51100000000E-03 0. -1.
        -11    1    3    3    0    0 -0.20646965639E+01  0.12528691557E+02 -0.32934654162E+01  0.13117850385E+02  0.51100000000E-03 0.  1.
        -12    1    3    3    0    0 -0.54064593894E+01 -0.12848298620E+02 -0.81812421737E+01  0.16162960870E+02  0.00000000000E+00 0.  1.
</event>
<event>
 7    1  0.6489567E-013  0.5930193E+02  0.7816164E-02  0.1266605E+00
        -11   -1    0    0    0    0  0.00000000000E+00  0.00000000000E+00  0.45593999997E+02  0.45594000000E+02  0.51100000000E-03 0.  1.
         11   -1    0    0    0    0 -0.00000000000E+00 -0.00000000000E+00 -0.45593999997E+02  0.45594000000E+02  0.51100000000E-03 0. -1.
    9900012    2    1    2    0    0  0.94108460652E+01 -0.11742864721E+02 -0.28111610734E+02  0.59301928533E+02  0.49999971742E+02 0.  0.
        -12    1    1    2    0    0 -0.94108460652E+01  0.11742864721E+02  0.28111610734E+02  0.31886071467E+02  0.00000000000E+00 0.  1.
         11    1    3    3    0    0  0.90627019433E+01 -0.29528794437E+01 -0.74785214194E+01  0.12115293905E+02  0.51100000000E-03 0. -1.
        -11    1    3    3    0    0  0.10864217501E+02  0.11218130369E+01 -0.28649700959E+02  0.30660969516E+02  0.51100000000E-03 0.  1.
        -12    1    3    3    0    0 -0.10516073379E+02 -0.99117983144E+01  0.80166116443E+01  0.16525665112E+02  0.00000000000E+00 0.  1.
</event>
<event>
 7    1  0.6489567E-013  0.5930193E+02  0.7816164E-02  0.1266605E+00
        -11   -1    0    0    0    0  0.00000000000E+00  0.00000000000E+00  0.45593999997E+02  0.45594000000E+02  0.51100000000E-03 0. -1.
         11   -1    0    0    0    0 -0.00000000000E+00 -0.00000000000E+00 -0.45593999997E+02  0.45594000000E+02  0.51100000000E-03 0.  1.
    9900012    2    1    2    0    0 -0.22483583582E+02 -0.45900971008E+01  0.22139131576E+02  0.59301926723E+02  0.49999968440E+02 0.  0.
        -12    1    1    2    0    0  0.22483583582E+02  0.45900971008E+01 -0.22139131576E+02  0.31886073277E+02  0.00000000000E+00 0.  1.
         11    1    3    3    0    0 -0.14497441567E+02  0.13758630030E+02  0.46818513911E+01  0.20527918672E+02  0.51100000000E-03 0. -1.
        -11    1    3    3    0    0  0.75534635896E+01 -0.81560259296E+00 -0.24995280486E+01  0.79979785269E+01  0.51100000000E-03 0.  1.
        -12    1    3    3    0    0 -0.15539605605E+02 -0.17533124538E+02  0.19956808234E+02  0.30776029524E+02  0.00000000000E+00 0.  1.
</event>
<event>
 7    1  0.6489567E-013  0.5930194E+02  0.7816164E-02  0.1266605E+00
        -11   -1    0    0    0    0  0.00000000000E+00  0.00000000000E+00  0.45593999997E+02  0.45594000000E+02  0.51100000000E-03 0.  1.
         11   -1    0    0    0    0 -0.00000000000E+00 -0.00000000000E+00 -0.45593999997E+02  0.45594000000E+02  0.51100000000E-03 0. -1.
    9900012    2    1    2    0    0  0.29322570366E+02  0.10700736163E+02 -0.65116555414E+01  0.59301944346E+02  0.50000000580E+02 0.  0.
        -12    1    1    2    0    0 -0.29322570366E+02 -0.10700736163E+02  0.65116555414E+01  0.31886055654E+02  0.00000000000E+00 0.  1.
         11    1    3    3    0    0  0.23106728433E+02 -0.15757320220E+02  0.11829352892E+01  0.27993095141E+02  0.51100000000E-03 0. -1.
        -11    1    3    3    0    0  0.96920097084E+00  0.14521846283E+02  0.24881599727E+01  0.14765307660E+02  0.51100000000E-03 0.  1.
        -12    1    3    3    0    0  0.52466409614E+01  0.11936210100E+02 -0.10182750803E+02  0.16543541545E+02  0.00000000000E+00 0.  1.
</event>
<event>
 7    1  0.6489567E-013  0.5930192E+02  0.7816164E-02  0.1266605E+00
        -11   -1    0    0    0    0  0.00000000000E+00  0.00000000000E+00  0.45593999997E+02  0.45594000000E+02  0.51100000000E-03 0.  1.
         11   -1    0    0    0    0 -0.00000000000E+00 -0.00000000000E+00 -0.45593999997E+02  0.45594000000E+02  0.51100000000E-03 0. -1.
    9900012    2    1    2    0    0  0.16609918293E+02  0.25554856712E+02 -0.93691994640E+01  0.59301921755E+02  0.49999959379E+02 0.  0.
        -12    1    1    2    0    0 -0.16609918293E+02 -0.25554856712E+02  0.93691994640E+01  0.31886078245E+02  0.00000000000E+00 0.  1.
         11    1    3    3    0    0  0.59947681160E+01  0.60547101643E+01 -0.10210350178E+02  0.13298421371E+02  0.51100000000E-03 0. -1.
        -11    1    3    3    0    0  0.22412299383E+01 -0.28557740122E+01 -0.16245387969E+02  0.16646056210E+02  0.51100000000E-03 0.  1.
         12    1    3    3    0    0  0.83739202389E+01  0.22355920560E+02  0.17086538683E+02  0.29357444173E+02  0.00000000000E+00 0. -1.
</event>
<event>
 7    1  0.6489567E-013  0.5930195E+02  0.7816164E-02  0.1266605E+00
        -11   -1    0    0    0    0  0.00000000000E+00  0.00000000000E+00  0.45593999997E+02  0.45594000000E+02  0.51100000000E-03 0.  1.
         11   -1    0    0    0    0 -0.00000000000E+00 -0.00000000000E+00 -0.45593999997E+02  0.45594000000E+02  0.51100000000E-03 0. -1.
    9900012    2    1    2    0    0 -0.19484505843E+02  0.13420910050E+02  0.21376468319E+02  0.59301949879E+02  0.50000010672E+02 0.  0.
        -12    1    1    2    0    0  0.19484505843E+02 -0.13420910050E+02 -0.21376468319E+02  0.31886050121E+02  0.00000000000E+00 0.  1.
         11    1    3    3    0    0  0.61701292131E+01  0.15844833787E+01 -0.27907193333E+01  0.69547966715E+01  0.51100000000E-03 0. -1.
        -11    1    3    3    0    0  0.61693318092E+01  0.12076527557E+02  0.12523364983E+02  0.18459085665E+02  0.51100000000E-03 0.  1.
         12    1    3    3    0    0 -0.31823966865E+02 -0.24010088634E+00  0.11643822669E+02  0.33888067543E+02  0.00000000000E+00 0. -1.
</event>
<event>
 7    1  0.6489567E-013  0.5930196E+02  0.7816164E-02  0.1266605E+00
        -11   -1    0    0    0    0  0.00000000000E+00  0.00000000000E+00  0.45593999997E+02  0.45594000000E+02  0.51100000000E-03 0. -1.
         11   -1    0    0    0    0 -0.00000000000E+00 -0.00000000000E+00 -0.45593999997E+02  0.45594000000E+02  0.51100000000E-03 0.  1.
    9900012    2    1    2    0    0 -0.17181799098E+02  0.22451412466E+02  0.14745829996E+02  0.59301958473E+02  0.50000026345E+02 0.  0.
        -12    1    1    2    0    0  0.17181799098E+02 -0.22451412466E+02 -0.14745829996E+02  0.31886041527E+02  0.00000000000E+00 0.  1.
         11    1    3    3    0    0 -0.19197264629E+02  0.95647152841E+00  0.72320769813E+01  0.20536619604E+02  0.51100000000E-03 0. -1.
        -11    1    3    3    0    0 -0.94482009116E+01  0.45655345174E+01  0.13835528853E+02  0.17364747761E+02  0.51100000000E-03 0.  1.
        -12    1    3    3    0    0  0.11463666442E+02  0.16929406420E+02 -0.63217758385E+01  0.21400591109E+02  0.00000000000E+00 0.  1.
</event>
<event>
 7    1  0.6489567E-013  0.5930197E+02  0.7816164E-02  0.1266605E+00
        -11   -1    0    0    0    0  0.00000000000E+00  0.00000000000E+00  0.45593999997E+02  0.45594000000E+02  0.51100000000E-03 0.  1.
         11   -1    0    0    0    0 -0.00000000000E+00 -0.00000000000E+00 -0.45593999997E+02  0.45594000000E+02  0.51100000000E-03 0. -1.
    9900012    2    1    2    0    0 -0.37095561560E+01 -0.24541867808E+02 -0.20016360353E+02  0.59301972274E+02  0.50000051514E+02 0.  0.
        -12    1    1    2    0    0  0.37095561560E+01  0.24541867808E+02  0.20016360353E+02  0.31886027726E+02  0.00000000000E+00 0.  1.
         11    1    3    3    0    0 -0.68794330516E+01 -0.11028787816E+02 -0.19609052714E+02  0.23526064448E+02  0.51100000000E-03 0. -1.
        -11    1    3    3    0    0  0.68675942246E+01  0.28348903344E+01 -0.12889656217E+02  0.14877623846E+02  0.51100000000E-03 0.  1.
        -12    1    3    3    0    0 -0.36977173291E+01 -0.16347970326E+02  0.12482348579E+02  0.20898283979E+02  0.00000000000E+00 0.  1.
</event>
<event>
 7    1  0.6489567E-013  0.5930195E+02  0.7816164E-02  0.1266605E+00
        -11   -1    0    0    0    0  0.00000000000E+00  0.00000000000E+00  0.45593999997E+02  0.45594000000E+02  0.51100000000E-03 0.  1.
         11   -1    0    0    0    0 -0.00000000000E+00 -0.00000000000E+00 -0.45593999997E+02  0.45594000000E+02  0.51100000000E-03 0. -1.
    9900012    2    1    2    0    0 -0.14892736761E+02  0.21199345717E+02  0.18588017504E+02  0.59301948790E+02  0.50000008685E+02 0.  0.
        -12    1    1    2    0    0  0.14892736761E+02 -0.21199345717E+02 -0.18588017504E+02  0.31886051210E+02  0.00000000000E+00 0.  1.
         11    1    3    3    0    0 -0.17738271414E+02  0.15046350924E+02  0.26744661434E+02  0.35444546328E+02  0.51100000000E-03 0. -1.
        -11    1    3    3    0    0 -0.68841299731E+00  0.10858456983E+02  0.29630886364E+01  0.11276519633E+02  0.51100000000E-03 0.  1.
         12    1    3    3    0    0  0.35339476503E+01 -0.47054621898E+01 -0.11119732567E+02  0.12580882830E+02  0.00000000000E+00 0. -1.
</event>
<event>
 7    1  0.6489567E-013  0.5930197E+02  0.7816164E-02  0.1266605E+00
        -11   -1    0    0    0    0  0.00000000000E+00  0.00000000000E+00  0.45593999997E+02  0.45594000000E+02  0.51100000000E-03 0.  1.
         11   -1    0    0    0    0 -0.00000000000E+00 -0.00000000000E+00 -0.45593999997E+02  0.45594000000E+02  0.51100000000E-03 0. -1.
    9900012    2    1    2    0    0  0.29465641339E+02 -0.90464791396E+01 -0.81643376347E+01  0.59301965230E+02  0.50000038668E+02 0.  0.
        -12    1    1    2    0    0 -0.29465641339E+02  0.90464791396E+01  0.81643376347E+01  0.31886034770E+02  0.00000000000E+00 0.  1.
         11    1    3    3    0    0  0.29486083610E+02 -0.21354172568E+02 -0.87749847905E+01  0.37449034314E+02  0.51100000000E-03 0.  1.
        -11    1    3    3    0    0  0.49177997320E+01  0.40793648606E+01 -0.70932730763E+01  0.95467531165E+01  0.51100000000E-03 0. -1.
        -12    1    3    3    0    0 -0.49382420035E+01  0.82283285674E+01  0.77039202322E+01  0.12306177800E+02  0.00000000000E+00 0.  1.
</event>
<event>
 7    1  0.6489567E-013  0.5930195E+02  0.7816164E-02  0.1266605E+00
        -11   -1    0    0    0    0  0.00000000000E+00  0.00000000000E+00  0.45593999997E+02  0.45594000000E+02  0.51100000000E-03 0.  1.
         11   -1    0    0    0    0 -0.00000000000E+00 -0.00000000000E+00 -0.45593999997E+02  0.45594000000E+02  0.51100000000E-03 0. -1.
    9900012    2    1    2    0    0  0.15584408581E+02 -0.11388332631E+02 -0.25380155215E+02  0.59301949920E+02  0.50000010747E+02 0.  0.
        -12    1    1    2    0    0 -0.15584408581E+02  0.11388332631E+02  0.25380155215E+02  0.31886050080E+02  0.00000000000E+00 0.  1.
         11    1    3    3    0    0  0.68407955796E+01  0.26873794842E+01 -0.17684458175E+01  0.75594902953E+01  0.51100000000E-03 0. -1.
        -11    1    3    3    0    0  0.16478234747E+02 -0.63614084149E+01  0.71825361727E+01  0.19067998415E+02  0.51100000000E-03 0.  1.
         12    1    3    3    0    0 -0.77346217456E+01 -0.77143037002E+01 -0.30794245571E+02  0.32674461210E+02  0.00000000000E+00 0. -1.
</event>
<event>
 7    1  0.6489567E-013  0.5930193E+02  0.7816164E-02  0.1266605E+00
        -11   -1    0    0    0    0  0.00000000000E+00  0.00000000000E+00  0.45593999997E+02  0.45594000000E+02  0.51100000000E-03 0. -1.
         11   -1    0    0    0    0 -0.00000000000E+00 -0.00000000000E+00 -0.45593999997E+02  0.45594000000E+02  0.51100000000E-03 0.  1.
    9900012    2    1    2    0    0 -0.24302848055E+02 -0.20602526375E+02  0.12763265789E+01  0.59301928963E+02  0.49999972526E+02 0.  0.
        -12    1    1    2    0    0  0.24302848055E+02  0.20602526375E+02 -0.12763265789E+01  0.31886071037E+02  0.00000000000E+00 0.  1.
         11    1    3    3    0    0 -0.47972354045E+01  0.30177099247E+01 -0.76789206019E+01  0.95438913755E+01  0.51100000000E-03 0. -1.
        -11    1    3    3    0    0 -0.12501413765E+02  0.90646995441E+01  0.15409888160E+01  0.15518658793E+02  0.51100000000E-03 0.  1.
         12    1    3    3    0    0 -0.70041988858E+01 -0.32684935844E+02  0.74142583648E+01  0.34239378795E+02  0.00000000000E+00 0. -1.
</event>
<event>
 7    1  0.6489567E-013  0.5930195E+02  0.7816164E-02  0.1266605E+00
        -11   -1    0    0    0    0  0.00000000000E+00  0.00000000000E+00  0.45593999997E+02  0.45594000000E+02  0.51100000000E-03 0.  1.
         11   -1    0    0    0    0 -0.00000000000E+00 -0.00000000000E+00 -0.45593999997E+02  0.45594000000E+02  0.51100000000E-03 0. -1.
    9900012    2    1    2    0    0  0.23114789093E+02  0.18680281447E+01 -0.21884640407E+02  0.59301945215E+02  0.50000002166E+02 0.  0.
        -12    1    1    2    0    0 -0.23114789093E+02 -0.18680281447E+01  0.21884640407E+02  0.31886054785E+02  0.00000000000E+00 0.  1.
         11    1    3    3    0    0  0.17061635834E+02  0.77997172116E+01 -0.13678701018E+02  0.23217275200E+02  0.51100000000E-03 0. -1.
        -11    1    3    3    0    0 -0.11476477224E+02  0.61795664866E+01 -0.68753329456E+01  0.14736579481E+02  0.51100000000E-03 0.  1.
         12    1    3    3    0    0  0.17529630483E+02 -0.12111255553E+02 -0.13306064443E+01  0.21348090534E+02  0.00000000000E+00 0. -1.
</event>
<event>
 7    1  0.6489567E-013  0.5930193E+02  0.7816164E-02  0.1266605E+00
        -11   -1    0    0    0    0  0.00000000000E+00  0.00000000000E+00  0.45593999997E+02  0.45594000000E+02  0.51100000000E-03 0.  1.
         11   -1    0    0    0    0 -0.00000000000E+00 -0.00000000000E+00 -0.45593999997E+02  0.45594000000E+02  0.51100000000E-03 0. -1.
    9900012    2    1    2    0    0  0.22790535444E+02  0.17443505761E+02  0.13893766416E+02  0.59301934951E+02  0.49999983447E+02 0.  0.
        -12    1    1    2    0    0 -0.22790535444E+02 -0.17443505761E+02 -0.13893766416E+02  0.31886065049E+02  0.00000000000E+00 0.  1.
         11    1    3    3    0    0  0.27066743054E+02  0.16468408795E+02  0.11422005957E+02  0.33679063053E+02  0.51100000000E-03 0.  1.
        -11    1    3    3    0    0  0.58239248184E+01 -0.76180329143E+01 -0.45540619030E+01  0.10615649102E+02  0.51100000000E-03 0. -1.
        -12    1    3    3    0    0 -0.10100132428E+02  0.85931298802E+01  0.70258223618E+01  0.15007222797E+02  0.00000000000E+00 0.  1.
</event>
<event>
 7    1  0.6489567E-013  0.5930198E+02  0.7816164E-02  0.1266605E+00
        -11   -1    0    0    0    0  0.00000000000E+00  0.00000000000E+00  0.45593999997E+02  0.45594000000E+02  0.51100000000E-03 0.  1.
         11   -1    0    0    0    0 -0.00000000000E+00 -0.00000000000E+00 -0.45593999997E+02  0.45594000000E+02  0.51100000000E-03 0. -1.
    9900012    2    1    2    0    0  0.22208215594E+02 -0.13633033543E+02 -0.18375351522E+02  0.59301984460E+02  0.50000073739E+02 0.  0.
        -12    1    1    2    0    0 -0.22208215594E+02  0.13633033543E+02  0.18375351522E+02  0.31886015540E+02  0.00000000000E+00 0.  1.
         11    1    3    3    0    0  0.11455411168E+02 -0.12102956435E+02  0.12677690023E+02  0.20938763671E+02  0.51100000000E-03 0.  1.
        -11    1    3    3    0    0  0.50148595437E+01 -0.88831434304E+01 -0.64936579683E+01  0.12092421078E+02  0.51100000000E-03 0. -1.
         12    1    3    3    0    0  0.57379448820E+01  0.73530663217E+01 -0.24559383577E+02  0.26270799711E+02  0.00000000000E+00 0. -1.
</event>
<event>
 7    1  0.6489567E-013  0.5930195E+02  0.7816164E-02  0.1266605E+00
        -11   -1    0    0    0    0  0.00000000000E+00  0.00000000000E+00  0.45593999997E+02  0.45594000000E+02  0.51100000000E-03 0.  1.
         11   -1    0    0    0    0 -0.00000000000E+00 -0.00000000000E+00 -0.45593999997E+02  0.45594000000E+02  0.51100000000E-03 0. -1.
    9900012    2    1    2    0    0 -0.51522328459E+00  0.15852629287E+02 -0.27661323913E+02  0.59301950527E+02  0.50000011854E+02 0.  0.
        -12    1    1    2    0    0  0.51522328459E+00 -0.15852629287E+02  0.27661323913E+02  0.31886049473E+02  0.00000000000E+00 0.  1.
         11    1    3    3    0    0 -0.11062435365E+01  0.23365396816E+02 -0.16794231315E+02  0.28796037034E+02  0.51100000000E-03 0. -1.
        -11    1    3    3    0    0 -0.22310329472E+01  0.95761476082E+01  0.40442157513E+00  0.98409180516E+01  0.51100000000E-03 0.  1.
         12    1    3    3    0    0  0.28220531991E+01 -0.17088915138E+02 -0.11271514173E+02  0.20664995442E+02  0.00000000000E+00 0. -1.
</event>
<event>
 7    1  0.6489567E-013  0.5930202E+02  0.7816164E-02  0.1266605E+00
        -11   -1    0    0    0    0  0.00000000000E+00  0.00000000000E+00  0.45593999997E+02  0.45594000000E+02  0.51100000000E-03 0.  1.
         11   -1    0    0    0    0 -0.00000000000E+00 -0.00000000000E+00 -0.45593999997E+02  0.45594000000E+02  0.51100000000E-03 0. -1.
    9900012    2    1    2    0    0  0.29680842331E+02 -0.76367050119E+01 -0.88002455338E+01  0.59302015832E+02  0.50000130953E+02 0.  0.
        -12    1    1    2    0    0 -0.29680842331E+02  0.76367050119E+01  0.88002455338E+01  0.31885984168E+02  0.00000000000E+00 0.  1.
         11    1    3    3    0    0  0.24677074871E+02 -0.17707530658E+02 -0.24728882025E+02  0.39166724048E+02  0.51100000000E-03 0. -1.
        -11    1    3    3    0    0 -0.34056253922E+00  0.30428381969E+01  0.20447785519E+01  0.36818428433E+01  0.51100000000E-03 0.  1.
        -12    1    3    3    0    0  0.53443299994E+01  0.70279874492E+01  0.13883857940E+02  0.16453448940E+02  0.00000000000E+00 0.  1.
</event>
<event>
 7    1  0.6489567E-013  0.5930194E+02  0.7816164E-02  0.1266605E+00
        -11   -1    0    0    0    0  0.00000000000E+00  0.00000000000E+00  0.45593999997E+02  0.45594000000E+02  0.51100000000E-03 0. -1.
         11   -1    0    0    0    0 -0.00000000000E+00 -0.00000000000E+00 -0.45593999997E+02  0.45594000000E+02  0.51100000000E-03 0.  1.
    9900012    2    1    2    0    0 -0.18068834721E+02  0.29507430469E+01  0.26106149112E+02  0.59301942010E+02  0.49999996320E+02 0.  0.
        -12    1    1    2    0    0  0.18068834721E+02 -0.29507430469E+01 -0.26106149112E+02  0.31886057990E+02  0.00000000000E+00 0.  1.
         11    1    3    3    0    0 -0.93260476717E+01 -0.13537649189E+02  0.66502808014E+01  0.17733283558E+02  0.51100000000E-03 0. -1.
        -11    1    3    3    0    0 -0.99388232924E+01 -0.75247604514E+01  0.44986266239E+01  0.13252919303E+02  0.51100000000E-03 0.  1.
        -12    1    3    3    0    0  0.11960362434E+01  0.24013152688E+02  0.14957241687E+02  0.28315739149E+02  0.00000000000E+00 0.  1.
</event>
<event>
 7    1  0.6489567E-013  0.5930194E+02  0.7816164E-02  0.1266605E+00
        -11   -1    0    0    0    0  0.00000000000E+00  0.00000000000E+00  0.45593999997E+02  0.45594000000E+02  0.51100000000E-03 0. -1.
         11   -1    0    0    0    0 -0.00000000000E+00 -0.00000000000E+00 -0.45593999997E+02  0.45594000000E+02  0.51100000000E-03 0.  1.
    9900012    2    1    2    0    0  0.79946445265E+01 -0.28575473300E+02  0.11672554164E+02  0.59301944488E+02  0.50000000839E+02 0.  0.
        -12    1    1    2    0    0 -0.79946445265E+01  0.28575473300E+02 -0.11672554164E+02  0.31886055512E+02  0.00000000000E+00 0.  1.
         11    1    3    3    0    0  0.52558859240E+00 -0.97690305972E+00  0.60317551477E+01  0.61329155693E+01  0.51100000000E-03 0. -1.
        -11    1    3    3    0    0  0.11321185989E+02 -0.31216424753E+02  0.19380631169E+02  0.38447929611E+02  0.51100000000E-03 0.  1.
        -12    1    3    3    0    0 -0.38521300552E+01  0.36178545130E+01 -0.13739832153E+02  0.14721099308E+02  0.00000000000E+00 0.  1.
</event>
<event>
 7    1  0.6489567E-013  0.5930194E+02  0.7816164E-02  0.1266605E+00
        -11   -1    0    0    0    0  0.00000000000E+00  0.00000000000E+00  0.45593999997E+02  0.45594000000E+02  0.51100000000E-03 0.  1.
         11   -1    0    0    0    0 -0.00000000000E+00 -0.00000000000E+00 -0.45593999997E+02  0.45594000000E+02  0.51100000000E-03 0. -1.
    9900012    2    1    2    0    0  0.15688731866E+02  0.12919812905E+01 -0.27729317399E+02  0.59301944009E+02  0.49999999966E+02 0.  0.
        -12    1    1    2    0    0 -0.15688731866E+02 -0.12919812905E+01  0.27729317399E+02  0.31886055991E+02  0.00000000000E+00 0.  1.
         11    1    3    3    0    0  0.19621707587E+01  0.51558954100E+01 -0.54297363044E+01  0.77405043868E+01  0.51100000000E-03 0. -1.
        -11    1    3    3    0    0  0.21763460150E+02  0.10085931197E+02  0.86873975883E-01  0.23987116399E+02  0.51100000000E-03 0.  1.
         12    1    3    3    0    0 -0.80368990427E+01 -0.13949845316E+02 -0.22386455071E+02  0.27574323223E+02  0.00000000000E+00 0. -1.
</event>
<event>
 7    1  0.6489567E-013  0.5930194E+02  0.7816164E-02  0.1266605E+00
        -11   -1    0    0    0    0  0.00000000000E+00  0.00000000000E+00  0.45593999997E+02  0.45594000000E+02  0.51100000000E-03 0.  1.
         11   -1    0    0    0    0 -0.00000000000E+00 -0.00000000000E+00 -0.45593999997E+02  0.45594000000E+02  0.51100000000E-03 0. -1.
    9900012    2    1    2    0    0 -0.14004470143E+02  0.59906896518E+01 -0.28012621496E+02  0.59301944904E+02  0.50000001599E+02 0.  0.
        -12    1    1    2    0    0  0.14004470143E+02 -0.59906896518E+01  0.28012621496E+02  0.31886055096E+02  0.00000000000E+00 0.  1.
         11    1    3    3    0    0  0.22131471342E+01 -0.37077256329E+00 -0.32548345968E+02  0.32625608317E+02  0.51100000000E-03 0. -1.
        -11    1    3    3    0    0  0.10335498043E+01  0.25212595843E+01  0.81879800177E+01  0.86294838849E+01  0.51100000000E-03 0.  1.
        -12    1    3    3    0    0 -0.17251167081E+02  0.38402026308E+01 -0.36522555458E+01  0.18046852703E+02  0.00000000000E+00 0.  1.
</event>
<event>
 7    1  0.6489567E-013  0.5930195E+02  0.7816164E-02  0.1266605E+00
        -11   -1    0    0    0    0  0.00000000000E+00  0.00000000000E+00  0.45593999997E+02  0.45594000000E+02  0.51100000000E-03 0. -1.
         11   -1    0    0    0    0 -0.00000000000E+00 -0.00000000000E+00 -0.45593999997E+02  0.45594000000E+02  0.51100000000E-03 0.  1.
    9900012    2    1    2    0    0 -0.16451388688E+02 -0.16023170432E+02  0.22120811329E+02  0.59301945457E+02  0.50000002607E+02 0.  0.
        -12    1    1    2    0    0  0.16451388688E+02  0.16023170432E+02 -0.22120811329E+02  0.31886054543E+02  0.00000000000E+00 0.  1.
         11    1    3    3    0    0 -0.10875260303E+02  0.81098893564E+01  0.90946334737E+01  0.16332603905E+02  0.51100000000E-03 0. -1.
        -11    1    3    3    0    0 -0.76676753740E+01 -0.18480632555E+02 -0.76590198920E+01  0.21423996155E+02  0.51100000000E-03 0.  1.
         12    1    3    3    0    0  0.20915469892E+01 -0.56524272334E+01  0.20685197748E+02  0.21545345397E+02  0.00000000000E+00 0. -1.
</event>
<event>
 7    1  0.6489567E-013  0.5930194E+02  0.7816164E-02  0.1266605E+00
        -11   -1    0    0    0    0  0.00000000000E+00  0.00000000000E+00  0.45593999997E+02  0.45594000000E+02  0.51100000000E-03 0.  1.
         11   -1    0    0    0    0 -0.00000000000E+00 -0.00000000000E+00 -0.45593999997E+02  0.45594000000E+02  0.51100000000E-03 0. -1.
    9900012    2    1    2    0    0 -0.20358766541E+02  0.14149245085E+02 -0.20050939355E+02  0.59301942223E+02  0.49999996708E+02 0.  0.
        -12    1    1    2    0    0  0.20358766541E+02 -0.14149245085E+02  0.20050939355E+02  0.31886057777E+02  0.00000000000E+00 0.  1.
         11    1    3    3    0    0 -0.30583529171E+01 -0.13915593101E+02 -0.10654037765E+02  0.17790609177E+02  0.51100000000E-03 0. -1.
        -11    1    3    3    0    0 -0.11919143859E+02  0.68642794389E+00 -0.61236133983E+01  0.13417742544E+02  0.51100000000E-03 0.  1.
        -12    1    3    3    0    0 -0.53812697646E+01  0.27378410243E+02 -0.32732881909E+01  0.28093590502E+02  0.00000000000E+00 0.  1.
</event>
<event>
 7    1  0.6489567E-013  0.5930198E+02  0.7816164E-02  0.1266605E+00
        -11   -1    0    0    0    0  0.00000000000E+00  0.00000000000E+00  0.45593999997E+02  0.45594000000E+02  0.51100000000E-03 0.  1.
         11   -1    0    0    0    0 -0.00000000000E+00 -0.00000000000E+00 -0.45593999997E+02  0.45594000000E+02  0.51100000000E-03 0. -1.
    9900012    2    1    2    0    0 -0.20183815828E+02 -0.14943288943E+02 -0.19647648132E+02  0.59301978252E+02  0.50000062417E+02 0.  0.
        -12    1    1    2    0    0  0.20183815828E+02  0.14943288943E+02  0.19647648132E+02  0.31886021748E+02  0.00000000000E+00 0.  1.
         11    1    3    3    0    0 -0.87446978575E+01  0.87626932254E-01  0.66735807864E+01  0.11000640885E+02  0.51100000000E-03 0. -1.
        -11    1    3    3    0    0 -0.24207517585E+02 -0.66305100027E+01 -0.14565524161E+02  0.29019339497E+02  0.51100000000E-03 0.  1.
         12    1    3    3    0    0  0.12768399615E+02 -0.84004058723E+01 -0.11755704757E+02  0.19281997870E+02  0.00000000000E+00 0. -1.
</event>
<event>
 7    1  0.6489567E-013  0.5930194E+02  0.7816164E-02  0.1266605E+00
        -11   -1    0    0    0    0  0.00000000000E+00  0.00000000000E+00  0.45593999997E+02  0.45594000000E+02  0.51100000000E-03 0. -1.
         11   -1    0    0    0    0 -0.00000000000E+00 -0.00000000000E+00 -0.45593999997E+02  0.45594000000E+02  0.51100000000E-03 0.  1.
    9900012    2    1    2    0    0  0.31134258784E+02  0.14298893304E+01  0.67330508882E+01  0.59301943050E+02  0.49999998217E+02 0.  0.
        -12    1    1    2    0    0 -0.31134258784E+02 -0.14298893304E+01 -0.67330508882E+01  0.31886056950E+02  0.00000000000E+00 0.  1.
         11    1    3    3    0    0  0.22741291009E+02 -0.29316801611E+01  0.79918423305E+01  0.24282310628E+02  0.51100000000E-03 0. -1.
        -11    1    3    3    0    0  0.18402128130E+02 -0.60977908349E+01 -0.50922362484E+01  0.20043758207E+02  0.51100000000E-03 0.  1.
        -12    1    3    3    0    0 -0.10009160355E+02  0.10459360326E+02  0.38334448060E+01  0.14975874216E+02  0.00000000000E+00 0.  1.
</event>
<event>
 7    1  0.6489567E-013  0.5930195E+02  0.7816164E-02  0.1266605E+00
        -11   -1    0    0    0    0  0.00000000000E+00  0.00000000000E+00  0.45593999997E+02  0.45594000000E+02  0.51100000000E-03 0.  1.
         11   -1    0    0    0    0 -0.00000000000E+00 -0.00000000000E+00 -0.45593999997E+02  0.45594000000E+02  0.51100000000E-03 0. -1.
    9900012    2    1    2    0    0 -0.21432667576E+02  0.23481280887E+02 -0.24475447177E+01  0.59301948714E+02  0.50000008546E+02 0.  0.
        -12    1    1    2    0    0  0.21432667576E+02 -0.23481280887E+02  0.24475447177E+01  0.31886051286E+02  0.00000000000E+00 0.  1.
         11    1    3    3    0    0  0.18544555085E+01 -0.33938647141E+00 -0.25015110920E+01  0.31323707339E+01  0.51100000000E-03 0. -1.
        -11    1    3    3    0    0  0.36555804247E+01 -0.73782273923E+01  0.10789192729E+02  0.13572331697E+02  0.51100000000E-03 0.  1.
         12    1    3    3    0    0 -0.26942703509E+02  0.31198894750E+02 -0.10735226354E+02  0.42597246283E+02  0.00000000000E+00 0. -1.
</event>
<event>
 7    1  0.6489567E-013  0.5930228E+02  0.7816164E-02  0.1266604E+00
        -11   -1    0    0    0    0  0.00000000000E+00  0.00000000000E+00  0.45593999997E+02  0.45594000000E+02  0.51100000000E-03 0. -1.
         11   -1    0    0    0    0 -0.00000000000E+00 -0.00000000000E+00 -0.45593999997E+02  0.45594000000E+02  0.51100000000E-03 0.  1.
    9900012    2    1    2    0    0 -0.28124296814E+02  0.14063575731E+02  0.52857463100E+01  0.59302276742E+02  0.50000606788E+02 0.  0.
        -12    1    1    2    0    0  0.28124296814E+02 -0.14063575731E+02 -0.52857463100E+01  0.31885723258E+02  0.00000000000E+00 0.  1.
         11    1    3    3    0    0 -0.13480743869E+02 -0.49269529050E+01  0.37938296006E+01  0.14845823099E+02  0.51100000000E-03 0. -1.
        -11    1    3    3    0    0 -0.19146893931E+01 -0.50862627452E+01  0.13604528176E+02  0.14649890489E+02  0.51100000000E-03 0.  1.
        -12    1    3    3    0    0 -0.12728863552E+02  0.24076791381E+02 -0.12112611467E+02  0.29806563154E+02  0.00000000000E+00 0.  1.
</event>
<event>
 7    1  0.6489567E-013  0.5930195E+02  0.7816164E-02  0.1266605E+00
        -11   -1    0    0    0    0  0.00000000000E+00  0.00000000000E+00  0.45593999997E+02  0.45594000000E+02  0.51100000000E-03 0.  1.
         11   -1    0    0    0    0 -0.00000000000E+00 -0.00000000000E+00 -0.45593999997E+02  0.45594000000E+02  0.51100000000E-03 0. -1.
    9900012    2    1    2    0    0  0.27453882125E+02 -0.91487666067E+01 -0.13390456793E+02  0.59301954348E+02  0.50000018822E+02 0.  0.
        -12    1    1    2    0    0 -0.27453882125E+02  0.91487666067E+01  0.13390456793E+02  0.31886045652E+02  0.00000000000E+00 0.  1.
         11    1    3    3    0    0 -0.44251924821E+01  0.81958855874E+01 -0.72675429197E+01  0.11814061512E+02  0.51100000000E-03 0. -1.
        -11    1    3    3    0    0  0.85020970331E+01  0.84030732874E+01 -0.41547596849E+01  0.12655406866E+02  0.51100000000E-03 0.  1.
         12    1    3    3    0    0  0.23376977574E+02 -0.25747725481E+02 -0.19681541887E+01  0.34832485970E+02  0.00000000000E+00 0. -1.
</event>
<event>
 7    1  0.6489567E-013  0.5930196E+02  0.7816164E-02  0.1266605E+00
        -11   -1    0    0    0    0  0.00000000000E+00  0.00000000000E+00  0.45593999997E+02  0.45594000000E+02  0.51100000000E-03 0.  1.
         11   -1    0    0    0    0 -0.00000000000E+00 -0.00000000000E+00 -0.45593999997E+02  0.45594000000E+02  0.51100000000E-03 0. -1.
    9900012    2    1    2    0    0 -0.10882708932E+02 -0.28204564417E+02 -0.10138467648E+02  0.59301963339E+02  0.50000035220E+02 0.  0.
        -12    1    1    2    0    0  0.10882708932E+02  0.28204564417E+02  0.10138467648E+02  0.31886036661E+02  0.00000000000E+00 0.  1.
         11    1    3    3    0    0  0.36507432914E+01 -0.15269157636E+02 -0.21435214654E+02  0.26569597833E+02  0.51100000000E-03 0. -1.
        -11    1    3    3    0    0 -0.12868118773E+02 -0.16833999448E+02  0.56818373010E+00  0.21196576403E+02  0.51100000000E-03 0.  1.
        -12    1    3    3    0    0 -0.16653334503E+01  0.38985926667E+01  0.10728563276E+02  0.11535789103E+02  0.00000000000E+00 0.  1.
</event>
<event>
 7    1  0.6489567E-013  0.5930193E+02  0.7816164E-02  0.1266605E+00
        -11   -1    0    0    0    0  0.00000000000E+00  0.00000000000E+00  0.45593999997E+02  0.45594000000E+02  0.51100000000E-03 0.  1.
         11   -1    0    0    0    0 -0.00000000000E+00 -0.00000000000E+00 -0.45593999997E+02  0.45594000000E+02  0.51100000000E-03 0. -1.
    9900012    2    1    2    0    0 -0.27701650876E+02 -0.15038528293E+02 -0.48148700982E+01  0.59301925163E+02  0.49999965595E+02 0.  0.
        -12    1    1    2    0    0  0.27701650876E+02  0.15038528293E+02  0.48148700982E+01  0.31886074837E+02  0.00000000000E+00 0.  1.
         11    1    3    3    0    0 -0.91408690036E+01 -0.87736304895E+01  0.59020427778E+01  0.13977345503E+02  0.51100000000E-03 0. -1.
        -11    1    3    3    0    0 -0.35687611033E+00 -0.64981421290E+00  0.14055053889E+02  0.14074592682E+02  0.51100000000E-03 0.  1.
         12    1    3    3    0    0 -0.18203905762E+02 -0.56150835908E+01 -0.24771966765E+02  0.31249986978E+02  0.00000000000E+00 0. -1.
</event>
<event>
 7    1  0.6489567E-013  0.5930191E+02  0.7816164E-02  0.1266605E+00
        -11   -1    0    0    0    0  0.00000000000E+00  0.00000000000E+00  0.45593999997E+02  0.45594000000E+02  0.51100000000E-03 0.  1.
         11   -1    0    0    0    0 -0.00000000000E+00 -0.00000000000E+00 -0.45593999997E+02  0.45594000000E+02  0.51100000000E-03 0. -1.
    9900012    2    1    2    0    0  0.20344350521E+02  0.40182094026E+01 -0.24221564713E+02  0.59301908956E+02  0.49999936038E+02 0.  0.
        -12    1    1    2    0    0 -0.20344350521E+02 -0.40182094026E+01  0.24221564713E+02  0.31886091044E+02  0.00000000000E+00 0.  1.
         11    1    3    3    0    0  0.77018191278E+01 -0.36209475741E+01  0.61697995205E+00  0.85328742950E+01  0.51100000000E-03 0. -1.
        -11    1    3    3    0    0 -0.16401481768E+01  0.22705660733E+02 -0.17628031539E+02  0.28792092866E+02  0.51100000000E-03 0.  1.
         12    1    3    3    0    0  0.14282679570E+02 -0.15066503757E+02 -0.72105131254E+01  0.21976941795E+02  0.00000000000E+00 0. -1.
</event>
<event>
 7    1  0.6489567E-013  0.5930207E+02  0.7816164E-02  0.1266604E+00
        -11   -1    0    0    0    0  0.00000000000E+00  0.00000000000E+00  0.45593999997E+02  0.45594000000E+02  0.51100000000E-03 0. -1.
         11   -1    0    0    0    0 -0.00000000000E+00 -0.00000000000E+00 -0.45593999997E+02  0.45594000000E+02  0.51100000000E-03 0.  1.
    9900012    2    1    2    0    0 -0.25689236651E+02 -0.15490267704E+02  0.10808679375E+02  0.59302065435E+02  0.50000221418E+02 0.  0.
        -12    1    1    2    0    0  0.25689236651E+02  0.15490267704E+02 -0.10808679375E+02  0.31885934565E+02  0.00000000000E+00 0.  1.
         11    1    3    3    0    0 -0.18404212475E+02 -0.63117326884E+01  0.32664450780E+01  0.19728727026E+02  0.51100000000E-03 0. -1.
        -11    1    3    3    0    0  0.14158981297E+01 -0.18393739240E+02 -0.74905949467E+01  0.19910887063E+02  0.51100000000E-03 0.  1.
        -12    1    3    3    0    0 -0.87009223055E+01  0.92152042242E+01  0.15032829244E+02  0.19662451346E+02  0.00000000000E+00 0.  1.
</event>
<event>
 7    1  0.6489567E-013  0.5930191E+02  0.7816164E-02  0.1266605E+00
        -11   -1    0    0    0    0  0.00000000000E+00  0.00000000000E+00  0.45593999997E+02  0.45594000000E+02  0.51100000000E-03 0.  1.
         11   -1    0    0    0    0 -0.00000000000E+00 -0.00000000000E+00 -0.45593999997E+02  0.45594000000E+02  0.51100000000E-03 0. -1.
    9900012    2    1    2    0    0 -0.31070085151E+02 -0.53232329133E+01 -0.47995252350E+01  0.59301914595E+02  0.49999946322E+02 0.  0.
        -12    1    1    2    0    0  0.31070085151E+02  0.53232329133E+01  0.47995252350E+01  0.31886085405E+02  0.00000000000E+00 0.  1.
         11    1    3    3    0    0 -0.14570811112E+02  0.31444221260E+00 -0.10333696809E+02  0.17865964860E+02  0.51100000000E-03 0. -1.
        -11    1    3    3    0    0  0.10287549253E+02  0.56707669239E+01  0.36412859909E+01  0.12298383270E+02  0.51100000000E-03 0.  1.
         12    1    3    3    0    0 -0.26786823292E+02 -0.11308442050E+02  0.18928855832E+01  0.29137566465E+02  0.00000000000E+00 0. -1.
</event>
<event>
 7    1  0.6489567E-013  0.5930194E+02  0.7816164E-02  0.1266605E+00
        -11   -1    0    0    0    0  0.00000000000E+00  0.00000000000E+00  0.45593999997E+02  0.45594000000E+02  0.51100000000E-03 0.  1.
         11   -1    0    0    0    0 -0.00000000000E+00 -0.00000000000E+00 -0.45593999997E+02  0.45594000000E+02  0.51100000000E-03 0. -1.
    9900012    2    1    2    0    0  0.29423000679E+02  0.32826633699E+01 -0.11841947474E+02  0.59301943993E+02  0.49999999936E+02 0.  0.
        -12    1    1    2    0    0 -0.29423000679E+02 -0.32826633699E+01  0.11841947474E+02  0.31886056007E+02  0.00000000000E+00 0.  1.
         11    1    3    3    0    0  0.13616338406E+01  0.60102004430E+01 -0.20853311586E+02  0.21744819163E+02  0.51100000000E-03 0. -1.
        -11    1    3    3    0    0  0.17829737212E+00  0.35839816373E+01  0.82071465873E+01  0.89573416646E+01  0.51100000000E-03 0.  1.
        -12    1    3    3    0    0  0.27883069466E+02 -0.63115187104E+01  0.80421752458E+00  0.28599783165E+02  0.00000000000E+00 0.  1.
</event>
<event>
 7    1  0.6489567E-013  0.5930193E+02  0.7816164E-02  0.1266605E+00
        -11   -1    0    0    0    0  0.00000000000E+00  0.00000000000E+00  0.45593999997E+02  0.45594000000E+02  0.51100000000E-03 0.  1.
         11   -1    0    0    0    0 -0.00000000000E+00 -0.00000000000E+00 -0.45593999997E+02  0.45594000000E+02  0.51100000000E-03 0. -1.
    9900012    2    1    2    0    0 -0.17759516719E+02  0.24618918555E+02 -0.97585679037E+01  0.59301933569E+02  0.49999980927E+02 0.  0.
        -12    1    1    2    0    0  0.17759516719E+02 -0.24618918555E+02  0.97585679037E+01  0.31886066431E+02  0.00000000000E+00 0.  1.
         11    1    3    3    0    0 -0.46929384278E+01  0.36379527944E+01  0.56849993967E+01  0.82205589849E+01  0.51100000000E-03 0. -1.
        -11    1    3    3    0    0 -0.26890922998E+01 -0.81732849044E+01  0.83926084411E+01  0.12019554078E+02  0.51100000000E-03 0.  1.
         12    1    3    3    0    0 -0.10377485991E+02  0.29154250665E+02 -0.23836175742E+02  0.39061820507E+02  0.00000000000E+00 0. -1.
</event>
<event>
 7    1  0.6489567E-013  0.5930197E+02  0.7816164E-02  0.1266605E+00
        -11   -1    0    0    0    0  0.00000000000E+00  0.00000000000E+00  0.45593999997E+02  0.45594000000E+02  0.51100000000E-03 0.  1.
         11   -1    0    0    0    0 -0.00000000000E+00 -0.00000000000E+00 -0.45593999997E+02  0.45594000000E+02  0.51100000000E-03 0. -1.
    9900012    2    1    2    0    0  0.31044822191E+01  0.29450161448E+02  0.11822393913E+02  0.59301971445E+02  0.50000050002E+02 0.  0.
        -12    1    1    2    0    0 -0.31044822191E+01 -0.29450161448E+02 -0.11822393913E+02  0.31886028555E+02  0.00000000000E+00 0.  1.
         11    1    3    3    0    0 -0.72670334726E+01 -0.91750760962E+00  0.11891157215E+02  0.13966073746E+02  0.51100000000E-03 0. -1.
        -11    1    3    3    0    0 -0.81831768330E+00 -0.56467459616E+01 -0.46305135363E+01  0.73482677997E+01  0.51100000000E-03 0.  1.
         12    1    3    3    0    0  0.11189833375E+02  0.36014415020E+02  0.45617502351E+01  0.37987629899E+02  0.00000000000E+00 0. -1.
</event>
<event>
 7    1  0.6489567E-013  0.5930195E+02  0.7816164E-02  0.1266605E+00
        -11   -1    0    0    0    0  0.00000000000E+00  0.00000000000E+00  0.45593999997E+02  0.45594000000E+02  0.51100000000E-03 0.  1.
         11   -1    0    0    0    0 -0.00000000000E+00 -0.00000000000E+00 -0.45593999997E+02  0.45594000000E+02  0.51100000000E-03 0. -1.
    9900012    2    1    2    0    0 -0.16351759200E+02 -0.20694132157E+01 -0.27295739711E+02  0.59301954363E+02  0.50000018849E+02 0.  0.
        -12    1    1    2    0    0  0.16351759200E+02  0.20694132157E+01  0.27295739711E+02  0.31886045637E+02  0.00000000000E+00 0.  1.
         11    1    3    3    0    0 -0.28121828228E+01 -0.14756514269E+01 -0.41455163187E+01  0.52221858615E+01  0.51100000000E-03 0. -1.
        -11    1    3    3    0    0 -0.20054659719E+02 -0.41997518956E+01  0.80417315612E+01  0.22011286632E+02  0.51100000000E-03 0.  1.
         12    1    3    3    0    0  0.65150833421E+01  0.36059901068E+01 -0.31191954954E+02  0.32068481870E+02  0.00000000000E+00 0. -1.
</event>
<event>
 7    1  0.6489567E-013  0.5930190E+02  0.7816164E-02  0.1266605E+00
        -11   -1    0    0    0    0  0.00000000000E+00  0.00000000000E+00  0.45593999997E+02  0.45594000000E+02  0.51100000000E-03 0.  1.
         11   -1    0    0    0    0 -0.00000000000E+00 -0.00000000000E+00 -0.45593999997E+02  0.45594000000E+02  0.51100000000E-03 0. -1.
    9900012    2    1    2    0    0 -0.24895747895E+01 -0.30688622067E+02 -0.82905873986E+01  0.59301900420E+02  0.49999920471E+02 0.  0.
        -12    1    1    2    0    0  0.24895747895E+01  0.30688622067E+02  0.82905873986E+01  0.31886099580E+02  0.00000000000E+00 0.  1.
         11    1    3    3    0    0 -0.26952656800E+00 -0.17902231742E+02 -0.17746471329E+02  0.25209121183E+02  0.51100000000E-03 0. -1.
        -11    1    3    3    0    0  0.16089828569E+01 -0.19122771723E+02 -0.31758288992E+01  0.19451352489E+02  0.51100000000E-03 0.  1.
        -12    1    3    3    0    0 -0.38290310785E+01  0.63363813979E+01  0.12631712830E+02  0.14641426749E+02  0.00000000000E+00 0.  1.
</event>
<event>
 7    1  0.6489567E-013  0.5930199E+02  0.7816164E-02  0.1266605E+00
        -11   -1    0    0    0    0  0.00000000000E+00  0.00000000000E+00  0.45593999997E+02  0.45594000000E+02  0.51100000000E-03 0.  1.
         11   -1    0    0    0    0 -0.00000000000E+00 -0.00000000000E+00 -0.45593999997E+02  0.45594000000E+02  0.51100000000E-03 0. -1.
    9900012    2    1    2    0    0 -0.75885821891E+01 -0.49097301126E+01 -0.30578193052E+02  0.59301985515E+02  0.50000075663E+02 0.  0.
        -12    1    1    2    0    0  0.75885821891E+01  0.49097301126E+01  0.30578193052E+02  0.31886014485E+02  0.00000000000E+00 0.  1.
         11    1    3    3    0    0 -0.16238558163E+02 -0.33850184791E+01 -0.12977660343E+02  0.21061072849E+02  0.51100000000E-03 0. -1.
        -11    1    3    3    0    0 -0.55282777371E+01 -0.87105007528E+01 -0.19670187359E+02  0.22211504881E+02  0.51100000000E-03 0.  1.
        -12    1    3    3    0    0  0.14178253711E+02  0.71857891193E+01  0.20696546495E+01  0.16029407785E+02  0.00000000000E+00 0.  1.
</event>
<event>
 7    1  0.6489567E-013  0.5930195E+02  0.7816164E-02  0.1266605E+00
        -11   -1    0    0    0    0  0.00000000000E+00  0.00000000000E+00  0.45593999997E+02  0.45594000000E+02  0.51100000000E-03 0.  1.
         11   -1    0    0    0    0 -0.00000000000E+00 -0.00000000000E+00 -0.45593999997E+02  0.45594000000E+02  0.51100000000E-03 0. -1.
    9900012    2    1    2    0    0 -0.17256434446E+01  0.31821302757E+02 -0.10709799744E+01  0.59301950503E+02  0.50000011809E+02 0.  0.
        -12    1    1    2    0    0  0.17256434446E+01 -0.31821302757E+02  0.10709799744E+01  0.31886049497E+02  0.00000000000E+00 0.  1.
         11    1    3    3    0    0  0.32980920124E+01 -0.10709242354E+02 -0.56517065407E+01  0.12550182062E+02  0.51100000000E-03 0. -1.
        -11    1    3    3    0    0  0.34901057513E+01  0.74503432035E+00  0.18515896817E+01  0.40204849091E+01  0.51100000000E-03 0.  1.
        -12    1    3    3    0    0 -0.85138412082E+01  0.41785510790E+02  0.27291368847E+01  0.42731283531E+02  0.00000000000E+00 0.  1.
</event>
<event>
 7    1  0.6489567E-013  0.5930183E+02  0.7816164E-02  0.1266605E+00
        -11   -1    0    0    0    0  0.00000000000E+00  0.00000000000E+00  0.45593999997E+02  0.45594000000E+02  0.51100000000E-03 0. -1.
         11   -1    0    0    0    0 -0.00000000000E+00 -0.00000000000E+00 -0.45593999997E+02  0.45594000000E+02  0.51100000000E-03 0.  1.
    9900012    2    1    2    0    0 -0.72773640947E+01 -0.99329596327E+01  0.29412656793E+02  0.59301825961E+02  0.49999784674E+02 0.  0.
        -12    1    1    2    0    0  0.72773640947E+01  0.99329596327E+01 -0.29412656793E+02  0.31886174039E+02  0.00000000000E+00 0.  1.
         11    1    3    3    0    0  0.53795651799E+01  0.74660360551E+01  0.57506119697E+01  0.10851311174E+02  0.51100000000E-03 0. -1.
        -11    1    3    3    0    0 -0.19505937595E+02  0.10386407525E+01  0.27229218780E+01  0.19722441023E+02  0.51100000000E-03 0.  1.
        -12    1    3    3    0    0  0.68490083207E+01 -0.18437636440E+02  0.20939122945E+02  0.28728073764E+02  0.00000000000E+00 0.  1.
</event>
<event>
 7    1  0.6489567E-013  0.5930193E+02  0.7816164E-02  0.1266605E+00
        -11   -1    0    0    0    0  0.00000000000E+00  0.00000000000E+00  0.45593999997E+02  0.45594000000E+02  0.51100000000E-03 0.  1.
         11   -1    0    0    0    0 -0.00000000000E+00 -0.00000000000E+00 -0.45593999997E+02  0.45594000000E+02  0.51100000000E-03 0. -1.
    9900012    2    1    2    0    0  0.46582373644E+01 -0.22909863067E+02 -0.21683181154E+02  0.59301931788E+02  0.49999977677E+02 0.  0.
        -12    1    1    2    0    0 -0.46582373644E+01  0.22909863067E+02  0.21683181154E+02  0.31886068212E+02  0.00000000000E+00 0.  1.
         11    1    3    3    0    0  0.14939114033E+02 -0.30926694048E+02 -0.23071312508E+02  0.41375391163E+02  0.51100000000E-03 0. -1.
        -11    1    3    3    0    0 -0.96084645276E+00  0.51959088418E+01 -0.41548316121E+01  0.67218539544E+01  0.51100000000E-03 0.  1.
        -12    1    3    3    0    0 -0.93200302158E+01  0.28209221391E+01  0.55429629654E+01  0.11204686670E+02  0.00000000000E+00 0.  1.
</event>
<event>
 7    1  0.6489567E-013  0.5930194E+02  0.7816164E-02  0.1266605E+00
        -11   -1    0    0    0    0  0.00000000000E+00  0.00000000000E+00  0.45593999997E+02  0.45594000000E+02  0.51100000000E-03 0.  1.
         11   -1    0    0    0    0 -0.00000000000E+00 -0.00000000000E+00 -0.45593999997E+02  0.45594000000E+02  0.51100000000E-03 0. -1.
    9900012    2    1    2    0    0 -0.18432691016E+02 -0.29181735001E+01 -0.25854223531E+02  0.59301941776E+02  0.49999995893E+02 0.  0.
        -12    1    1    2    0    0  0.18432691016E+02  0.29181735001E+01  0.25854223531E+02  0.31886058224E+02  0.00000000000E+00 0.  1.
         11    1    3    3    0    0 -0.86906474902E+00 -0.14892706406E+02 -0.19077560796E+02  0.24217788995E+02  0.51100000000E-03 0. -1.
        -11    1    3    3    0    0  0.24925692589E+01 -0.62301596516E+01 -0.41054956558E+01  0.78665675892E+01  0.51100000000E-03 0.  1.
        -12    1    3    3    0    0 -0.20056195526E+02  0.18204692558E+02 -0.26711670795E+01  0.27217585191E+02  0.00000000000E+00 0.  1.
</event>
<event>
 7    1  0.6489567E-013  0.5930195E+02  0.7816164E-02  0.1266605E+00
        -11   -1    0    0    0    0  0.00000000000E+00  0.00000000000E+00  0.45593999997E+02  0.45594000000E+02  0.51100000000E-03 0.  1.
         11   -1    0    0    0    0 -0.00000000000E+00 -0.00000000000E+00 -0.45593999997E+02  0.45594000000E+02  0.51100000000E-03 0. -1.
    9900012    2    1    2    0    0  0.28697944826E+02  0.11619235984E+02 -0.76250607225E+01  0.59301949239E+02  0.50000009504E+02 0.  0.
        -12    1    1    2    0    0 -0.28697944826E+02 -0.11619235984E+02  0.76250607225E+01  0.31886050761E+02  0.00000000000E+00 0.  1.
         11    1    3    3    0    0  0.69958414544E+01  0.13859289166E+02 -0.63347294663E+01  0.16767542799E+02  0.51100000000E-03 0. -1.
        -11    1    3    3    0    0 -0.19847344156E+01  0.11235492670E+02  0.77837502499E+01  0.13811670227E+02  0.51100000000E-03 0.  1.
         12    1    3    3    0    0  0.23686837788E+02 -0.13475545852E+02 -0.90740815061E+01  0.28722736213E+02  0.00000000000E+00 0. -1.
</event>
<event>
 7    1  0.6489567E-013  0.5930195E+02  0.7816164E-02  0.1266605E+00
        -11   -1    0    0    0    0  0.00000000000E+00  0.00000000000E+00  0.45593999997E+02  0.45594000000E+02  0.51100000000E-03 0.  1.
         11   -1    0    0    0    0 -0.00000000000E+00 -0.00000000000E+00 -0.45593999997E+02  0.45594000000E+02  0.51100000000E-03 0. -1.
    9900012    2    1    2    0    0 -0.24672215374E+02 -0.19129697284E+02  0.64851221499E+01  0.59301947580E+02  0.50000006479E+02 0.  0.
        -12    1    1    2    0    0  0.24672215374E+02  0.19129697284E+02 -0.64851221499E+01  0.31886052420E+02  0.00000000000E+00 0.  1.
         11    1    3    3    0    0 -0.23427992013E+02 -0.17137597581E+02 -0.85612071298E+01  0.30263217416E+02  0.51100000000E-03 0. -1.
        -11    1    3    3    0    0  0.27275489232E+01  0.43463018052E+01 -0.52903608975E+01  0.73700597825E+01  0.51100000000E-03 0.  1.
         12    1    3    3    0    0 -0.39717722840E+01 -0.63384015077E+01  0.20336690177E+02  0.21668670382E+02  0.00000000000E+00 0. -1.
</event>
<event>
 7    1  0.6489567E-013  0.5930196E+02  0.7816164E-02  0.1266605E+00
        -11   -1    0    0    0    0  0.00000000000E+00  0.00000000000E+00  0.45593999997E+02  0.45594000000E+02  0.51100000000E-03 0.  1.
         11   -1    0    0    0    0 -0.00000000000E+00 -0.00000000000E+00 -0.45593999997E+02  0.45594000000E+02  0.51100000000E-03 0. -1.
    9900012    2    1    2    0    0  0.15393101311E+02 -0.19629041828E+02  0.19861341849E+02  0.59301956798E+02  0.50000023290E+02 0.  0.
        -12    1    1    2    0    0 -0.15393101311E+02  0.19629041828E+02 -0.19861341849E+02  0.31886043202E+02  0.00000000000E+00 0.  1.
         11    1    3    3    0    0  0.25237216150E+01 -0.16641827458E+02  0.95280765247E+01  0.19341763995E+02  0.51100000000E-03 0. -1.
        -11    1    3    3    0    0  0.24289499739E+02 -0.83762310010E+01  0.91633429671E+01  0.27278341188E+02  0.51100000000E-03 0.  1.
        -12    1    3    3    0    0 -0.11420120043E+02  0.53890166308E+01  0.11699223571E+01  0.12681851615E+02  0.00000000000E+00 0.  1.
</event>
<event>
 7    1  0.6489567E-013  0.5930193E+02  0.7816164E-02  0.1266605E+00
        -11   -1    0    0    0    0  0.00000000000E+00  0.00000000000E+00  0.45593999997E+02  0.45594000000E+02  0.51100000000E-03 0. -1.
         11   -1    0    0    0    0 -0.00000000000E+00 -0.00000000000E+00 -0.45593999997E+02  0.45594000000E+02  0.51100000000E-03 0.  1.
    9900012    2    1    2    0    0  0.24588853592E+02  0.16867339064E+02  0.11296130962E+02  0.59301930584E+02  0.49999975482E+02 0.  0.
        -12    1    1    2    0    0 -0.24588853592E+02 -0.16867339064E+02 -0.11296130962E+02  0.31886069416E+02  0.00000000000E+00 0.  1.
         11    1    3    3    0    0 -0.85534145211E+01 -0.20550154916E+01 -0.45110177117E+01  0.98860138426E+01  0.51100000000E-03 0. -1.
        -11    1    3    3    0    0  0.42870280513E+00 -0.45360544214E+01  0.67674498261E+01  0.81583057812E+01  0.51100000000E-03 0.  1.
         12    1    3    3    0    0  0.32713565308E+02  0.23458408977E+02  0.90396988479E+01  0.41257610960E+02  0.00000000000E+00 0. -1.
</event>
<event>
 7    1  0.6489567E-013  0.5930193E+02  0.7816164E-02  0.1266605E+00
        -11   -1    0    0    0    0  0.00000000000E+00  0.00000000000E+00  0.45593999997E+02  0.45594000000E+02  0.51100000000E-03 0. -1.
         11   -1    0    0    0    0 -0.00000000000E+00 -0.00000000000E+00 -0.45593999997E+02  0.45594000000E+02  0.51100000000E-03 0.  1.
    9900012    2    1    2    0    0  0.24937959031E+02  0.15890497837E+02 -0.11929439140E+02  0.59301933445E+02  0.49999980700E+02 0.  0.
        -12    1    1    2    0    0 -0.24937959031E+02 -0.15890497837E+02  0.11929439140E+02  0.31886066555E+02  0.00000000000E+00 0.  1.
         11    1    3    3    0    0 -0.77106387353E+01  0.73325945012E+01 -0.29693334260E+01  0.11047073508E+02  0.51100000000E-03 0. -1.
        -11    1    3    3    0    0  0.75514156152E+00  0.68213017843E+01  0.92267815753E+01  0.11499299775E+02  0.51100000000E-03 0.  1.
        -12    1    3    3    0    0  0.31893456205E+02  0.17366015514E+01 -0.18186887289E+02  0.36755560163E+02  0.00000000000E+00 0.  1.
</event>
<event>
 7    1  0.6489567E-013  0.5930197E+02  0.7816164E-02  0.1266605E+00
        -11   -1    0    0    0    0  0.00000000000E+00  0.00000000000E+00  0.45593999997E+02  0.45594000000E+02  0.51100000000E-03 0.  1.
         11   -1    0    0    0    0 -0.00000000000E+00 -0.00000000000E+00 -0.45593999997E+02  0.45594000000E+02  0.51100000000E-03 0. -1.
    9900012    2    1    2    0    0 -0.11244232629E+02 -0.19144555941E+02 -0.22886063148E+02  0.59301973656E+02  0.50000054036E+02 0.  0.
        -12    1    1    2    0    0  0.11244232629E+02  0.19144555941E+02  0.22886063148E+02  0.31886026344E+02  0.00000000000E+00 0.  1.
         11    1    3    3    0    0 -0.55857467458E+01  0.63217221002E+01  0.62959861413E+01  0.10526356386E+02  0.51100000000E-03 0. -1.
        -11    1    3    3    0    0 -0.16136722890E+02 -0.65398546650E+01 -0.14083584457E+02  0.22394438508E+02  0.51100000000E-03 0.  1.
        -12    1    3    3    0    0  0.10478237007E+02 -0.18926423376E+02 -0.15098464832E+02  0.26381178762E+02  0.00000000000E+00 0.  1.
</event>
<event>
 7    1  0.6489567E-013  0.5930200E+02  0.7816164E-02  0.1266605E+00
        -11   -1    0    0    0    0  0.00000000000E+00  0.00000000000E+00  0.45593999997E+02  0.45594000000E+02  0.51100000000E-03 0.  1.
         11   -1    0    0    0    0 -0.00000000000E+00 -0.00000000000E+00 -0.45593999997E+02  0.45594000000E+02  0.51100000000E-03 0. -1.
    9900012    2    1    2    0    0  0.29588434211E+02 -0.92694042381E+01  0.74377164883E+01  0.59302001183E+02  0.50000104238E+02 0.  0.
        -12    1    1    2    0    0 -0.29588434211E+02  0.92694042381E+01 -0.74377164883E+01  0.31885998817E+02  0.00000000000E+00 0.  1.
         11    1    3    3    0    0 -0.10802661776E+02 -0.19007838163E+01  0.85428414895E+01  0.13902899753E+02  0.51100000000E-03 0.  1.
        -11    1    3    3    0    0  0.80171086783E+01  0.17573471745E+01  0.70153145725E+01  0.10797080136E+02  0.51100000000E-03 0. -1.
         12    1    3    3    0    0  0.32373987308E+02 -0.91259675963E+01 -0.81204395737E+01  0.34602021295E+02  0.00000000000E+00 0. -1.
</event>
<event>
 7    1  0.6489567E-013  0.5930194E+02  0.7816164E-02  0.1266605E+00
        -11   -1    0    0    0    0  0.00000000000E+00  0.00000000000E+00  0.45593999997E+02  0.45594000000E+02  0.51100000000E-03 0.  1.
         11   -1    0    0    0    0 -0.00000000000E+00 -0.00000000000E+00 -0.45593999997E+02  0.45594000000E+02  0.51100000000E-03 0. -1.
    9900012    2    1    2    0    0  0.31072454070E+01  0.25323212565E+02 -0.19125922902E+02  0.59301937285E+02  0.49999987703E+02 0.  0.
        -12    1    1    2    0    0 -0.31072454070E+01 -0.25323212565E+02  0.19125922902E+02  0.31886062715E+02  0.00000000000E+00 0.  1.
         11    1    3    3    0    0  0.27277601104E+01  0.84857547135E+01 -0.32455276567E+02  0.33657000543E+02  0.51100000000E-03 0. -1.
        -11    1    3    3    0    0 -0.43368971618E+01  0.11993113404E+02  0.26817103636E+01  0.13032076460E+02  0.51100000000E-03 0.  1.
        -12    1    3    3    0    0  0.47163824584E+01  0.48443444473E+01  0.10647643301E+02  0.12612860282E+02  0.00000000000E+00 0.  1.
</event>
<event>
 7    1  0.6489567E-013  0.5930190E+02  0.7816164E-02  0.1266605E+00
        -11   -1    0    0    0    0  0.00000000000E+00  0.00000000000E+00  0.45593999997E+02  0.45594000000E+02  0.51100000000E-03 0.  1.
         11   -1    0    0    0    0 -0.00000000000E+00 -0.00000000000E+00 -0.45593999997E+02  0.45594000000E+02  0.51100000000E-03 0. -1.
    9900012    2    1    2    0    0 -0.55916579045E+01 -0.36090783984E+01 -0.31183825777E+02  0.59301904675E+02  0.49999928229E+02 0.  0.
        -12    1    1    2    0    0  0.55916579045E+01  0.36090783984E+01  0.31183825777E+02  0.31886095325E+02  0.00000000000E+00 0.  1.
         11    1    3    3    0    0 -0.70945051780E+01 -0.20359661639E+00 -0.18469773060E+02  0.19786509860E+02  0.51100000000E-03 0. -1.
        -11    1    3    3    0    0 -0.48380035980E+01  0.10639028332E+02 -0.19455213012E+02  0.22695825966E+02  0.51100000000E-03 0.  1.
        -12    1    3    3    0    0  0.63408508714E+01 -0.14044510114E+02  0.67411602949E+01  0.16819568848E+02  0.00000000000E+00 0.  1.
</event>
<event>
 7    1  0.6489567E-013  0.5930189E+02  0.7816164E-02  0.1266605E+00
        -11   -1    0    0    0    0  0.00000000000E+00  0.00000000000E+00  0.45593999997E+02  0.45594000000E+02  0.51100000000E-03 0.  1.
         11   -1    0    0    0    0 -0.00000000000E+00 -0.00000000000E+00 -0.45593999997E+02  0.45594000000E+02  0.51100000000E-03 0. -1.
    9900012    2    1    2    0    0 -0.49326214826E+01  0.70400860690E+01 -0.30705543605E+02  0.59301890570E+02  0.49999902505E+02 0.  0.
        -12    1    1    2    0    0  0.49326214826E+01 -0.70400860690E+01  0.30705543605E+02  0.31886109430E+02  0.00000000000E+00 0.  1.
         11    1    3    3    0    0 -0.51300091908E+01 -0.21232208234E+01 -0.39319166544E+02  0.39709217052E+02  0.51100000000E-03 0. -1.
        -11    1    3    3    0    0  0.53394823039E+01  0.85739890751E+01  0.68452703344E+00  0.10123830177E+02  0.51100000000E-03 0.  1.
        -12    1    3    3    0    0 -0.51420945957E+01  0.58931781736E+00  0.79290959057E+01  0.94688433403E+01  0.00000000000E+00 0.  1.
</event>
<event>
 7    1  0.6489567E-013  0.5930200E+02  0.7816164E-02  0.1266605E+00
        -11   -1    0    0    0    0  0.00000000000E+00  0.00000000000E+00  0.45593999997E+02  0.45594000000E+02  0.51100000000E-03 0. -1.
         11   -1    0    0    0    0 -0.00000000000E+00 -0.00000000000E+00 -0.45593999997E+02  0.45594000000E+02  0.51100000000E-03 0.  1.
    9900012    2    1    2    0    0 -0.11738906526E+02  0.10336064624E+02  0.27786340212E+02  0.59302002121E+02  0.50000105949E+02 0.  0.
        -12    1    1    2    0    0  0.11738906526E+02 -0.10336064624E+02 -0.27786340212E+02  0.31885997879E+02  0.00000000000E+00 0.  1.
         11    1    3    3    0    0 -0.62187622191E+01  0.12042745647E+02  0.58629084736E+00  0.13566298813E+02  0.51100000000E-03 0. -1.
        -11    1    3    3    0    0 -0.19039132161E+02  0.44341505661E+00  0.50591111578E+01  0.19704816070E+02  0.51100000000E-03 0.  1.
         12    1    3    3    0    0  0.13518987855E+02 -0.21500960799E+01  0.22140938207E+02  0.26030887239E+02  0.00000000000E+00 0. -1.
</event>
<event>
 7    1  0.6489567E-013  0.5930195E+02  0.7816164E-02  0.1266605E+00
        -11   -1    0    0    0    0  0.00000000000E+00  0.00000000000E+00  0.45593999997E+02  0.45594000000E+02  0.51100000000E-03 0. -1.
         11   -1    0    0    0    0 -0.00000000000E+00 -0.00000000000E+00 -0.45593999997E+02  0.45594000000E+02  0.51100000000E-03 0.  1.
    9900012    2    1    2    0    0  0.19203942107E+02  0.93733423058E+01  0.23665779300E+02  0.59301952137E+02  0.50000014790E+02 0.  0.
        -12    1    1    2    0    0 -0.19203942107E+02 -0.93733423058E+01 -0.23665779300E+02  0.31886047863E+02  0.00000000000E+00 0.  1.
         11    1    3    3    0    0  0.97134565313E-01 -0.74160905462E+01 -0.68961299368E+00  0.74487180411E+01  0.51100000000E-03 0. -1.
        -11    1    3    3    0    0  0.56947888411E+01 -0.10932810639E+02  0.15509750541E+02  0.19811848236E+02  0.51100000000E-03 0.  1.
         12    1    3    3    0    0  0.13412018700E+02  0.27722243491E+02  0.88456417523E+01  0.32041385860E+02  0.00000000000E+00 0. -1.
</event>
<event>
 7    1  0.6489567E-013  0.5930195E+02  0.7816164E-02  0.1266605E+00
        -11   -1    0    0    0    0  0.00000000000E+00  0.00000000000E+00  0.45593999997E+02  0.45594000000E+02  0.51100000000E-03 0.  1.
         11   -1    0    0    0    0 -0.00000000000E+00 -0.00000000000E+00 -0.45593999997E+02  0.45594000000E+02  0.51100000000E-03 0. -1.
    9900012    2    1    2    0    0  0.24394947317E+02  0.16166696478E+02  0.12658788981E+02  0.59301945555E+02  0.50000002786E+02 0.  0.
        -12    1    1    2    0    0 -0.24394947317E+02 -0.16166696478E+02 -0.12658788981E+02  0.31886054445E+02  0.00000000000E+00 0.  1.
         11    1    3    3    0    0 -0.29125751526E+01  0.26928805115E+01  0.78966337478E+01  0.88369408890E+01  0.51100000000E-03 0. -1.
        -11    1    3    3    0    0  0.80532400691E+01  0.11774333928E+02  0.20886771525E+02  0.25293217274E+02  0.51100000000E-03 0.  1.
         12    1    3    3    0    0  0.19254282400E+02  0.16994820382E+01 -0.16124616292E+02  0.25171787392E+02  0.00000000000E+00 0. -1.
</event>
<event>
 7    1  0.6489567E-013  0.5930193E+02  0.7816164E-02  0.1266605E+00
        -11   -1    0    0    0    0  0.00000000000E+00  0.00000000000E+00  0.45593999997E+02  0.45594000000E+02  0.51100000000E-03 0.  1.
         11   -1    0    0    0    0 -0.00000000000E+00 -0.00000000000E+00 -0.45593999997E+02  0.45594000000E+02  0.51100000000E-03 0. -1.
    9900012    2    1    2    0    0 -0.64971869011E+01 -0.83541014627E+01 -0.30078510136E+02  0.59301933750E+02  0.49999981256E+02 0.  0.
        -12    1    1    2    0    0  0.64971869011E+01  0.83541014627E+01  0.30078510136E+02  0.31886066250E+02  0.00000000000E+00 0.  1.
         11    1    3    3    0    0  0.16086409907E+02 -0.37971865322E+01 -0.15523889035E+02  0.22675589084E+02  0.51100000000E-03 0. -1.
        -11    1    3    3    0    0  0.31091980361E+01 -0.66556332510E+01 -0.74960621929E+00  0.73842045031E+01  0.51100000000E-03 0.  1.
         12    1    3    3    0    0 -0.25692794844E+02  0.20987183204E+01 -0.13805014881E+02  0.29242140164E+02  0.00000000000E+00 0. -1.
</event>
<event>
 7    1  0.6489567E-013  0.5930194E+02  0.7816164E-02  0.1266605E+00
        -11   -1    0    0    0    0  0.00000000000E+00  0.00000000000E+00  0.45593999997E+02  0.45594000000E+02  0.51100000000E-03 0. -1.
         11   -1    0    0    0    0 -0.00000000000E+00 -0.00000000000E+00 -0.45593999997E+02  0.45594000000E+02  0.51100000000E-03 0.  1.
    9900012    2    1    2    0    0 -0.31305623547E+02  0.59490382407E+01  0.11347652437E+01  0.59301940134E+02  0.49999992898E+02 0.  0.
        -12    1    1    2    0    0  0.31305623547E+02 -0.59490382407E+01 -0.11347652437E+01  0.31886059866E+02  0.00000000000E+00 0.  1.
         11    1    3    3    0    0  0.51860095980E+00 -0.78214367254E+01 -0.95753327386E+01  0.12374603700E+02  0.51100000000E-03 0.  1.
        -11    1    3    3    0    0 -0.13599325816E+02  0.18066138483E+02  0.15725422643E+02  0.27542983497E+02  0.51100000000E-03 0. -1.
         12    1    3    3    0    0 -0.18224898691E+02 -0.42956635168E+01 -0.50153246610E+01  0.19384352937E+02  0.00000000000E+00 0. -1.
</event>
<event>
 7    1  0.6489567E-013  0.5930195E+02  0.7816164E-02  0.1266605E+00
        -11   -1    0    0    0    0  0.00000000000E+00  0.00000000000E+00  0.45593999997E+02  0.45594000000E+02  0.51100000000E-03 0.  1.
         11   -1    0    0    0    0 -0.00000000000E+00 -0.00000000000E+00 -0.45593999997E+02  0.45594000000E+02  0.51100000000E-03 0. -1.
    9900012    2    1    2    0    0 -0.28904835822E+02  0.90274506177E+01 -0.99867840508E+01  0.59301948908E+02  0.50000008900E+02 0.  0.
        -12    1    1    2    0    0  0.28904835822E+02 -0.90274506177E+01  0.99867840508E+01  0.31886051092E+02  0.00000000000E+00 0.  1.
         11    1    3    3    0    0 -0.13409965469E+02  0.25823173748E+01  0.13149215038E+02  0.18957779229E+02  0.51100000000E-03 0. -1.
        -11    1    3    3    0    0 -0.28596458086E+01  0.38272873579E+01  0.64732503814E+01  0.80454131922E+01  0.51100000000E-03 0.  1.
         12    1    3    3    0    0 -0.12635224545E+02  0.26178458850E+01 -0.29609249471E+02  0.32298756487E+02  0.00000000000E+00 0. -1.
</event>
<event>
 7    1  0.6489567E-013  0.5930192E+02  0.7816164E-02  0.1266605E+00
        -11   -1    0    0    0    0  0.00000000000E+00  0.00000000000E+00  0.45593999997E+02  0.45594000000E+02  0.51100000000E-03 0. -1.
         11   -1    0    0    0    0 -0.00000000000E+00 -0.00000000000E+00 -0.45593999997E+02  0.45594000000E+02  0.51100000000E-03 0.  1.
    9900012    2    1    2    0    0 -0.28856511291E+02  0.67309233362E+01  0.11777880180E+02  0.59301920994E+02  0.49999957993E+02 0.  0.
        -12    1    1    2    0    0  0.28856511291E+02 -0.67309233362E+01 -0.11777880180E+02  0.31886079006E+02  0.00000000000E+00 0.  1.
         11    1    3    3    0    0 -0.17337607862E+02 -0.10864790413E+02  0.51072073271E+01  0.21088382680E+02  0.51100000000E-03 0. -1.
        -11    1    3    3    0    0 -0.20538112077E+02  0.83577978573E+01 -0.25910003446E+01  0.22324428677E+02  0.51100000000E-03 0.  1.
         12    1    3    3    0    0  0.90192086481E+01  0.92379158920E+01  0.92616731977E+01  0.15889109638E+02  0.00000000000E+00 0. -1.
</event>
<event>
 7    1  0.6489567E-013  0.5930192E+02  0.7816164E-02  0.1266605E+00
        -11   -1    0    0    0    0  0.00000000000E+00  0.00000000000E+00  0.45593999997E+02  0.45594000000E+02  0.51100000000E-03 0. -1.
         11   -1    0    0    0    0 -0.00000000000E+00 -0.00000000000E+00 -0.45593999997E+02  0.45594000000E+02  0.51100000000E-03 0.  1.
    9900012    2    1    2    0    0 -0.72018143223E+01 -0.13183952499E+02  0.28125423785E+02  0.59301918458E+02  0.49999953367E+02 0.  0.
        -12    1    1    2    0    0  0.72018143223E+01  0.13183952499E+02 -0.28125423785E+02  0.31886081542E+02  0.00000000000E+00 0.  1.
         11    1    3    3    0    0  0.38992632885E+00 -0.25567678191E+01 -0.38586169792E+01  0.46452157621E+01  0.51100000000E-03 0. -1.
        -11    1    3    3    0    0  0.16246948454E+02 -0.61602663224E+01  0.43954051407E+01  0.17922940658E+02  0.51100000000E-03 0.  1.
         12    1    3    3    0    0 -0.23838689105E+02 -0.44669183578E+01  0.27588635623E+02  0.36733762037E+02  0.00000000000E+00 0. -1.
</event>
<event>
 7    1  0.6489567E-013  0.5930201E+02  0.7816164E-02  0.1266605E+00
        -11   -1    0    0    0    0  0.00000000000E+00  0.00000000000E+00  0.45593999997E+02  0.45594000000E+02  0.51100000000E-03 0. -1.
         11   -1    0    0    0    0 -0.00000000000E+00 -0.00000000000E+00 -0.45593999997E+02  0.45594000000E+02  0.51100000000E-03 0.  1.
    9900012    2    1    2    0    0  0.15019707008E+02 -0.18821172402E+02  0.20901873161E+02  0.59302008862E+02  0.50000118242E+02 0.  0.
        -12    1    1    2    0    0 -0.15019707008E+02  0.18821172402E+02 -0.20901873161E+02  0.31885991138E+02  0.00000000000E+00 0.  1.
         11    1    3    3    0    0 -0.63933308348E+01  0.20496632637E+01  0.85382118026E+01  0.10861715321E+02  0.51100000000E-03 0. -1.
        -11    1    3    3    0    0 -0.10858481623E+01  0.49059586006E+01 -0.73871949227E+01  0.89341001287E+01  0.51100000000E-03 0.  1.
         12    1    3    3    0    0  0.22498886005E+02 -0.25776794266E+02  0.19750856281E+02  0.39506193413E+02  0.00000000000E+00 0. -1.
</event>
<event>
 7    1  0.6489567E-013  0.5930196E+02  0.7816164E-02  0.1266605E+00
        -11   -1    0    0    0    0  0.00000000000E+00  0.00000000000E+00  0.45593999997E+02  0.45594000000E+02  0.51100000000E-03 0.  1.
         11   -1    0    0    0    0 -0.00000000000E+00 -0.00000000000E+00 -0.45593999997E+02  0.45594000000E+02  0.51100000000E-03 0. -1.
    9900012    2    1    2    0    0 -0.20688177877E+02 -0.16563473137E+01 -0.24206922970E+02  0.59301963715E+02  0.50000035905E+02 0.  0.
        -12    1    1    2    0    0  0.20688177877E+02  0.16563473137E+01  0.24206922970E+02  0.31886036285E+02  0.00000000000E+00 0.  1.
         11    1    3    3    0    0 -0.21750769477E+02 -0.67456168618E+01 -0.12479096598E+02  0.25967810302E+02  0.51100000000E-03 0. -1.
        -11    1    3    3    0    0 -0.56497554315E+01 -0.11252079592E+02 -0.89574758246E+01  0.15452035626E+02  0.51100000000E-03 0.  1.
        -12    1    3    3    0    0  0.67123470321E+01  0.16341349140E+02 -0.27703505474E+01  0.17882117787E+02  0.00000000000E+00 0.  1.
</event>
<event>
 7    1  0.6489567E-013  0.5930195E+02  0.7816164E-02  0.1266605E+00
        -11   -1    0    0    0    0  0.00000000000E+00  0.00000000000E+00  0.45593999997E+02  0.45594000000E+02  0.51100000000E-03 0.  1.
         11   -1    0    0    0    0 -0.00000000000E+00 -0.00000000000E+00 -0.45593999997E+02  0.45594000000E+02  0.51100000000E-03 0. -1.
    9900012    2    1    2    0    0  0.89525876634E+01  0.19817340016E+02 -0.23320477143E+02  0.59301945911E+02  0.50000003435E+02 0.  0.
        -12    1    1    2    0    0 -0.89525876634E+01 -0.19817340016E+02  0.23320477143E+02  0.31886054089E+02  0.00000000000E+00 0.  1.
         11    1    3    3    0    0 -0.97099234153E+01 -0.50156352860E+01 -0.13208217856E+02  0.17143401916E+02  0.51100000000E-03 0. -1.
        -11    1    3    3    0    0  0.59881307667E+01  0.31127165306E+00 -0.13086924134E+02  0.14395213916E+02  0.51100000000E-03 0.  1.
        -12    1    3    3    0    0  0.12674380312E+02  0.24521703649E+02  0.29746648472E+01  0.27763330079E+02  0.00000000000E+00 0.  1.
</event>
<event>
 7    1  0.6489567E-013  0.5930193E+02  0.7816164E-02  0.1266605E+00
        -11   -1    0    0    0    0  0.00000000000E+00  0.00000000000E+00  0.45593999997E+02  0.45594000000E+02  0.51100000000E-03 0.  1.
         11   -1    0    0    0    0 -0.00000000000E+00 -0.00000000000E+00 -0.45593999997E+02  0.45594000000E+02  0.51100000000E-03 0. -1.
    9900012    2    1    2    0    0  0.15672942709E+02 -0.17293970245E+01 -0.27714422408E+02  0.59301934758E+02  0.49999983093E+02 0.  0.
        -12    1    1    2    0    0 -0.15672942709E+02  0.17293970245E+01  0.27714422408E+02  0.31886065242E+02  0.00000000000E+00 0.  1.
         11    1    3    3    0    0  0.12722548666E+02  0.20552008019E-01 -0.41374136662E+01  0.13378410184E+02  0.51100000000E-03 0. -1.
        -11    1    3    3    0    0  0.97332384667E+00  0.60174605824E+01  0.98310302694E+01  0.11567469368E+02  0.51100000000E-03 0.  1.
        -12    1    3    3    0    0  0.19770701965E+01 -0.77674096149E+01 -0.33408039012E+02  0.34356055205E+02  0.00000000000E+00 0.  1.
</event>
<event>
 7    1  0.6489567E-013  0.5930193E+02  0.7816164E-02  0.1266605E+00
        -11   -1    0    0    0    0  0.00000000000E+00  0.00000000000E+00  0.45593999997E+02  0.45594000000E+02  0.51100000000E-03 0.  1.
         11   -1    0    0    0    0 -0.00000000000E+00 -0.00000000000E+00 -0.45593999997E+02  0.45594000000E+02  0.51100000000E-03 0. -1.
    9900012    2    1    2    0    0 -0.24160355544E+02 -0.18882303191E+02 -0.87439718953E+01  0.59301934104E+02  0.49999981902E+02 0.  0.
        -12    1    1    2    0    0  0.24160355544E+02  0.18882303191E+02  0.87439718953E+01  0.31886065896E+02  0.00000000000E+00 0.  1.
         11    1    3    3    0    0 -0.21146517627E+02 -0.11111926888E+02  0.42916565233E+01  0.24270732228E+02  0.51100000000E-03 0. -1.
        -11    1    3    3    0    0  0.58278432179E+01 -0.87062116996E+01  0.73454449143E+01  0.12795211604E+02  0.51100000000E-03 0.  1.
         12    1    3    3    0    0 -0.88416811351E+01  0.93583539745E+00 -0.20381073333E+02  0.22235990272E+02  0.00000000000E+00 0. -1.
</event>
<event>
 7    1  0.6489567E-013  0.5930199E+02  0.7816164E-02  0.1266605E+00
        -11   -1    0    0    0    0  0.00000000000E+00  0.00000000000E+00  0.45593999997E+02  0.45594000000E+02  0.51100000000E-03 0.  1.
         11   -1    0    0    0    0 -0.00000000000E+00 -0.00000000000E+00 -0.45593999997E+02  0.45594000000E+02  0.51100000000E-03 0. -1.
    9900012    2    1    2    0    0  0.88254612385E+01 -0.21134539060E+00 -0.30639586309E+02  0.59301989240E+02  0.50000082457E+02 0.  0.
        -12    1    1    2    0    0 -0.88254612385E+01  0.21134539060E+00  0.30639586309E+02  0.31886010760E+02  0.00000000000E+00 0.  1.
         11    1    3    3    0    0  0.13214734487E+02  0.13675766127E+02 -0.20412774982E+02  0.27898694762E+02  0.51100000000E-03 0. -1.
        -11    1    3    3    0    0 -0.12284308151E+02 -0.11966922021E+01 -0.10865648059E+02  0.16443801476E+02  0.51100000000E-03 0.  1.
         12    1    3    3    0    0  0.78950349030E+01 -0.12690419316E+02  0.63883673075E+00  0.14959493003E+02  0.00000000000E+00 0. -1.
</event>
<event>
 7    1  0.6489567E-013  0.5930201E+02  0.7816164E-02  0.1266605E+00
        -11   -1    0    0    0    0  0.00000000000E+00  0.00000000000E+00  0.45593999997E+02  0.45594000000E+02  0.51100000000E-03 0.  1.
         11   -1    0    0    0    0 -0.00000000000E+00 -0.00000000000E+00 -0.45593999997E+02  0.45594000000E+02  0.51100000000E-03 0. -1.
    9900012    2    1    2    0    0 -0.17044863654E+01 -0.26912094791E+02 -0.17016178848E+02  0.59302008368E+02  0.50000117341E+02 0.  0.
        -12    1    1    2    0    0  0.17044863654E+01  0.26912094791E+02  0.17016178848E+02  0.31885991632E+02  0.00000000000E+00 0.  1.
         11    1    3    3    0    0 -0.15771014333E+02 -0.18053948233E+02 -0.86136834136E+01  0.25472838124E+02  0.51100000000E-03 0. -1.
        -11    1    3    3    0    0 -0.71542931757E+01 -0.72429074893E+00 -0.84595822483E+01  0.11102839277E+02  0.51100000000E-03 0.  1.
         12    1    3    3    0    0  0.21220821143E+02 -0.81338558090E+01  0.57086814192E-01  0.22726330967E+02  0.00000000000E+00 0. -1.
</event>
<event>
 7    1  0.6489567E-013  0.5930194E+02  0.7816164E-02  0.1266605E+00
        -11   -1    0    0    0    0  0.00000000000E+00  0.00000000000E+00  0.45593999997E+02  0.45594000000E+02  0.51100000000E-03 0. -1.
         11   -1    0    0    0    0 -0.00000000000E+00 -0.00000000000E+00 -0.45593999997E+02  0.45594000000E+02  0.51100000000E-03 0.  1.
    9900012    2    1    2    0    0  0.29238270361E+02 -0.88511019697E+01 -0.91379536145E+01  0.59301942607E+02  0.49999997409E+02 0.  0.
        -12    1    1    2    0    0 -0.29238270361E+02  0.88511019697E+01  0.91379536145E+01  0.31886057393E+02  0.00000000000E+00 0.  1.
         11    1    3    3    0    0 -0.56021554326E+00  0.35844056255E+01 -0.75792578173E+00  0.37062456603E+01  0.51100000000E-03 0. -1.
        -11    1    3    3    0    0 -0.11501926931E+02 -0.53250122619E+01 -0.47315740090E+01  0.13529148960E+02  0.51100000000E-03 0.  1.
         12    1    3    3    0    0  0.41300412835E+02 -0.71104953333E+01 -0.36484538238E+01  0.42066547987E+02  0.00000000000E+00 0. -1.
</event>
<event>
 7    1  0.6489567E-013  0.5930197E+02  0.7816164E-02  0.1266605E+00
        -11   -1    0    0    0    0  0.00000000000E+00  0.00000000000E+00  0.45593999997E+02  0.45594000000E+02  0.51100000000E-03 0.  1.
         11   -1    0    0    0    0 -0.00000000000E+00 -0.00000000000E+00 -0.45593999997E+02  0.45594000000E+02  0.51100000000E-03 0. -1.
    9900012    2    1    2    0    0  0.29927212727E+01  0.28968870086E+02 -0.12983346972E+02  0.59301966799E+02  0.50000041530E+02 0.  0.
        -12    1    1    2    0    0 -0.29927212727E+01 -0.28968870086E+02  0.12983346972E+02  0.31886033201E+02  0.00000000000E+00 0.  1.
         11    1    3    3    0    0  0.17544152354E+02  0.15358246558E+02  0.50043089397E+01  0.23847769862E+02  0.51100000000E-03 0. -1.
        -11    1    3    3    0    0 -0.17089922960E+00  0.22176649549E+01  0.53350689409E+01  0.57801561626E+01  0.51100000000E-03 0.  1.
        -12    1    3    3    0    0 -0.14380531851E+02  0.11392958573E+02 -0.23322724853E+02  0.29674040775E+02  0.00000000000E+00 0.  1.
</event>
<event>
 7    1  0.6489567E-013  0.5930194E+02  0.7816164E-02  0.1266605E+00
        -11   -1    0    0    0    0  0.00000000000E+00  0.00000000000E+00  0.45593999997E+02  0.45594000000E+02  0.51100000000E-03 0.  1.
         11   -1    0    0    0    0 -0.00000000000E+00 -0.00000000000E+00 -0.45593999997E+02  0.45594000000E+02  0.51100000000E-03 0. -1.
    9900012    2    1    2    0    0  0.19899035403E+02 -0.18326999520E+01 -0.24847341583E+02  0.59301940619E+02  0.49999993784E+02 0.  0.
        -12    1    1    2    0    0 -0.19899035403E+02  0.18326999520E+01  0.24847341583E+02  0.31886059381E+02  0.00000000000E+00 0.  1.
         11    1    3    3    0    0  0.24406551236E+02 -0.22059729217E+01 -0.53506333625E+01  0.25083367744E+02  0.51100000000E-03 0. -1.
        -11    1    3    3    0    0  0.16651321622E+01  0.77739535585E+01  0.39435409024E+01  0.88746005069E+01  0.51100000000E-03 0.  1.
        -12    1    3    3    0    0 -0.61726479949E+01 -0.74006805888E+01 -0.23440249123E+02  0.25343972368E+02  0.00000000000E+00 0.  1.
</event>
<event>
 7    1  0.6489567E-013  0.5930197E+02  0.7816164E-02  0.1266605E+00
        -11   -1    0    0    0    0  0.00000000000E+00  0.00000000000E+00  0.45593999997E+02  0.45594000000E+02  0.51100000000E-03 0.  1.
         11   -1    0    0    0    0 -0.00000000000E+00 -0.00000000000E+00 -0.45593999997E+02  0.45594000000E+02  0.51100000000E-03 0. -1.
    9900012    2    1    2    0    0  0.22759843528E+00 -0.14005030074E+02 -0.28644824784E+02  0.59301973980E+02  0.50000054626E+02 0.  0.
        -12    1    1    2    0    0 -0.22759843528E+00  0.14005030074E+02  0.28644824784E+02  0.31886026020E+02  0.00000000000E+00 0.  1.
         11    1    3    3    0    0  0.60213308472E+00 -0.71543639983E+00 -0.14693512574E+02  0.14723237603E+02  0.51100000000E-03 0. -1.
        -11    1    3    3    0    0  0.15953114850E+02  0.33620583267E+01 -0.13638036452E+02  0.21255619213E+02  0.51100000000E-03 0.  1.
        -12    1    3    3    0    0 -0.16327649500E+02 -0.16651652001E+02 -0.31327575873E+00  0.23323117164E+02  0.00000000000E+00 0.  1.
</event>
<event>
 7    1  0.6489567E-013  0.5930202E+02  0.7816164E-02  0.1266604E+00
        -11   -1    0    0    0    0  0.00000000000E+00  0.00000000000E+00  0.45593999997E+02  0.45594000000E+02  0.51100000000E-03 0. -1.
         11   -1    0    0    0    0 -0.00000000000E+00 -0.00000000000E+00 -0.45593999997E+02  0.45594000000E+02  0.51100000000E-03 0.  1.
    9900012    2    1    2    0    0 -0.11686761859E+02 -0.28755498623E+02 -0.72977118374E+01  0.59302020294E+02  0.50000139090E+02 0.  0.
        -12    1    1    2    0    0  0.11686761859E+02  0.28755498623E+02  0.72977118374E+01  0.31885979706E+02  0.00000000000E+00 0.  1.
         11    1    3    3    0    0  0.11235227863E+01 -0.13488182415E+02  0.50360542577E+01  0.14441440754E+02  0.51100000000E-03 0. -1.
        -11    1    3    3    0    0  0.10007710401E+02  0.17746789544E+01 -0.12840689536E+02  0.16376417828E+02  0.51100000000E-03 0.  1.
        -12    1    3    3    0    0 -0.22817995046E+02 -0.17041995162E+02  0.50692344063E+00  0.28484161711E+02  0.00000000000E+00 0.  1.
</event>
<event>
 7    1  0.6489567E-013  0.5930193E+02  0.7816164E-02  0.1266605E+00
        -11   -1    0    0    0    0  0.00000000000E+00  0.00000000000E+00  0.45593999997E+02  0.45594000000E+02  0.51100000000E-03 0. -1.
         11   -1    0    0    0    0 -0.00000000000E+00 -0.00000000000E+00 -0.45593999997E+02  0.45594000000E+02  0.51100000000E-03 0.  1.
    9900012    2    1    2    0    0  0.13596672319E+02 -0.86687244594E+01  0.27508274851E+02  0.59301929888E+02  0.49999974213E+02 0.  0.
        -12    1    1    2    0    0 -0.13596672319E+02  0.86687244594E+01 -0.27508274851E+02  0.31886070112E+02  0.00000000000E+00 0.  1.
         11    1    3    3    0    0  0.18341315024E+01  0.30851933004E+01 -0.34944254332E+01  0.50093378243E+01  0.51100000000E-03 0. -1.
        -11    1    3    3    0    0  0.17245773852E+02 -0.76883199566E+01 -0.34290264656E+01  0.19190758252E+02  0.51100000000E-03 0.  1.
        -12    1    3    3    0    0 -0.54832330361E+01 -0.40655978032E+01  0.34431726750E+02  0.35101833812E+02  0.00000000000E+00 0.  1.
</event>
<event>
 7    1  0.6489567E-013  0.5930192E+02  0.7816164E-02  0.1266605E+00
        -11   -1    0    0    0    0  0.00000000000E+00  0.00000000000E+00  0.45593999997E+02  0.45594000000E+02  0.51100000000E-03 0.  1.
         11   -1    0    0    0    0 -0.00000000000E+00 -0.00000000000E+00 -0.45593999997E+02  0.45594000000E+02  0.51100000000E-03 0. -1.
    9900012    2    1    2    0    0  0.68294726039E+01 -0.15635784976E+02 -0.26937007064E+02  0.59301924396E+02  0.49999964196E+02 0.  0.
        -12    1    1    2    0    0 -0.68294726039E+01  0.15635784976E+02  0.26937007064E+02  0.31886075604E+02  0.00000000000E+00 0.  1.
         11    1    3    3    0    0 -0.20043862222E+01  0.70066610757E+01  0.39850219810E+00  0.72986072521E+01  0.51100000000E-03 0. -1.
        -11    1    3    3    0    0  0.45786536649E+01 -0.64068744260E+01  0.90120044399E+01  0.11967804042E+02  0.51100000000E-03 0.  1.
         12    1    3    3    0    0  0.42552051613E+01 -0.16235571626E+02 -0.36347513702E+02  0.40035513102E+02  0.00000000000E+00 0. -1.
</event>
<event>
 7    1  0.6489567E-013  0.5930194E+02  0.7816164E-02  0.1266605E+00
        -11   -1    0    0    0    0  0.00000000000E+00  0.00000000000E+00  0.45593999997E+02  0.45594000000E+02  0.51100000000E-03 0.  1.
         11   -1    0    0    0    0 -0.00000000000E+00 -0.00000000000E+00 -0.45593999997E+02  0.45594000000E+02  0.51100000000E-03 0. -1.
    9900012    2    1    2    0    0 -0.14816459967E+02 -0.23921276391E+01 -0.28133091560E+02  0.59301943465E+02  0.49999998974E+02 0.  0.
        -12    1    1    2    0    0  0.14816459967E+02  0.23921276391E+01  0.28133091560E+02  0.31886056535E+02  0.00000000000E+00 0.  1.
         11    1    3    3    0    0 -0.16460024732E+02  0.52335531944E+01 -0.31559461555E+02  0.35976688385E+02  0.51100000000E-03 0. -1.
        -11    1    3    3    0    0 -0.61597325556E+01 -0.65374738033E+00 -0.64454414599E+01  0.89394298849E+01  0.51100000000E-03 0.  1.
        -12    1    3    3    0    0  0.78032973206E+01 -0.69719334532E+01  0.98718114550E+01  0.14385825195E+02  0.00000000000E+00 0.  1.
</event>
<event>
 7    1  0.6489567E-013  0.5930193E+02  0.7816164E-02  0.1266605E+00
        -11   -1    0    0    0    0  0.00000000000E+00  0.00000000000E+00  0.45593999997E+02  0.45594000000E+02  0.51100000000E-03 0.  1.
         11   -1    0    0    0    0 -0.00000000000E+00 -0.00000000000E+00 -0.45593999997E+02  0.45594000000E+02  0.51100000000E-03 0. -1.
    9900012    2    1    2    0    0  0.24483204282E+02 -0.18007898472E+02 -0.96441602714E+01  0.59301928956E+02  0.49999972513E+02 0.  0.
        -12    1    1    2    0    0 -0.24483204282E+02  0.18007898472E+02  0.96441602714E+01  0.31886071044E+02  0.00000000000E+00 0.  1.
         11    1    3    3    0    0  0.38232321567E+01 -0.70124764150E+01  0.69371981276E+01  0.10579066486E+02  0.51100000000E-03 0. -1.
        -11    1    3    3    0    0  0.28849760724E+02  0.35634935064E+01 -0.11521315534E+02  0.31268960515E+02  0.51100000000E-03 0.  1.
         12    1    3    3    0    0 -0.81897885984E+01 -0.14558915563E+02 -0.50600428654E+01  0.17453901955E+02  0.00000000000E+00 0. -1.
</event>
<event>
 7    1  0.6489567E-013  0.5930196E+02  0.7816164E-02  0.1266605E+00
        -11   -1    0    0    0    0  0.00000000000E+00  0.00000000000E+00  0.45593999997E+02  0.45594000000E+02  0.51100000000E-03 0.  1.
         11   -1    0    0    0    0 -0.00000000000E+00 -0.00000000000E+00 -0.45593999997E+02  0.45594000000E+02  0.51100000000E-03 0. -1.
    9900012    2    1    2    0    0 -0.15945481285E+02 -0.25007314337E+02 -0.11708765087E+02  0.59301963501E+02  0.50000035514E+02 0.  0.
        -12    1    1    2    0    0  0.15945481285E+02  0.25007314337E+02  0.11708765087E+02  0.31886036499E+02  0.00000000000E+00 0.  1.
         11    1    3    3    0    0 -0.18934219935E+01 -0.20855411268E+02 -0.97637074952E+01  0.23105480092E+02  0.51100000000E-03 0. -1.
        -11    1    3    3    0    0  0.10316642773E+02 -0.41967280396E+01 -0.37729396410E+01  0.11759282212E+02  0.51100000000E-03 0.  1.
         12    1    3    3    0    0 -0.24368702064E+02  0.44824969873E-01  0.18278820496E+01  0.24437201197E+02  0.00000000000E+00 0. -1.
</event>
<event>
 7    1  0.6489567E-013  0.5930195E+02  0.7816164E-02  0.1266605E+00
        -11   -1    0    0    0    0  0.00000000000E+00  0.00000000000E+00  0.45593999997E+02  0.45594000000E+02  0.51100000000E-03 0. -1.
         11   -1    0    0    0    0 -0.00000000000E+00 -0.00000000000E+00 -0.45593999997E+02  0.45594000000E+02  0.51100000000E-03 0.  1.
    9900012    2    1    2    0    0  0.14585800552E+02 -0.27323838011E+02 -0.75751030031E+01  0.59301954668E+02  0.50000019406E+02 0.  0.
        -12    1    1    2    0    0 -0.14585800552E+02  0.27323838011E+02  0.75751030031E+01  0.31886045332E+02  0.00000000000E+00 0.  1.
         11    1    3    3    0    0  0.14255767732E+02 -0.23504546121E+01  0.10554461534E+02  0.17892685909E+02  0.51100000000E-03 0. -1.
        -11    1    3    3    0    0 -0.82391917678E+00  0.42708470581E+01  0.30243544171E+01  0.52977067968E+01  0.51100000000E-03 0.  1.
        -12    1    3    3    0    0  0.11539519967E+01 -0.29244230457E+02 -0.21153918954E+02  0.36111561962E+02  0.00000000000E+00 0.  1.
</event>
<event>
 7    1  0.6489567E-013  0.5930194E+02  0.7816164E-02  0.1266605E+00
        -11   -1    0    0    0    0  0.00000000000E+00  0.00000000000E+00  0.45593999997E+02  0.45594000000E+02  0.51100000000E-03 0. -1.
         11   -1    0    0    0    0 -0.00000000000E+00 -0.00000000000E+00 -0.45593999997E+02  0.45594000000E+02  0.51100000000E-03 0.  1.
    9900012    2    1    2    0    0 -0.25110917940E+02 -0.18816285751E+02 -0.56665872964E+01  0.59301936887E+02  0.49999986977E+02 0.  0.
        -12    1    1    2    0    0  0.25110917940E+02  0.18816285751E+02  0.56665872964E+01  0.31886063113E+02  0.00000000000E+00 0.  1.
         11    1    3    3    0    0  0.40584200618E+01  0.44492859024E+01  0.51580929136E+01  0.79292396360E+01  0.51100000000E-03 0.  1.
        -11    1    3    3    0    0  0.27142460294E+01 -0.17085866455E+02 -0.70334915593E+01  0.18675223367E+02  0.51100000000E-03 0. -1.
        -12    1    3    3    0    0 -0.31883584031E+02 -0.61797051982E+01 -0.37911886506E+01  0.32697473884E+02  0.00000000000E+00 0.  1.
</event>
<event>
 7    1  0.6489567E-013  0.5930201E+02  0.7816164E-02  0.1266605E+00
        -11   -1    0    0    0    0  0.00000000000E+00  0.00000000000E+00  0.45593999997E+02  0.45594000000E+02  0.51100000000E-03 0. -1.
         11   -1    0    0    0    0 -0.00000000000E+00 -0.00000000000E+00 -0.45593999997E+02  0.45594000000E+02  0.51100000000E-03 0.  1.
    9900012    2    1    2    0    0  0.21145288449E+02 -0.14718774084E+02  0.18786984722E+02  0.59302010458E+02  0.50000121152E+02 0.  0.
        -12    1    1    2    0    0 -0.21145288449E+02  0.14718774084E+02 -0.18786984722E+02  0.31885989542E+02  0.00000000000E+00 0.  1.
         11    1    3    3    0    0  0.69393256545E+00  0.97342683596E+01  0.10337233370E+02  0.14216044348E+02  0.51100000000E-03 0. -1.
        -11    1    3    3    0    0  0.12857663593E+02  0.24820629929E+01 -0.50246718756E+01  0.14025957275E+02  0.51100000000E-03 0.  1.
         12    1    3    3    0    0  0.75936922914E+01 -0.26935105436E+02  0.13474423228E+02  0.31060008835E+02  0.00000000000E+00 0. -1.
</event>
<event>
 7    1  0.6489567E-013  0.5930195E+02  0.7816164E-02  0.1266605E+00
        -11   -1    0    0    0    0  0.00000000000E+00  0.00000000000E+00  0.45593999997E+02  0.45594000000E+02  0.51100000000E-03 0. -1.
         11   -1    0    0    0    0 -0.00000000000E+00 -0.00000000000E+00 -0.45593999997E+02  0.45594000000E+02  0.51100000000E-03 0.  1.
    9900012    2    1    2    0    0 -0.81103479355E+01  0.28148236947E+02 -0.12594418685E+02  0.59301947110E+02  0.50000005622E+02 0.  0.
        -12    1    1    2    0    0  0.81103479355E+01 -0.28148236947E+02  0.12594418685E+02  0.31886052890E+02  0.00000000000E+00 0.  1.
         11    1    3    3    0    0 -0.90849232133E+01  0.16632156707E+02 -0.10217439984E+02  0.21530456256E+02  0.51100000000E-03 0. -1.
        -11    1    3    3    0    0 -0.14017004285E+02 -0.51602828032E+01  0.15099638746E+01  0.15012825147E+02  0.51100000000E-03 0.  1.
        -12    1    3    3    0    0  0.14991579563E+02  0.16676363043E+02 -0.38869425760E+01  0.22758665706E+02  0.00000000000E+00 0.  1.
</event>
<event>
 7    1  0.6489567E-013  0.5930193E+02  0.7816164E-02  0.1266605E+00
        -11   -1    0    0    0    0  0.00000000000E+00  0.00000000000E+00  0.45593999997E+02  0.45594000000E+02  0.51100000000E-03 0. -1.
         11   -1    0    0    0    0 -0.00000000000E+00 -0.00000000000E+00 -0.45593999997E+02  0.45594000000E+02  0.51100000000E-03 0.  1.
    9900012    2    1    2    0    0  0.22086222706E+02 -0.19343110762E+02  0.12440424104E+02  0.59301932207E+02  0.49999978442E+02 0.  0.
        -12    1    1    2    0    0 -0.22086222706E+02  0.19343110762E+02 -0.12440424104E+02  0.31886067793E+02  0.00000000000E+00 0.  1.
         11    1    3    3    0    0  0.98278477468E+01 -0.12426955784E+02 -0.29528607899E+01  0.16116302569E+02  0.51100000000E-03 0. -1.
        -11    1    3    3    0    0  0.11903929316E+02  0.12399977765E+02 -0.18525463822E+01  0.17288577445E+02  0.51100000000E-03 0.  1.
        -12    1    3    3    0    0  0.35444564399E+00 -0.19316132743E+02  0.17245831276E+02  0.25897052193E+02  0.00000000000E+00 0.  1.
</event>
<event>
 7    1  0.6489567E-013  0.5930166E+02  0.7816164E-02  0.1266606E+00
        -11   -1    0    0    0    0  0.00000000000E+00  0.00000000000E+00  0.45593999997E+02  0.45594000000E+02  0.51100000000E-03 0. -1.
         11   -1    0    0    0    0 -0.00000000000E+00 -0.00000000000E+00 -0.45593999997E+02  0.45594000000E+02  0.51100000000E-03 0.  1.
    9900012    2    1    2    0    0  0.25799516884E+02  0.18703040756E+02 -0.11487568042E+01  0.59301663629E+02  0.49999488618E+02 0.  0.
        -12    1    1    2    0    0 -0.25799516884E+02 -0.18703040756E+02  0.11487568042E+01  0.31886336371E+02  0.00000000000E+00 0.  1.
         11    1    3    3    0    0  0.51730399641E+01  0.25454271472E+02  0.35405816313E+01  0.26214804924E+02  0.51100000000E-03 0. -1.
        -11    1    3    3    0    0  0.14370548577E+02  0.71176719300E+01  0.25494435945E+01  0.16238028914E+02  0.51100000000E-03 0.  1.
        -12    1    3    3    0    0  0.62559283425E+01 -0.13868902647E+02 -0.72387820300E+01  0.16848829791E+02  0.00000000000E+00 0.  1.
</event>
<event>
 7    1  0.6489567E-013  0.5930199E+02  0.7816164E-02  0.1266605E+00
        -11   -1    0    0    0    0  0.00000000000E+00  0.00000000000E+00  0.45593999997E+02  0.45594000000E+02  0.51100000000E-03 0.  1.
         11   -1    0    0    0    0 -0.00000000000E+00 -0.00000000000E+00 -0.45593999997E+02  0.45594000000E+02  0.51100000000E-03 0. -1.
    9900012    2    1    2    0    0  0.23074852389E+02  0.21945931342E+02 -0.16262318585E+01  0.59301994523E+02  0.50000092091E+02 0.  0.
        -12    1    1    2    0    0 -0.23074852389E+02 -0.21945931342E+02  0.16262318585E+01  0.31886005477E+02  0.00000000000E+00 0.  1.
         11    1    3    3    0    0 -0.37801478625E+01 -0.44134893411E+01 -0.13691702022E+02  0.14873839805E+02  0.51100000000E-03 0. -1.
        -11    1    3    3    0    0 -0.29044744233E+01  0.55219677494E+01  0.32916378858E+01  0.70542880387E+01  0.51100000000E-03 0.  1.
         12    1    3    3    0    0  0.29759474675E+02  0.20837452933E+02  0.87738322777E+01  0.37373866679E+02  0.00000000000E+00 0. -1.
</event>
<event>
 7    1  0.6489567E-013  0.5930196E+02  0.7816164E-02  0.1266605E+00
        -11   -1    0    0    0    0  0.00000000000E+00  0.00000000000E+00  0.45593999997E+02  0.45594000000E+02  0.51100000000E-03 0.  1.
         11   -1    0    0    0    0 -0.00000000000E+00 -0.00000000000E+00 -0.45593999997E+02  0.45594000000E+02  0.51100000000E-03 0. -1.
    9900012    2    1    2    0    0 -0.38671877180E+01 -0.28159264089E+02 -0.14450610225E+02  0.59301961820E+02  0.50000032450E+02 0.  0.
        -12    1    1    2    0    0  0.38671877180E+01  0.28159264089E+02  0.14450610225E+02  0.31886038180E+02  0.00000000000E+00 0.  1.
         11    1    3    3    0    0  0.12606025918E+02  0.35405033143E+01 -0.65795567952E+01  0.14653928519E+02  0.51100000000E-03 0. -1.
        -11    1    3    3    0    0  0.21006929863E+01 -0.10658895559E+02 -0.12104051910E+02  0.16264471662E+02  0.51100000000E-03 0.  1.
        -12    1    3    3    0    0 -0.18573906622E+02 -0.21040871845E+02  0.42329984801E+01  0.28383561639E+02  0.00000000000E+00 0.  1.
</event>
<event>
 7    1  0.6489567E-013  0.5930196E+02  0.7816164E-02  0.1266605E+00
        -11   -1    0    0    0    0  0.00000000000E+00  0.00000000000E+00  0.45593999997E+02  0.45594000000E+02  0.51100000000E-03 0. -1.
         11   -1    0    0    0    0 -0.00000000000E+00 -0.00000000000E+00 -0.45593999997E+02  0.45594000000E+02  0.51100000000E-03 0.  1.
    9900012    2    1    2    0    0  0.19006310052E+02 -0.10108851896E+02  0.23522141483E+02  0.59301955272E+02  0.50000020506E+02 0.  0.
        -12    1    1    2    0    0 -0.19006310052E+02  0.10108851896E+02 -0.23522141483E+02  0.31886044728E+02  0.00000000000E+00 0.  1.
         11    1    3    3    0    0  0.71202764856E+01  0.37391246332E+01  0.96840613233E+01  0.12588106856E+02  0.51100000000E-03 0. -1.
        -11    1    3    3    0    0 -0.31789659776E+00  0.12620608859E+02  0.12145177232E+02  0.17518166470E+02  0.51100000000E-03 0.  1.
        -12    1    3    3    0    0  0.12203930165E+02 -0.26468585388E+02  0.16929029282E+01  0.29195681945E+02  0.00000000000E+00 0.  1.
</event>
<event>
 7    1  0.6489567E-013  0.5930194E+02  0.7816164E-02  0.1266605E+00
        -11   -1    0    0    0    0  0.00000000000E+00  0.00000000000E+00  0.45593999997E+02  0.45594000000E+02  0.51100000000E-03 0.  1.
         11   -1    0    0    0    0 -0.00000000000E+00 -0.00000000000E+00 -0.45593999997E+02  0.45594000000E+02  0.51100000000E-03 0. -1.
    9900012    2    1    2    0    0 -0.88223539344E+01  0.14259290526E+02 -0.27121201100E+02  0.59301939654E+02  0.49999992024E+02 0.  0.
        -12    1    1    2    0    0  0.88223539344E+01 -0.14259290526E+02  0.27121201100E+02  0.31886060346E+02  0.00000000000E+00 0.  1.
         11    1    3    3    0    0 -0.11909008494E+02 -0.62217838073E+01  0.33511532747E+00  0.13440512624E+02  0.51100000000E-03 0. -1.
        -11    1    3    3    0    0 -0.35392971158E+01  0.16706535879E+01  0.58513366268E+01  0.70395914701E+01  0.51100000000E-03 0.  1.
         12    1    3    3    0    0  0.66259516756E+01  0.18810420745E+02 -0.33307653055E+02  0.38821835560E+02  0.00000000000E+00 0. -1.
</event>
<event>
 7    1  0.6489567E-013  0.5930194E+02  0.7816164E-02  0.1266605E+00
        -11   -1    0    0    0    0  0.00000000000E+00  0.00000000000E+00  0.45593999997E+02  0.45594000000E+02  0.51100000000E-03 0.  1.
         11   -1    0    0    0    0 -0.00000000000E+00 -0.00000000000E+00 -0.45593999997E+02  0.45594000000E+02  0.51100000000E-03 0. -1.
    9900012    2    1    2    0    0  0.16223317021E+02  0.20951328752E+02 -0.17736029509E+02  0.59301938243E+02  0.49999989450E+02 0.  0.
        -12    1    1    2    0    0 -0.16223317021E+02 -0.20951328752E+02  0.17736029509E+02  0.31886061757E+02  0.00000000000E+00 0.  1.
         11    1    3    3    0    0 -0.69142870389E+00  0.11308156318E+02  0.14538186182E+02  0.18431259607E+02  0.51100000000E-03 0. -1.
        -11    1    3    3    0    0 -0.19778205984E+01 -0.17276550439E+01 -0.15394351868E+01  0.30440806865E+01  0.51100000000E-03 0.  1.
         12    1    3    3    0    0  0.18892566323E+02  0.11370827478E+02 -0.30734780504E+02  0.37826597950E+02  0.00000000000E+00 0. -1.
</event>
<event>
 7    1  0.6489567E-013  0.5930204E+02  0.7816164E-02  0.1266604E+00
        -11   -1    0    0    0    0  0.00000000000E+00  0.00000000000E+00  0.45593999997E+02  0.45594000000E+02  0.51100000000E-03 0.  1.
         11   -1    0    0    0    0 -0.00000000000E+00 -0.00000000000E+00 -0.45593999997E+02  0.45594000000E+02  0.51100000000E-03 0. -1.
    9900012    2    1    2    0    0  0.66920516898E+01  0.26423856635E+02 -0.16544207093E+02  0.59302038456E+02  0.50000172213E+02 0.  0.
        -12    1    1    2    0    0 -0.66920516898E+01 -0.26423856635E+02  0.16544207093E+02  0.31885961544E+02  0.00000000000E+00 0.  1.
         11    1    3    3    0    0  0.66028865540E+01  0.83866904539E+01 -0.67726689623E+01  0.12641350116E+02  0.51100000000E-03 0. -1.
        -11    1    3    3    0    0  0.69201683843E+00  0.29162423911E+02 -0.16629369577E+02  0.33577697784E+02  0.51100000000E-03 0.  1.
         12    1    3    3    0    0 -0.60285170264E+00 -0.11125257731E+02  0.68578314458E+01  0.13082990556E+02  0.00000000000E+00 0. -1.
</event>
<event>
 7    1  0.6489567E-013  0.5930195E+02  0.7816164E-02  0.1266605E+00
        -11   -1    0    0    0    0  0.00000000000E+00  0.00000000000E+00  0.45593999997E+02  0.45594000000E+02  0.51100000000E-03 0.  1.
         11   -1    0    0    0    0 -0.00000000000E+00 -0.00000000000E+00 -0.45593999997E+02  0.45594000000E+02  0.51100000000E-03 0. -1.
    9900012    2    1    2    0    0 -0.14847032998E+02 -0.24907161492E+02 -0.13263438053E+02  0.59301954911E+02  0.50000019848E+02 0.  0.
        -12    1    1    2    0    0  0.14847032998E+02  0.24907161492E+02  0.13263438053E+02  0.31886045089E+02  0.00000000000E+00 0.  1.
         11    1    3    3    0    0 -0.32782506057E+01  0.20998486437E+01 -0.16271055045E+02  0.16730317508E+02  0.51100000000E-03 0. -1.
        -11    1    3    3    0    0  0.71404158913E+00  0.65387946993E+01  0.18340791641E+01  0.68285824409E+01  0.51100000000E-03 0.  1.
        -12    1    3    3    0    0 -0.12282823982E+02 -0.33545804835E+02  0.11735378285E+01  0.35743054962E+02  0.00000000000E+00 0.  1.
</event>
<event>
 7    1  0.6489567E-013  0.5930194E+02  0.7816164E-02  0.1266605E+00
        -11   -1    0    0    0    0  0.00000000000E+00  0.00000000000E+00  0.45593999997E+02  0.45594000000E+02  0.51100000000E-03 0. -1.
         11   -1    0    0    0    0 -0.00000000000E+00 -0.00000000000E+00 -0.45593999997E+02  0.45594000000E+02  0.51100000000E-03 0.  1.
    9900012    2    1    2    0    0 -0.99578160536E+01  0.22121694459E+02  0.20692827252E+02  0.59301944020E+02  0.49999999986E+02 0.  0.
        -12    1    1    2    0    0  0.99578160536E+01 -0.22121694459E+02 -0.20692827252E+02  0.31886055980E+02  0.00000000000E+00 0.  1.
         11    1    3    3    0    0 -0.15117653241E+02  0.11565670353E+02  0.16842137702E+02  0.25415856721E+02  0.51100000000E-03 0. -1.
        -11    1    3    3    0    0 -0.12870650211E+02  0.31602858493E+00  0.24321085042E+01  0.13102238853E+02  0.51100000000E-03 0.  1.
        -12    1    3    3    0    0  0.18030487398E+02  0.10239995521E+02  0.14185810459E+01  0.20783848447E+02  0.00000000000E+00 0.  1.
</event>
<event>
 7    1  0.6489567E-013  0.5930215E+02  0.7816164E-02  0.1266604E+00
        -11   -1    0    0    0    0  0.00000000000E+00  0.00000000000E+00  0.45593999997E+02  0.45594000000E+02  0.51100000000E-03 0.  1.
         11   -1    0    0    0    0 -0.00000000000E+00 -0.00000000000E+00 -0.45593999997E+02  0.45594000000E+02  0.51100000000E-03 0. -1.
    9900012    2    1    2    0    0  0.47792981963E+01  0.13687355652E+02 -0.28399330272E+02  0.59302151166E+02  0.50000377769E+02 0.  0.
        -12    1    1    2    0    0 -0.47792981963E+01 -0.13687355652E+02  0.28399330272E+02  0.31885848834E+02  0.00000000000E+00 0.  1.
         11    1    3    3    0    0 -0.31559388224E+01 -0.54561159517E+01 -0.15914056954E+01  0.65009017434E+01  0.51100000000E-03 0. -1.
        -11    1    3    3    0    0  0.12512781308E+02  0.42985598953E+01  0.74512970991E+01  0.15184503349E+02  0.51100000000E-03 0.  1.
         12    1    3    3    0    0 -0.45775442891E+01  0.14844911708E+02 -0.34259221676E+02  0.37616746074E+02  0.00000000000E+00 0. -1.
</event>
<event>
 7    1  0.6489567E-013  0.5930194E+02  0.7816164E-02  0.1266605E+00
        -11   -1    0    0    0    0  0.00000000000E+00  0.00000000000E+00  0.45593999997E+02  0.45594000000E+02  0.51100000000E-03 0.  1.
         11   -1    0    0    0    0 -0.00000000000E+00 -0.00000000000E+00 -0.45593999997E+02  0.45594000000E+02  0.51100000000E-03 0. -1.
    9900012    2    1    2    0    0  0.13709406583E+02  0.28168395542E+02 -0.59425824538E+01  0.59301943134E+02  0.49999998369E+02 0.  0.
        -12    1    1    2    0    0 -0.13709406583E+02 -0.28168395542E+02  0.59425824538E+01  0.31886056866E+02  0.00000000000E+00 0.  1.
         11    1    3    3    0    0  0.20812845909E+01  0.25135241748E+02 -0.15687386984E+02  0.29701956736E+02  0.51100000000E-03 0. -1.
        -11    1    3    3    0    0  0.74239724288E+01  0.72798532982E+01 -0.65195604838E+01  0.12272583258E+02  0.51100000000E-03 0.  1.
        -12    1    3    3    0    0  0.42041495633E+01 -0.42466995045E+01  0.16264365014E+02  0.17327403139E+02  0.00000000000E+00 0.  1.
</event>
<event>
 7    1  0.6489567E-013  0.5930198E+02  0.7816164E-02  0.1266605E+00
        -11   -1    0    0    0    0  0.00000000000E+00  0.00000000000E+00  0.45593999997E+02  0.45594000000E+02  0.51100000000E-03 0. -1.
         11   -1    0    0    0    0 -0.00000000000E+00 -0.00000000000E+00 -0.45593999997E+02  0.45594000000E+02  0.51100000000E-03 0.  1.
    9900012    2    1    2    0    0  0.10063566732E+02  0.10699265708E+02  0.28301389316E+02  0.59301979564E+02  0.50000064809E+02 0.  0.
        -12    1    1    2    0    0 -0.10063566732E+02 -0.10699265708E+02 -0.28301389316E+02  0.31886020436E+02  0.00000000000E+00 0.  1.
         11    1    3    3    0    0 -0.11924392252E+02  0.81618380576E+01 -0.82193903033E+00  0.14473503898E+02  0.51100000000E-03 0. -1.
        -11    1    3    3    0    0  0.12207297207E+01  0.41494602455E+01 -0.38740861949E+01  0.58066122211E+01  0.51100000000E-03 0.  1.
        -12    1    3    3    0    0  0.20767229263E+02 -0.16120325951E+01  0.32997414541E+02  0.39021863445E+02  0.00000000000E+00 0.  1.
</event>
<event>
 7    1  0.6489567E-013  0.5930195E+02  0.7816164E-02  0.1266605E+00
        -11   -1    0    0    0    0  0.00000000000E+00  0.00000000000E+00  0.45593999997E+02  0.45594000000E+02  0.51100000000E-03 0. -1.
         11   -1    0    0    0    0 -0.00000000000E+00 -0.00000000000E+00 -0.45593999997E+02  0.45594000000E+02  0.51100000000E-03 0.  1.
    9900012    2    1    2    0    0  0.18608063411E+02 -0.25061061615E+02  0.65118065242E+01  0.59301945722E+02  0.50000003090E+02 0.  0.
        -12    1    1    2    0    0 -0.18608063411E+02  0.25061061615E+02 -0.65118065242E+01  0.31886054278E+02  0.00000000000E+00 0.  1.
         11    1    3    3    0    0 -0.79344748794E+01  0.15359334527E+01  0.12407920162E+02  0.14807817739E+02  0.51100000000E-03 0. -1.
        -11    1    3    3    0    0  0.14797579572E+01  0.30623924949E+01 -0.44968661763E+01  0.56382388272E+01  0.51100000000E-03 0.  1.
         12    1    3    3    0    0  0.25062780333E+02 -0.29659387563E+02 -0.13992474612E+01  0.38855889156E+02  0.00000000000E+00 0. -1.
</event>
<event>
 7    1  0.6489567E-013  0.5930181E+02  0.7816164E-02  0.1266605E+00
        -11   -1    0    0    0    0  0.00000000000E+00  0.00000000000E+00  0.45593999997E+02  0.45594000000E+02  0.51100000000E-03 0.  1.
         11   -1    0    0    0    0 -0.00000000000E+00 -0.00000000000E+00 -0.45593999997E+02  0.45594000000E+02  0.51100000000E-03 0. -1.
    9900012    2    1    2    0    0  0.23873826711E+02  0.55020273469E+01 -0.20408269200E+02  0.59301806147E+02  0.49999748537E+02 0.  0.
        -12    1    1    2    0    0 -0.23873826711E+02 -0.55020273469E+01  0.20408269200E+02  0.31886193853E+02  0.00000000000E+00 0.  1.
         11    1    3    3    0    0 -0.95120510642E+01 -0.26779452217E+01  0.84623133868E+01  0.13010044357E+02  0.51100000000E-03 0.  1.
        -11    1    3    3    0    0  0.82270536366E+01  0.48656917319E+01 -0.13770814402E+02  0.16762896442E+02  0.51100000000E-03 0. -1.
        -12    1    3    3    0    0  0.25158824138E+02  0.33142808367E+01 -0.15099768184E+02  0.29528865347E+02  0.00000000000E+00 0.  1.
</event>
<event>
 7    1  0.6489567E-013  0.5930193E+02  0.7816164E-02  0.1266605E+00
        -11   -1    0    0    0    0  0.00000000000E+00  0.00000000000E+00  0.45593999997E+02  0.45594000000E+02  0.51100000000E-03 0. -1.
         11   -1    0    0    0    0 -0.00000000000E+00 -0.00000000000E+00 -0.45593999997E+02  0.45594000000E+02  0.51100000000E-03 0.  1.
    9900012    2    1    2    0    0  0.23015114519E+02  0.20023611319E+02  0.92779731914E+01  0.59301932617E+02  0.49999979190E+02 0.  0.
        -12    1    1    2    0    0 -0.23015114519E+02 -0.20023611319E+02 -0.92779731914E+01  0.31886067383E+02  0.00000000000E+00 0.  1.
         11    1    3    3    0    0 -0.26308637050E-01 -0.92805847491E+01  0.50737164190E+01  0.10576981800E+02  0.51100000000E-03 0. -1.
        -11    1    3    3    0    0 -0.74192772796E+01  0.86162293400E+01 -0.14824689637E+01  0.11466594869E+02  0.51100000000E-03 0.  1.
         12    1    3    3    0    0  0.30460700436E+02  0.20687966729E+02  0.56867257362E+01  0.37258355949E+02  0.00000000000E+00 0. -1.
</event>
<event>
 7    1  0.6489567E-013  0.5930194E+02  0.7816164E-02  0.1266605E+00
        -11   -1    0    0    0    0  0.00000000000E+00  0.00000000000E+00  0.45593999997E+02  0.45594000000E+02  0.51100000000E-03 0. -1.
         11   -1    0    0    0    0 -0.00000000000E+00 -0.00000000000E+00 -0.45593999997E+02  0.45594000000E+02  0.51100000000E-03 0.  1.
    9900012    2    1    2    0    0 -0.24642851144E+02 -0.35922998667E+01  0.19913469243E+02  0.59301937400E+02  0.49999987913E+02 0.  0.
        -12    1    1    2    0    0  0.24642851144E+02  0.35922998667E+01 -0.19913469243E+02  0.31886062600E+02  0.00000000000E+00 0.  1.
         11    1    3    3    0    0 -0.70257164434E+01 -0.30263515220E+01 -0.12288320801E+02  0.14474885956E+02  0.51100000000E-03 0.  1.
        -11    1    3    3    0    0 -0.79430795699E+01 -0.10219607909E+02  0.40984925214E+01  0.13576838368E+02  0.51100000000E-03 0. -1.
         12    1    3    3    0    0 -0.96740551307E+01  0.96536595643E+01  0.28103297522E+02  0.31250213076E+02  0.00000000000E+00 0. -1.
</event>
<event>
 7    1  0.6489567E-013  0.5930195E+02  0.7816164E-02  0.1266605E+00
        -11   -1    0    0    0    0  0.00000000000E+00  0.00000000000E+00  0.45593999997E+02  0.45594000000E+02  0.51100000000E-03 0. -1.
         11   -1    0    0    0    0 -0.00000000000E+00 -0.00000000000E+00 -0.45593999997E+02  0.45594000000E+02  0.51100000000E-03 0.  1.
    9900012    2    1    2    0    0  0.43797770367E+01 -0.21903544037E+01  0.31507773405E+02  0.59301954710E+02  0.50000019482E+02 0.  0.
        -12    1    1    2    0    0 -0.43797770367E+01  0.21903544037E+01 -0.31507773405E+02  0.31886045290E+02  0.00000000000E+00 0.  1.
         11    1    3    3    0    0 -0.50856988497E+00 -0.18663849986E+02  0.17114024750E+02  0.25327609106E+02  0.51100000000E-03 0. -1.
        -11    1    3    3    0    0  0.75190734978E+01 -0.46096919841E+00  0.15043697389E+02  0.16824440266E+02  0.51100000000E-03 0.  1.
         12    1    3    3    0    0 -0.26307265761E+01  0.16934464781E+02 -0.64994873400E+00  0.17149905338E+02  0.00000000000E+00 0. -1.
</event>
<event>
 7    1  0.6489567E-013  0.5930193E+02  0.7816164E-02  0.1266605E+00
        -11   -1    0    0    0    0  0.00000000000E+00  0.00000000000E+00  0.45593999997E+02  0.45594000000E+02  0.51100000000E-03 0. -1.
         11   -1    0    0    0    0 -0.00000000000E+00 -0.00000000000E+00 -0.45593999997E+02  0.45594000000E+02  0.51100000000E-03 0.  1.
    9900012    2    1    2    0    0 -0.24155465221E+02  0.15833432995E+02  0.13510644197E+02  0.59301927695E+02  0.49999970213E+02 0.  0.
        -12    1    1    2    0    0  0.24155465221E+02 -0.15833432995E+02 -0.13510644197E+02  0.31886072305E+02  0.00000000000E+00 0.  1.
         11    1    3    3    0    0 -0.39663973101E+01  0.19604820536E+02  0.21845650387E+02  0.29619482389E+02  0.51100000000E-03 0. -1.
        -11    1    3    3    0    0 -0.11224472680E+02 -0.93976961144E+00  0.58288293401E+01  0.12682555169E+02  0.51100000000E-03 0.  1.
        -12    1    3    3    0    0 -0.89645952302E+01 -0.28316179297E+01 -0.14163835530E+02  0.16999890137E+02  0.00000000000E+00 0.  1.
</event>
<event>
 7    1  0.6489567E-013  0.5930193E+02  0.7816164E-02  0.1266605E+00
        -11   -1    0    0    0    0  0.00000000000E+00  0.00000000000E+00  0.45593999997E+02  0.45594000000E+02  0.51100000000E-03 0. -1.
         11   -1    0    0    0    0 -0.00000000000E+00 -0.00000000000E+00 -0.45593999997E+02  0.45594000000E+02  0.51100000000E-03 0.  1.
    9900012    2    1    2    0    0  0.66413101127E+01  0.41403924795E+01  0.30910702900E+02  0.59301930884E+02  0.49999976028E+02 0.  0.
        -12    1    1    2    0    0 -0.66413101127E+01 -0.41403924795E+01 -0.30910702900E+02  0.31886069116E+02  0.00000000000E+00 0.  1.
         11    1    3    3    0    0  0.27962658951E+01  0.18180995551E+01  0.17978238563E+02  0.18285011650E+02  0.51100000000E-03 0. -1.
        -11    1    3    3    0    0  0.14409348030E+02 -0.13412671347E+02  0.90709450875E+01  0.21675126489E+02  0.51100000000E-03 0.  1.
        -12    1    3    3    0    0 -0.10564303812E+02  0.15734964271E+02  0.38615192499E+01  0.19341792744E+02  0.00000000000E+00 0.  1.
</event>
<event>
 7    1  0.6489567E-013  0.5930195E+02  0.7816164E-02  0.1266605E+00
        -11   -1    0    0    0    0  0.00000000000E+00  0.00000000000E+00  0.45593999997E+02  0.45594000000E+02  0.51100000000E-03 0. -1.
         11   -1    0    0    0    0 -0.00000000000E+00 -0.00000000000E+00 -0.45593999997E+02  0.45594000000E+02  0.51100000000E-03 0.  1.
    9900012    2    1    2    0    0  0.10417135368E+02 -0.17461538202E+02  0.24562122881E+02  0.59301954368E+02  0.50000018858E+02 0.  0.
        -12    1    1    2    0    0 -0.10417135368E+02  0.17461538202E+02 -0.24562122881E+02  0.31886045632E+02  0.00000000000E+00 0.  1.
         11    1    3    3    0    0  0.84239482238E+01 -0.86571311475E+01  0.94630040099E+01  0.15344616924E+02  0.51100000000E-03 0. -1.
        -11    1    3    3    0    0  0.77181017028E+01  0.13627007240E+02  0.13627963464E+02  0.20760197703E+02  0.51100000000E-03 0.  1.
         12    1    3    3    0    0 -0.57249145590E+01 -0.22431414294E+02  0.14711554073E+01  0.23197139742E+02  0.00000000000E+00 0. -1.
</event>
<event>
 7    1  0.6489567E-013  0.5930195E+02  0.7816164E-02  0.1266605E+00
        -11   -1    0    0    0    0  0.00000000000E+00  0.00000000000E+00  0.45593999997E+02  0.45594000000E+02  0.51100000000E-03 0.  1.
         11   -1    0    0    0    0 -0.00000000000E+00 -0.00000000000E+00 -0.45593999997E+02  0.45594000000E+02  0.51100000000E-03 0. -1.
    9900012    2    1    2    0    0 -0.13103439969E+02  0.14374047614E+02 -0.25266715080E+02  0.59301948586E+02  0.50000008314E+02 0.  0.
        -12    1    1    2    0    0  0.13103439969E+02 -0.14374047614E+02  0.25266715080E+02  0.31886051414E+02  0.00000000000E+00 0.  1.
         11    1    3    3    0    0 -0.21409662090E+02 -0.96054145849E+01 -0.43123811335E+01  0.23858630544E+02  0.51100000000E-03 0. -1.
        -11    1    3    3    0    0  0.65467358381E+01  0.14103578333E+02 -0.45257433984E+01  0.16194228154E+02  0.51100000000E-03 0.  1.
        -12    1    3    3    0    0  0.17594862831E+01  0.98758838655E+01 -0.16428590548E+02  0.19249089888E+02  0.00000000000E+00 0.  1.
</event>
<event>
 7    1  0.6489567E-013  0.5930196E+02  0.7816164E-02  0.1266605E+00
        -11   -1    0    0    0    0  0.00000000000E+00  0.00000000000E+00  0.45593999997E+02  0.45594000000E+02  0.51100000000E-03 0.  1.
         11   -1    0    0    0    0 -0.00000000000E+00 -0.00000000000E+00 -0.45593999997E+02  0.45594000000E+02  0.51100000000E-03 0. -1.
    9900012    2    1    2    0    0 -0.21924054961E+01 -0.41184517669E+01 -0.31542848909E+02  0.59301959103E+02  0.50000027493E+02 0.  0.
        -12    1    1    2    0    0  0.21924054961E+01  0.41184517669E+01  0.31542848909E+02  0.31886040897E+02  0.00000000000E+00 0.  1.
         11    1    3    3    0    0 -0.14253770909E+02 -0.15652916255E+02 -0.63176101327E+01  0.22092894117E+02  0.51100000000E-03 0. -1.
        -11    1    3    3    0    0 -0.13425956828E+01 -0.50694389868E+01 -0.89443200890E+01  0.10368347840E+02  0.51100000000E-03 0.  1.
        -12    1    3    3    0    0  0.13403961095E+02  0.16603903475E+02 -0.16280918687E+02  0.26840717147E+02  0.00000000000E+00 0.  1.
</event>
<event>
 7    1  0.6489567E-013  0.5930194E+02  0.7816164E-02  0.1266605E+00
        -11   -1    0    0    0    0  0.00000000000E+00  0.00000000000E+00  0.45593999997E+02  0.45594000000E+02  0.51100000000E-03 0.  1.
         11   -1    0    0    0    0 -0.00000000000E+00 -0.00000000000E+00 -0.45593999997E+02  0.45594000000E+02  0.51100000000E-03 0. -1.
    9900012    2    1    2    0    0  0.18243968145E+02 -0.26042116972E+02  0.23846806536E+01  0.59301938282E+02  0.49999989521E+02 0.  0.
        -12    1    1    2    0    0 -0.18243968145E+02  0.26042116972E+02 -0.23846806536E+01  0.31886061718E+02  0.00000000000E+00 0.  1.
         11    1    3    3    0    0  0.13480143907E+02 -0.33763764843E+02  0.45464495251E+01  0.36638453839E+02  0.51100000000E-03 0. -1.
        -11    1    3    3    0    0 -0.52193040355E+01 -0.28774280977E+00  0.56274690637E+01  0.76806470342E+01  0.51100000000E-03 0.  1.
        -12    1    3    3    0    0  0.99831282734E+01  0.80093906807E+01 -0.77892379353E+01  0.14982837409E+02  0.00000000000E+00 0.  1.
</event>
<event>
 7    1  0.6489567E-013  0.5930197E+02  0.7816164E-02  0.1266605E+00
        -11   -1    0    0    0    0  0.00000000000E+00  0.00000000000E+00  0.45593999997E+02  0.45594000000E+02  0.51100000000E-03 0. -1.
         11   -1    0    0    0    0 -0.00000000000E+00 -0.00000000000E+00 -0.45593999997E+02  0.45594000000E+02  0.51100000000E-03 0.  1.
    9900012    2    1    2    0    0  0.54142095797E+01  0.29105442715E+02  0.11843929277E+02  0.59301966667E+02  0.50000041288E+02 0.  0.
        -12    1    1    2    0    0 -0.54142095797E+01 -0.29105442715E+02 -0.11843929277E+02  0.31886033333E+02  0.00000000000E+00 0.  1.
         11    1    3    3    0    0 -0.62612253633E+01  0.29110146312E+02  0.11947313289E+02  0.32083357936E+02  0.51100000000E-03 0. -1.
        -11    1    3    3    0    0  0.13625763584E+02  0.96340214285E+01 -0.30253776468E+01  0.16959620052E+02  0.51100000000E-03 0.  1.
         12    1    3    3    0    0 -0.19503286412E+01 -0.96387250254E+01  0.29219936349E+01  0.10258988680E+02  0.00000000000E+00 0. -1.
</event>
<event>
 7    1  0.6489567E-013  0.5930193E+02  0.7816164E-02  0.1266605E+00
        -11   -1    0    0    0    0  0.00000000000E+00  0.00000000000E+00  0.45593999997E+02  0.45594000000E+02  0.51100000000E-03 0.  1.
         11   -1    0    0    0    0 -0.00000000000E+00 -0.00000000000E+00 -0.45593999997E+02  0.45594000000E+02  0.51100000000E-03 0. -1.
    9900012    2    1    2    0    0  0.27362971915E+02 -0.15333748263E+02 -0.57328517083E+01  0.59301926919E+02  0.49999968798E+02 0.  0.
        -12    1    1    2    0    0 -0.27362971915E+02  0.15333748263E+02  0.57328517083E+01  0.31886073081E+02  0.00000000000E+00 0.  1.
         11    1    3    3    0    0  0.10736336628E+02  0.86882641600E+01 -0.18158748675E+02  0.22814359776E+02  0.51100000000E-03 0. -1.
        -11    1    3    3    0    0  0.66497537046E+01 -0.44588892446E+01  0.12119363222E+02  0.14525146567E+02  0.51100000000E-03 0.  1.
        -12    1    3    3    0    0  0.99768815819E+01 -0.19563123178E+02  0.30653374417E+00  0.21962420575E+02  0.00000000000E+00 0.  1.
</event>
<event>
 7    1  0.6489567E-013  0.5930196E+02  0.7816164E-02  0.1266605E+00
        -11   -1    0    0    0    0  0.00000000000E+00  0.00000000000E+00  0.45593999997E+02  0.45594000000E+02  0.51100000000E-03 0.  1.
         11   -1    0    0    0    0 -0.00000000000E+00 -0.00000000000E+00 -0.45593999997E+02  0.45594000000E+02  0.51100000000E-03 0. -1.
    9900012    2    1    2    0    0 -0.10657555310E+02 -0.34094060567E+01 -0.29858193575E+02  0.59301964523E+02  0.50000037379E+02 0.  0.
        -12    1    1    2    0    0  0.10657555310E+02  0.34094060567E+01  0.29858193575E+02  0.31886035477E+02  0.00000000000E+00 0.  1.
         11    1    3    3    0    0  0.45987602729E+01 -0.17343704625E+02 -0.72852036796E+01  0.19365610734E+02  0.51100000000E-03 0. -1.
        -11    1    3    3    0    0  0.65149878864E+01  0.22595287666E+01 -0.68312531173E+00  0.69294442677E+01  0.51100000000E-03 0.  1.
        -12    1    3    3    0    0 -0.21771303469E+02  0.11674769802E+02 -0.21889864584E+02  0.33006909522E+02  0.00000000000E+00 0.  1.
</event>
<event>
 7    1  0.6489567E-013  0.5930200E+02  0.7816164E-02  0.1266605E+00
        -11   -1    0    0    0    0  0.00000000000E+00  0.00000000000E+00  0.45593999997E+02  0.45594000000E+02  0.51100000000E-03 0.  1.
         11   -1    0    0    0    0 -0.00000000000E+00 -0.00000000000E+00 -0.45593999997E+02  0.45594000000E+02  0.51100000000E-03 0. -1.
    9900012    2    1    2    0    0 -0.24492249992E-01  0.32594015957E+01 -0.31718964077E+02  0.59302000239E+02  0.50000102515E+02 0.  0.
        -12    1    1    2    0    0  0.24492249992E-01 -0.32594015957E+01  0.31718964077E+02  0.31885999761E+02  0.00000000000E+00 0.  1.
         11    1    3    3    0    0 -0.15807785691E+02 -0.80362167684E+01 -0.26047323274E+01  0.17923490150E+02  0.51100000000E-03 0. -1.
        -11    1    3    3    0    0 -0.78468222504E+00  0.52942600935E+01  0.19236323537E+01  0.56872909039E+01  0.51100000000E-03 0.  1.
        -12    1    3    3    0    0  0.16567975666E+02  0.60013582706E+01 -0.31037864104E+02  0.35691219185E+02  0.00000000000E+00 0.  1.
</event>
<event>
 7    1  0.6489567E-013  0.5930195E+02  0.7816164E-02  0.1266605E+00
        -11   -1    0    0    0    0  0.00000000000E+00  0.00000000000E+00  0.45593999997E+02  0.45594000000E+02  0.51100000000E-03 0.  1.
         11   -1    0    0    0    0 -0.00000000000E+00 -0.00000000000E+00 -0.45593999997E+02  0.45594000000E+02  0.51100000000E-03 0. -1.
    9900012    2    1    2    0    0 -0.27404979347E+02  0.14170245137E+02 -0.80555275138E+01  0.59301948758E+02  0.50000008628E+02 0.  0.
        -12    1    1    2    0    0  0.27404979347E+02 -0.14170245137E+02  0.80555275138E+01  0.31886051242E+02  0.00000000000E+00 0.  1.
         11    1    3    3    0    0 -0.70961285225E+01  0.20556523653E+02  0.93151835047E+01  0.23657944726E+02  0.51100000000E-03 0. -1.
        -11    1    3    3    0    0 -0.69979253525E+01 -0.10030661554E+02  0.14385664326E+01  0.12314812385E+02  0.51100000000E-03 0.  1.
        -12    1    3    3    0    0 -0.13310925472E+02  0.36443830383E+01 -0.18809277451E+02  0.23329191647E+02  0.00000000000E+00 0.  1.
</event>
<event>
 7    1  0.6489567E-013  0.5930199E+02  0.7816164E-02  0.1266605E+00
        -11   -1    0    0    0    0  0.00000000000E+00  0.00000000000E+00  0.45593999997E+02  0.45594000000E+02  0.51100000000E-03 0.  1.
         11   -1    0    0    0    0 -0.00000000000E+00 -0.00000000000E+00 -0.45593999997E+02  0.45594000000E+02  0.51100000000E-03 0. -1.
    9900012    2    1    2    0    0  0.12325240169E+02  0.18911867143E+01 -0.29346711434E+02  0.59301990460E+02  0.50000084681E+02 0.  0.
        -12    1    1    2    0    0 -0.12325240169E+02 -0.18911867143E+01  0.29346711434E+02  0.31886009540E+02  0.00000000000E+00 0.  1.
         11    1    3    3    0    0 -0.56192291651E+01 -0.15204528676E+02  0.38046751428E+01  0.16650194650E+02  0.51100000000E-03 0.  1.
        -11    1    3    3    0    0  0.73278151607E+01  0.98336391452E+01 -0.87415183412E+01  0.15060261520E+02  0.51100000000E-03 0. -1.
        -12    1    3    3    0    0  0.10616654173E+02  0.72620762455E+01 -0.24409868235E+02  0.27591534290E+02  0.00000000000E+00 0.  1.
</event>
<event>
 7    1  0.6489567E-013  0.5930196E+02  0.7816164E-02  0.1266605E+00
        -11   -1    0    0    0    0  0.00000000000E+00  0.00000000000E+00  0.45593999997E+02  0.45594000000E+02  0.51100000000E-03 0. -1.
         11   -1    0    0    0    0 -0.00000000000E+00 -0.00000000000E+00 -0.45593999997E+02  0.45594000000E+02  0.51100000000E-03 0.  1.
    9900012    2    1    2    0    0 -0.24180760391E+02 -0.31211784218E+01  0.20549174796E+02  0.59301960537E+02  0.50000030110E+02 0.  0.
        -12    1    1    2    0    0  0.24180760391E+02  0.31211784218E+01 -0.20549174796E+02  0.31886039463E+02  0.00000000000E+00 0.  1.
         11    1    3    3    0    0  0.64206769575E+01 -0.83521495960E+01 -0.74566459608E+01  0.12906783670E+02  0.51100000000E-03 0. -1.
        -11    1    3    3    0    0 -0.12970954249E+02  0.97263937191E+00 -0.25886010070E-01  0.13007396043E+02  0.51100000000E-03 0.  1.
         12    1    3    3    0    0 -0.17630483099E+02  0.42583318024E+01  0.28031706767E+02  0.33387780824E+02  0.00000000000E+00 0. -1.
</event>
<event>
 7    1  0.6489567E-013  0.5930195E+02  0.7816164E-02  0.1266605E+00
        -11   -1    0    0    0    0  0.00000000000E+00  0.00000000000E+00  0.45593999997E+02  0.45594000000E+02  0.51100000000E-03 0. -1.
         11   -1    0    0    0    0 -0.00000000000E+00 -0.00000000000E+00 -0.45593999997E+02  0.45594000000E+02  0.51100000000E-03 0.  1.
    9900012    2    1    2    0    0  0.14906800751E+02  0.41373038758E+01  0.27881715125E+02  0.59301952419E+02  0.50000015304E+02 0.  0.
        -12    1    1    2    0    0 -0.14906800751E+02 -0.41373038758E+01 -0.27881715125E+02  0.31886047581E+02  0.00000000000E+00 0.  1.
         11    1    3    3    0    0 -0.35623676607E+01  0.13021095352E+02  0.19109138767E+02  0.23396550434E+02  0.51100000000E-03 0. -1.
        -11    1    3    3    0    0 -0.64199402643E+01  0.74856706300E+00  0.64262904686E+01  0.91144497965E+01  0.51100000000E-03 0.  1.
        -12    1    3    3    0    0  0.24889108676E+02 -0.96323585392E+01  0.23462858894E+01  0.26790952189E+02  0.00000000000E+00 0.  1.
</event>
<event>
 7    1  0.6489567E-013  0.5930196E+02  0.7816164E-02  0.1266605E+00
        -11   -1    0    0    0    0  0.00000000000E+00  0.00000000000E+00  0.45593999997E+02  0.45594000000E+02  0.51100000000E-03 0.  1.
         11   -1    0    0    0    0 -0.00000000000E+00 -0.00000000000E+00 -0.45593999997E+02  0.45594000000E+02  0.51100000000E-03 0. -1.
    9900012    2    1    2    0    0  0.15030666594E+02  0.28024612159E+02  0.23280344966E+01  0.59301959645E+02  0.50000028482E+02 0.  0.
        -12    1    1    2    0    0 -0.15030666594E+02 -0.28024612159E+02 -0.23280344966E+01  0.31886040355E+02  0.00000000000E+00 0.  1.
         11    1    3    3    0    0  0.18295254734E+02  0.18559517769E+02 -0.23800051433E+00  0.26062016232E+02  0.51100000000E-03 0. -1.
        -11    1    3    3    0    0  0.81660963678E+01  0.12220038139E+01 -0.10949313285E+02  0.13713711565E+02  0.51100000000E-03 0.  1.
        -12    1    3    3    0    0 -0.11430684508E+02  0.82430905764E+01  0.13515348296E+02  0.19526231847E+02  0.00000000000E+00 0.  1.
</event>
<event>
 7    1  0.6489567E-013  0.5930194E+02  0.7816164E-02  0.1266605E+00
        -11   -1    0    0    0    0  0.00000000000E+00  0.00000000000E+00  0.45593999997E+02  0.45594000000E+02  0.51100000000E-03 0.  1.
         11   -1    0    0    0    0 -0.00000000000E+00 -0.00000000000E+00 -0.45593999997E+02  0.45594000000E+02  0.51100000000E-03 0. -1.
    9900012    2    1    2    0    0  0.43323565193E+01 -0.90155225322E+01 -0.30276587518E+02  0.59301941741E+02  0.49999995830E+02 0.  0.
        -12    1    1    2    0    0 -0.43323565193E+01  0.90155225322E+01  0.30276587518E+02  0.31886058259E+02  0.00000000000E+00 0.  1.
         11    1    3    3    0    0  0.28201816741E+01  0.13248911759E+02 -0.21336873083E+02  0.25273488890E+02  0.51100000000E-03 0. -1.
        -11    1    3    3    0    0 -0.56018484252E+01  0.20199448041E+01 -0.61657868888E+01  0.85719199139E+01  0.51100000000E-03 0.  1.
        -12    1    3    3    0    0  0.71140232704E+01 -0.24284379095E+02 -0.27739275463E+01  0.25456532937E+02  0.00000000000E+00 0.  1.
</event>
<event>
 7    1  0.6489567E-013  0.5930193E+02  0.7816164E-02  0.1266605E+00
        -11   -1    0    0    0    0  0.00000000000E+00  0.00000000000E+00  0.45593999997E+02  0.45594000000E+02  0.51100000000E-03 0. -1.
         11   -1    0    0    0    0 -0.00000000000E+00 -0.00000000000E+00 -0.45593999997E+02  0.45594000000E+02  0.51100000000E-03 0.  1.
    9900012    2    1    2    0    0 -0.19307001908E+02  0.76536226267E+01  0.24194688693E+02  0.59301933719E+02  0.49999981199E+02 0.  0.
        -12    1    1    2    0    0  0.19307001908E+02 -0.76536226267E+01 -0.24194688693E+02  0.31886066281E+02  0.00000000000E+00 0.  1.
         11    1    3    3    0    0  0.10416036018E+02  0.12886187719E+01 -0.76592171711E+01  0.12992996291E+02  0.51100000000E-03 0.  1.
        -11    1    3    3    0    0 -0.12756826229E+02 -0.18740777386E+01  0.57838743961E+01  0.14131595313E+02  0.51100000000E-03 0. -1.
        -12    1    3    3    0    0 -0.16966211697E+02  0.82390815933E+01  0.26070031467E+02  0.32177342115E+02  0.00000000000E+00 0.  1.
</event>
<event>
 7    1  0.6489567E-013  0.5930194E+02  0.7816164E-02  0.1266605E+00
        -11   -1    0    0    0    0  0.00000000000E+00  0.00000000000E+00  0.45593999997E+02  0.45594000000E+02  0.51100000000E-03 0.  1.
         11   -1    0    0    0    0 -0.00000000000E+00 -0.00000000000E+00 -0.45593999997E+02  0.45594000000E+02  0.51100000000E-03 0. -1.
    9900012    2    1    2    0    0 -0.30602862778E+02 -0.89545872372E+01 -0.35345949508E-01  0.59301935769E+02  0.49999984939E+02 0.  0.
        -12    1    1    2    0    0  0.30602862778E+02  0.89545872372E+01  0.35345949508E-01  0.31886064231E+02  0.00000000000E+00 0.  1.
         11    1    3    3    0    0  0.21605592273E+01 -0.16353865758E+02  0.20182711542E+01  0.16618975904E+02  0.51100000000E-03 0. -1.
        -11    1    3    3    0    0 -0.17907311077E+02 -0.68102925744E+01 -0.87500546760E+01  0.21062177762E+02  0.51100000000E-03 0.  1.
        -12    1    3    3    0    0 -0.14856110928E+02  0.14209571095E+02  0.66964375723E+01  0.21620782103E+02  0.00000000000E+00 0.  1.
</event>
<event>
 7    1  0.6489567E-013  0.5930197E+02  0.7816164E-02  0.1266605E+00
        -11   -1    0    0    0    0  0.00000000000E+00  0.00000000000E+00  0.45593999997E+02  0.45594000000E+02  0.51100000000E-03 0.  1.
         11   -1    0    0    0    0 -0.00000000000E+00 -0.00000000000E+00 -0.45593999997E+02  0.45594000000E+02  0.51100000000E-03 0. -1.
    9900012    2    1    2    0    0 -0.24113292027E+02 -0.19015583345E+02 -0.85834549632E+01  0.59301969180E+02  0.50000045872E+02 0.  0.
        -12    1    1    2    0    0  0.24113292027E+02  0.19015583345E+02  0.85834549632E+01  0.31886030820E+02  0.00000000000E+00 0.  1.
         11    1    3    3    0    0 -0.15473860451E+02  0.14679322216E+02 -0.74991366698E+01  0.22608845814E+02  0.51100000000E-03 0. -1.
        -11    1    3    3    0    0  0.24186990634E+01 -0.46458545601E+01  0.16473225499E+01  0.54906959119E+01  0.51100000000E-03 0.  1.
        -12    1    3    3    0    0 -0.11058130639E+02 -0.29049051001E+02 -0.27316408433E+01  0.31202427454E+02  0.00000000000E+00 0.  1.
</event>
<event>
 7    1  0.6489567E-013  0.5930197E+02  0.7816164E-02  0.1266605E+00
        -11   -1    0    0    0    0  0.00000000000E+00  0.00000000000E+00  0.45593999997E+02  0.45594000000E+02  0.51100000000E-03 0.  1.
         11   -1    0    0    0    0 -0.00000000000E+00 -0.00000000000E+00 -0.45593999997E+02  0.45594000000E+02  0.51100000000E-03 0. -1.
    9900012    2    1    2    0    0 -0.27134878783E+02  0.10303668355E-01 -0.16745659123E+02  0.59301970893E+02  0.50000048995E+02 0.  0.
        -12    1    1    2    0    0  0.27134878783E+02 -0.10303668355E-01  0.16745659123E+02  0.31886029107E+02  0.00000000000E+00 0.  1.
         11    1    3    3    0    0 -0.10300078429E+02 -0.11695225982E+02  0.20493256650E+01  0.15718449744E+02  0.51100000000E-03 0. -1.
        -11    1    3    3    0    0  0.75386054000E+01 -0.55229673885E+01 -0.30046554019E+01  0.98163992633E+01  0.51100000000E-03 0.  1.
         12    1    3    3    0    0 -0.24373405754E+02  0.17228497039E+02 -0.15790329386E+02  0.33767121885E+02  0.00000000000E+00 0. -1.
</event>
<event>
 7    1  0.6489567E-013  0.5930195E+02  0.7816164E-02  0.1266605E+00
        -11   -1    0    0    0    0  0.00000000000E+00  0.00000000000E+00  0.45593999997E+02  0.45594000000E+02  0.51100000000E-03 0.  1.
         11   -1    0    0    0    0 -0.00000000000E+00 -0.00000000000E+00 -0.45593999997E+02  0.45594000000E+02  0.51100000000E-03 0. -1.
    9900012    2    1    2    0    0 -0.47402983049E+01  0.11556407476E+02 -0.29337678010E+02  0.59301947676E+02  0.50000006653E+02 0.  0.
        -12    1    1    2    0    0  0.47402983049E+01 -0.11556407476E+02  0.29337678010E+02  0.31886052324E+02  0.00000000000E+00 0.  1.
         11    1    3    3    0    0  0.48983244727E+01  0.13691435474E+02  0.82911766927E+01  0.16738954543E+02  0.51100000000E-03 0.  1.
        -11    1    3    3    0    0  0.38174574136E+01  0.18901347075E+01 -0.30457884581E+01  0.52366418542E+01  0.51100000000E-03 0. -1.
         12    1    3    3    0    0 -0.13456080191E+02 -0.40251627048E+01 -0.34583066245E+02  0.37326351279E+02  0.00000000000E+00 0. -1.
</event>
<event>
 7    1  0.6489567E-013  0.5930194E+02  0.7816164E-02  0.1266605E+00
        -11   -1    0    0    0    0  0.00000000000E+00  0.00000000000E+00  0.45593999997E+02  0.45594000000E+02  0.51100000000E-03 0. -1.
         11   -1    0    0    0    0 -0.00000000000E+00 -0.00000000000E+00 -0.45593999997E+02  0.45594000000E+02  0.51100000000E-03 0.  1.
    9900012    2    1    2    0    0 -0.23038976174E+02 -0.91040310393E+01  0.20075926222E+02  0.59301943204E+02  0.49999998497E+02 0.  0.
        -12    1    1    2    0    0  0.23038976174E+02  0.91040310393E+01 -0.20075926222E+02  0.31886056796E+02  0.00000000000E+00 0.  1.
         11    1    3    3    0    0 -0.11647456806E+02 -0.12080540988E+01  0.53674103293E+01  0.12881449400E+02  0.51100000000E-03 0. -1.
        -11    1    3    3    0    0 -0.18875398300E+02 -0.21269781507E+02  0.70997421294E+01  0.29310247439E+02  0.51100000000E-03 0.  1.
         12    1    3    3    0    0  0.74838789319E+01  0.13373804567E+02  0.76087737637E+01  0.17110246364E+02  0.00000000000E+00 0. -1.
</event>
<event>
 7    1  0.6489567E-013  0.5930196E+02  0.7816164E-02  0.1266605E+00
        -11   -1    0    0    0    0  0.00000000000E+00  0.00000000000E+00  0.45593999997E+02  0.45594000000E+02  0.51100000000E-03 0. -1.
         11   -1    0    0    0    0 -0.00000000000E+00 -0.00000000000E+00 -0.45593999997E+02  0.45594000000E+02  0.51100000000E-03 0.  1.
    9900012    2    1    2    0    0 -0.18879471309E+01  0.88782450054E+01  0.30566842549E+02  0.59301961643E+02  0.50000032125E+02 0.  0.
        -12    1    1    2    0    0  0.18879471309E+01 -0.88782450054E+01 -0.30566842549E+02  0.31886038357E+02  0.00000000000E+00 0.  1.
         11    1    3    3    0    0 -0.56525408283E-01  0.79893878266E+01  0.11197604943E+02  0.13755721344E+02  0.51100000000E-03 0. -1.
        -11    1    3    3    0    0 -0.15858078254E+02  0.13561287834E+02  0.41429222575E+01  0.21273245608E+02  0.51100000000E-03 0.  1.
        -12    1    3    3    0    0  0.14026656531E+02 -0.12672430656E+02  0.15226315348E+02  0.24272994690E+02  0.00000000000E+00 0.  1.
</event>
<event>
 7    1  0.6489567E-013  0.5930193E+02  0.7816164E-02  0.1266605E+00
        -11   -1    0    0    0    0  0.00000000000E+00  0.00000000000E+00  0.45593999997E+02  0.45594000000E+02  0.51100000000E-03 0.  1.
         11   -1    0    0    0    0 -0.00000000000E+00 -0.00000000000E+00 -0.45593999997E+02  0.45594000000E+02  0.51100000000E-03 0. -1.
    9900012    2    1    2    0    0 -0.26875636511E+02  0.92569302009E+01 -0.14447511206E+02  0.59301934475E+02  0.49999982578E+02 0.  0.
        -12    1    1    2    0    0  0.26875636511E+02 -0.92569302009E+01  0.14447511206E+02  0.31886065525E+02  0.00000000000E+00 0.  1.
         11    1    3    3    0    0 -0.33047086919E+02  0.19925963439E+02 -0.34067406039E+01  0.38739641901E+02  0.51100000000E-03 0. -1.
        -11    1    3    3    0    0 -0.37220121084E+01 -0.22131448744E+01 -0.28830234826E+01  0.52022311591E+01  0.51100000000E-03 0.  1.
        -12    1    3    3    0    0  0.98934625162E+01 -0.84558883642E+01 -0.81577471193E+01  0.15360061414E+02  0.00000000000E+00 0.  1.
</event>
<event>
 7    1  0.6489567E-013  0.5930185E+02  0.7816164E-02  0.1266605E+00
        -11   -1    0    0    0    0  0.00000000000E+00  0.00000000000E+00  0.45593999997E+02  0.45594000000E+02  0.51100000000E-03 0. -1.
         11   -1    0    0    0    0 -0.00000000000E+00 -0.00000000000E+00 -0.45593999997E+02  0.45594000000E+02  0.51100000000E-03 0.  1.
    9900012    2    1    2    0    0 -0.30272130064E+02 -0.98942352121E+01  0.15584477836E+01  0.59301850835E+02  0.49999830039E+02 0.  0.
        -12    1    1    2    0    0  0.30272130064E+02  0.98942352121E+01 -0.15584477836E+01  0.31886149165E+02  0.00000000000E+00 0.  1.
         11    1    3    3    0    0 -0.24672789306E+02  0.48360339894E+01 -0.10528423584E+02  0.27257686261E+02  0.51100000000E-03 0. -1.
        -11    1    3    3    0    0 -0.12532227668E+02 -0.11922887648E+02 -0.60935810603E+00  0.17308474738E+02  0.51100000000E-03 0.  1.
        -12    1    3    3    0    0  0.69328869103E+01 -0.28073815534E+01  0.12696229474E+02  0.14735689836E+02  0.00000000000E+00 0.  1.
</event>
<event>
 7    1  0.6489567E-013  0.5930195E+02  0.7816164E-02  0.1266605E+00
        -11   -1    0    0    0    0  0.00000000000E+00  0.00000000000E+00  0.45593999997E+02  0.45594000000E+02  0.51100000000E-03 0.  1.
         11   -1    0    0    0    0 -0.00000000000E+00 -0.00000000000E+00 -0.45593999997E+02  0.45594000000E+02  0.51100000000E-03 0. -1.
    9900012    2    1    2    0    0 -0.18721818497E+02  0.19644188434E+02  0.16742736955E+02  0.59301954968E+02  0.50000019952E+02 0.  0.
        -12    1    1    2    0    0  0.18721818497E+02 -0.19644188434E+02 -0.16742736955E+02  0.31886045032E+02  0.00000000000E+00 0.  1.
         11    1    3    3    0    0 -0.16202708141E+01  0.59411103147E+01 -0.10573307616E+02  0.12235885889E+02  0.51100000000E-03 0. -1.
        -11    1    3    3    0    0  0.49241760592E+01  0.15373532628E+02  0.98975442157E+01  0.18935532659E+02  0.51100000000E-03 0.  1.
        -12    1    3    3    0    0 -0.22025723742E+02 -0.16704545091E+01  0.17418500355E+02  0.28130536420E+02  0.00000000000E+00 0.  1.
</event>
<event>
 7    1  0.6489567E-013  0.5930194E+02  0.7816164E-02  0.1266605E+00
        -11   -1    0    0    0    0  0.00000000000E+00  0.00000000000E+00  0.45593999997E+02  0.45594000000E+02  0.51100000000E-03 0.  1.
         11   -1    0    0    0    0 -0.00000000000E+00 -0.00000000000E+00 -0.45593999997E+02  0.45594000000E+02  0.51100000000E-03 0. -1.
    9900012    2    1    2    0    0 -0.53157378801E+01 -0.27286876052E+02 -0.15616989907E+02  0.59301936467E+02  0.49999986212E+02 0.  0.
        -12    1    1    2    0    0  0.53157378801E+01  0.27286876052E+02  0.15616989907E+02  0.31886063533E+02  0.00000000000E+00 0.  1.
         11    1    3    3    0    0 -0.34321429692E+01 -0.23721994755E+02 -0.25297746529E+02  0.34849513917E+02  0.51100000000E-03 0. -1.
        -11    1    3    3    0    0  0.44803089349E+01 -0.24188545453E+01 -0.57747144534E+01  0.76987890439E+01  0.51100000000E-03 0.  1.
        -12    1    3    3    0    0 -0.63639038458E+01 -0.11460267511E+01  0.15455471076E+02  0.16753633506E+02  0.00000000000E+00 0.  1.
</event>
<event>
 7    1  0.6489567E-013  0.5930198E+02  0.7816164E-02  0.1266605E+00
        -11   -1    0    0    0    0  0.00000000000E+00  0.00000000000E+00  0.45593999997E+02  0.45594000000E+02  0.51100000000E-03 0.  1.
         11   -1    0    0    0    0 -0.00000000000E+00 -0.00000000000E+00 -0.45593999997E+02  0.45594000000E+02  0.51100000000E-03 0. -1.
    9900012    2    1    2    0    0 -0.35934605192E+01 -0.22842668663E+01 -0.31600435542E+02  0.59301978611E+02  0.50000063071E+02 0.  0.
        -12    1    1    2    0    0  0.35934605192E+01  0.22842668663E+01  0.31600435542E+02  0.31886021389E+02  0.00000000000E+00 0.  1.
         11    1    3    3    0    0 -0.24745300374E+01  0.11452985942E+02 -0.74497641366E+01  0.13884998086E+02  0.51100000000E-03 0. -1.
        -11    1    3    3    0    0 -0.15275064754E+02  0.23701281048E+01 -0.16599492834E+02  0.22682333942E+02  0.51100000000E-03 0.  1.
        -12    1    3    3    0    0  0.14156134272E+02 -0.16107380913E+02 -0.75511785712E+01  0.22734646582E+02  0.00000000000E+00 0.  1.
</event>
<event>
 7    1  0.6489567E-013  0.5930200E+02  0.7816164E-02  0.1266605E+00
        -11   -1    0    0    0    0  0.00000000000E+00  0.00000000000E+00  0.45593999997E+02  0.45594000000E+02  0.51100000000E-03 0. -1.
         11   -1    0    0    0    0 -0.00000000000E+00 -0.00000000000E+00 -0.45593999997E+02  0.45594000000E+02  0.51100000000E-03 0.  1.
    9900012    2    1    2    0    0 -0.16575596810E+01  0.31823189204E+02  0.11200034626E+01  0.59301995500E+02  0.50000093873E+02 0.  0.
        -12    1    1    2    0    0  0.16575596810E+01 -0.31823189204E+02 -0.11200034626E+01  0.31886004500E+02  0.00000000000E+00 0.  1.
         11    1    3    3    0    0  0.87066078764E+01  0.66844364062E+01  0.15336439297E+02  0.18859827182E+02  0.51100000000E-03 0.  1.
        -11    1    3    3    0    0 -0.11747855920E+02  0.50185377663E+00 -0.99434140449E+01  0.15399203196E+02  0.51100000000E-03 0. -1.
        -12    1    3    3    0    0  0.13836883630E+01  0.24636899021E+02 -0.42730217893E+01  0.25042965122E+02  0.00000000000E+00 0.  1.
</event>
<event>
 7    1  0.6489567E-013  0.5930197E+02  0.7816164E-02  0.1266605E+00
        -11   -1    0    0    0    0  0.00000000000E+00  0.00000000000E+00  0.45593999997E+02  0.45594000000E+02  0.51100000000E-03 0.  1.
         11   -1    0    0    0    0 -0.00000000000E+00 -0.00000000000E+00 -0.45593999997E+02  0.45594000000E+02  0.51100000000E-03 0. -1.
    9900012    2    1    2    0    0  0.16215206732E+02  0.26723470852E+02 -0.62962002112E+01  0.59301969189E+02  0.50000045889E+02 0.  0.
        -12    1    1    2    0    0 -0.16215206732E+02 -0.26723470852E+02  0.62962002112E+01  0.31886030811E+02  0.00000000000E+00 0.  1.
         11    1    3    3    0    0  0.13490260079E+02  0.19746331248E+02 -0.66458557356E+01  0.24820800017E+02  0.51100000000E-03 0. -1.
        -11    1    3    3    0    0  0.16123031361E+02 -0.33691010281E+01 -0.41087476314E+01  0.16976006284E+02  0.51100000000E-03 0.  1.
        -12    1    3    3    0    0 -0.13398084707E+02  0.10346240632E+02  0.44584031558E+01  0.17505162888E+02  0.00000000000E+00 0.  1.
</event>
<event>
 7    1  0.6489567E-013  0.5930196E+02  0.7816164E-02  0.1266605E+00
        -11   -1    0    0    0    0  0.00000000000E+00  0.00000000000E+00  0.45593999997E+02  0.45594000000E+02  0.51100000000E-03 0. -1.
         11   -1    0    0    0    0 -0.00000000000E+00 -0.00000000000E+00 -0.45593999997E+02  0.45594000000E+02  0.51100000000E-03 0.  1.
    9900012    2    1    2    0    0  0.69811528072E+01 -0.30821804929E+02 -0.42425935486E+01  0.59301956758E+02  0.50000023218E+02 0.  0.
        -12    1    1    2    0    0 -0.69811528072E+01  0.30821804929E+02  0.42425935486E+01  0.31886043242E+02  0.00000000000E+00 0.  1.
         11    1    3    3    0    0  0.11306491014E+01  0.70081709684E+00 -0.95375200112E+01  0.96298390547E+01  0.51100000000E-03 0. -1.
        -11    1    3    3    0    0  0.51238743865E+01 -0.35114017397E+02 -0.75795820895E+01  0.36286338633E+02  0.51100000000E-03 0.  1.
         12    1    3    3    0    0  0.72662931929E+00  0.35913953709E+01  0.12874508552E+02  0.13385779071E+02  0.00000000000E+00 0. -1.
</event>
<event>
 7    1  0.6489567E-013  0.5930186E+02  0.7816164E-02  0.1266605E+00
        -11   -1    0    0    0    0  0.00000000000E+00  0.00000000000E+00  0.45593999997E+02  0.45594000000E+02  0.51100000000E-03 0. -1.
         11   -1    0    0    0    0 -0.00000000000E+00 -0.00000000000E+00 -0.45593999997E+02  0.45594000000E+02  0.51100000000E-03 0.  1.
    9900012    2    1    2    0    0  0.24811545057E+02 -0.13214774194E+02  0.15049344635E+02  0.59301861961E+02  0.49999850329E+02 0.  0.
        -12    1    1    2    0    0 -0.24811545057E+02  0.13214774194E+02 -0.15049344635E+02  0.31886138039E+02  0.00000000000E+00 0.  1.
         11    1    3    3    0    0  0.42001656201E+00  0.82705266753E+00  0.30502017879E+01  0.31881281710E+01  0.51100000000E-03 0. -1.
        -11    1    3    3    0    0 -0.63358832764E+01  0.20412141394E+01 -0.12148926096E+02  0.13853027741E+02  0.51100000000E-03 0.  1.
         12    1    3    3    0    0  0.30727411772E+02 -0.16083041001E+02  0.24148068943E+02  0.42260706048E+02  0.00000000000E+00 0. -1.
</event>
<event>
 7    1  0.6489567E-013  0.5930201E+02  0.7816164E-02  0.1266605E+00
        -11   -1    0    0    0    0  0.00000000000E+00  0.00000000000E+00  0.45593999997E+02  0.45594000000E+02  0.51100000000E-03 0. -1.
         11   -1    0    0    0    0 -0.00000000000E+00 -0.00000000000E+00 -0.45593999997E+02  0.45594000000E+02  0.51100000000E-03 0.  1.
    9900012    2    1    2    0    0  0.15626554415E+02 -0.18831996806E+02  0.20442187190E+02  0.59302010542E+02  0.50000121306E+02 0.  0.
        -12    1    1    2    0    0 -0.15626554415E+02  0.18831996806E+02 -0.20442187190E+02  0.31885989458E+02  0.00000000000E+00 0.  1.
         11    1    3    3    0    0 -0.42125799052E+01 -0.30496283878E+01 -0.34680313183E+01  0.62508642800E+01  0.51100000000E-03 0. -1.
        -11    1    3    3    0    0 -0.88842944251E+01  0.95455533171E-01  0.17478448964E+02  0.19607038982E+02  0.51100000000E-03 0.  1.
         12    1    3    3    0    0  0.28723428745E+02 -0.15877823952E+02  0.64317695444E+01  0.33444107281E+02  0.00000000000E+00 0. -1.
</event>
<event>
 7    1  0.6489567E-013  0.5930195E+02  0.7816164E-02  0.1266605E+00
        -11   -1    0    0    0    0  0.00000000000E+00  0.00000000000E+00  0.45593999997E+02  0.45594000000E+02  0.51100000000E-03 0. -1.
         11   -1    0    0    0    0 -0.00000000000E+00 -0.00000000000E+00 -0.45593999997E+02  0.45594000000E+02  0.51100000000E-03 0.  1.
    9900012    2    1    2    0    0 -0.24987142559E+02 -0.19305882853E+02  0.44323757815E+01  0.59301947233E+02  0.50000005846E+02 0.  0.
        -12    1    1    2    0    0  0.24987142559E+02  0.19305882853E+02 -0.44323757815E+01  0.31886052767E+02  0.00000000000E+00 0.  1.
         11    1    3    3    0    0 -0.13506011478E+02 -0.24197027676E+02 -0.78631443565E+01  0.28805165055E+02  0.51100000000E-03 0. -1.
        -11    1    3    3    0    0  0.62299619690E+01 -0.43512302659E+01  0.55540343203E+01  0.94123816568E+01  0.51100000000E-03 0.  1.
        -12    1    3    3    0    0 -0.17711093050E+02  0.92423750895E+01  0.67414858177E+01  0.21084400521E+02  0.00000000000E+00 0.  1.
</event>
<event>
 7    1  0.6489567E-013  0.5930192E+02  0.7816164E-02  0.1266605E+00
        -11   -1    0    0    0    0  0.00000000000E+00  0.00000000000E+00  0.45593999997E+02  0.45594000000E+02  0.51100000000E-03 0.  1.
         11   -1    0    0    0    0 -0.00000000000E+00 -0.00000000000E+00 -0.45593999997E+02  0.45594000000E+02  0.51100000000E-03 0. -1.
    9900012    2    1    2    0    0  0.95441391014E+01  0.30052466803E+02 -0.47413741416E+01  0.59301921833E+02  0.49999959522E+02 0.  0.
        -12    1    1    2    0    0 -0.95441391014E+01 -0.30052466803E+02  0.47413741416E+01  0.31886078167E+02  0.00000000000E+00 0.  1.
         11    1    3    3    0    0 -0.96910111398E+01  0.92314146074E+01 -0.82571485559E+01  0.15726258776E+02  0.51100000000E-03 0. -1.
        -11    1    3    3    0    0 -0.63833482688E+01  0.16096510314E+02  0.25905574838E+01  0.17508734041E+02  0.51100000000E-03 0.  1.
         12    1    3    3    0    0  0.25618498510E+02  0.47245418819E+01  0.92521693057E+00  0.26066929015E+02  0.00000000000E+00 0. -1.
</event>
<event>
 7    1  0.6489567E-013  0.5930194E+02  0.7816164E-02  0.1266605E+00
        -11   -1    0    0    0    0  0.00000000000E+00  0.00000000000E+00  0.45593999997E+02  0.45594000000E+02  0.51100000000E-03 0.  1.
         11   -1    0    0    0    0 -0.00000000000E+00 -0.00000000000E+00 -0.45593999997E+02  0.45594000000E+02  0.51100000000E-03 0. -1.
    9900012    2    1    2    0    0 -0.14841038719E+02 -0.65663864893E+01 -0.27447170844E+02  0.59301936444E+02  0.49999986168E+02 0.  0.
        -12    1    1    2    0    0  0.14841038719E+02  0.65663864893E+01  0.27447170844E+02  0.31886063556E+02  0.00000000000E+00 0.  1.
         11    1    3    3    0    0 -0.60950506900E+01 -0.16196418943E+02 -0.15319072794E+02  0.23111633889E+02  0.51100000000E-03 0. -1.
        -11    1    3    3    0    0 -0.18740595614E+02 -0.19006554629E+01 -0.65317671637E+01  0.19937060909E+02  0.51100000000E-03 0.  1.
         12    1    3    3    0    0  0.99946075850E+01  0.11530687916E+02 -0.55963308860E+01  0.16253241645E+02  0.00000000000E+00 0. -1.
</event>
<event>
 7    1  0.6489567E-013  0.5930202E+02  0.7816164E-02  0.1266604E+00
        -11   -1    0    0    0    0  0.00000000000E+00  0.00000000000E+00  0.45593999997E+02  0.45594000000E+02  0.51100000000E-03 0.  1.
         11   -1    0    0    0    0 -0.00000000000E+00 -0.00000000000E+00 -0.45593999997E+02  0.45594000000E+02  0.51100000000E-03 0. -1.
    9900012    2    1    2    0    0  0.10829445593E+02  0.67885919991E+00 -0.29982957275E+02  0.59302023951E+02  0.50000145760E+02 0.  0.
        -12    1    1    2    0    0 -0.10829445593E+02 -0.67885919991E+00  0.29982957275E+02  0.31885976049E+02  0.00000000000E+00 0.  1.
         11    1    3    3    0    0  0.22393396179E+02  0.75018949312E+01 -0.16177751512E+02  0.28626251313E+02  0.51100000000E-03 0. -1.
        -11    1    3    3    0    0  0.15149290236E+01 -0.57153483930E+01  0.49996127206E+01  0.77431482497E+01  0.51100000000E-03 0.  1.
         12    1    3    3    0    0 -0.13078879610E+02 -0.11076873384E+01 -0.18804818484E+02  0.22932624388E+02  0.00000000000E+00 0. -1.
</event>
<event>
 7    1  0.6489567E-013  0.5930195E+02  0.7816164E-02  0.1266605E+00
        -11   -1    0    0    0    0  0.00000000000E+00  0.00000000000E+00  0.45593999997E+02  0.45594000000E+02  0.51100000000E-03 0. -1.
         11   -1    0    0    0    0 -0.00000000000E+00 -0.00000000000E+00 -0.45593999997E+02  0.45594000000E+02  0.51100000000E-03 0.  1.
    9900012    2    1    2    0    0 -0.13382611135E+02 -0.94310209458E+01  0.27362054533E+02  0.59301945601E+02  0.50000002869E+02 0.  0.
        -12    1    1    2    0    0  0.13382611135E+02  0.94310209458E+01 -0.27362054533E+02  0.31886054399E+02  0.00000000000E+00 0.  1.
         11    1    3    3    0    0  0.10460584549E+02  0.98321413251E+01  0.43129644791E+01  0.14989879753E+02  0.51100000000E-03 0. -1.
        -11    1    3    3    0    0 -0.22735565212E+01  0.10613348251E+01 -0.36455124224E+01  0.44255227883E+01  0.51100000000E-03 0.  1.
         12    1    3    3    0    0 -0.21569639163E+02 -0.20324497096E+02  0.26694602477E+02  0.39886543059E+02  0.00000000000E+00 0. -1.
</event>
<event>
 7    1  0.6489567E-013  0.5930191E+02  0.7816164E-02  0.1266605E+00
        -11   -1    0    0    0    0  0.00000000000E+00  0.00000000000E+00  0.45593999997E+02  0.45594000000E+02  0.51100000000E-03 0.  1.
         11   -1    0    0    0    0 -0.00000000000E+00 -0.00000000000E+00 -0.45593999997E+02  0.45594000000E+02  0.51100000000E-03 0. -1.
    9900012    2    1    2    0    0 -0.52661791949E+00  0.31820491193E+02  0.19753186267E+01  0.59301907893E+02  0.49999934099E+02 0.  0.
        -12    1    1    2    0    0  0.52661791949E+00 -0.31820491193E+02 -0.19753186267E+01  0.31886092107E+02  0.00000000000E+00 0.  1.
         11    1    3    3    0    0 -0.45565948071E+01  0.35309317228E+02  0.36390168294E+00  0.35603972588E+02  0.51100000000E-03 0. -1.
        -11    1    3    3    0    0 -0.71508193547E-01  0.83100326855E+01  0.62234043580E+01  0.10382317599E+02  0.51100000000E-03 0.  1.
         12    1    3    3    0    0  0.41014850812E+01 -0.11798858721E+02 -0.46119874142E+01  0.13315617706E+02  0.00000000000E+00 0. -1.
</event>
<event>
 7    1  0.6489567E-013  0.5930195E+02  0.7816164E-02  0.1266605E+00
        -11   -1    0    0    0    0  0.00000000000E+00  0.00000000000E+00  0.45593999997E+02  0.45594000000E+02  0.51100000000E-03 0. -1.
         11   -1    0    0    0    0 -0.00000000000E+00 -0.00000000000E+00 -0.45593999997E+02  0.45594000000E+02  0.51100000000E-03 0.  1.
    9900012    2    1    2    0    0  0.27468059409E+02 -0.11452206809E+02  0.11448704361E+02  0.59301950385E+02  0.50000011595E+02 0.  0.
        -12    1    1    2    0    0 -0.27468059409E+02  0.11452206809E+02 -0.11448704361E+02  0.31886049615E+02  0.00000000000E+00 0.  1.
         11    1    3    3    0    0 -0.13662455455E+02  0.16353612852E+01  0.35087307321E+01  0.14200291800E+02  0.51100000000E-03 0. -1.
        -11    1    3    3    0    0  0.23390286465E+01  0.16747541082E+01  0.22815605810E+00  0.28858121526E+01  0.51100000000E-03 0.  1.
        -12    1    3    3    0    0  0.38791486217E+02 -0.14762322202E+02  0.77118175711E+01  0.42215846433E+02  0.00000000000E+00 0.  1.
</event>
<event>
 7    1  0.6489567E-013  0.5930194E+02  0.7816164E-02  0.1266605E+00
        -11   -1    0    0    0    0  0.00000000000E+00  0.00000000000E+00  0.45593999997E+02  0.45594000000E+02  0.51100000000E-03 0. -1.
         11   -1    0    0    0    0 -0.00000000000E+00 -0.00000000000E+00 -0.45593999997E+02  0.45594000000E+02  0.51100000000E-03 0.  1.
    9900012    2    1    2    0    0 -0.13011486692E+02  0.14692736255E+02  0.25130567303E+02  0.59301941956E+02  0.49999996221E+02 0.  0.
        -12    1    1    2    0    0  0.13011486692E+02 -0.14692736255E+02 -0.25130567303E+02  0.31886058044E+02  0.00000000000E+00 0.  1.
         11    1    3    3    0    0  0.35594346162E+01  0.18991052685E+02  0.32533027621E+02  0.37838175740E+02  0.51100000000E-03 0. -1.
        -11    1    3    3    0    0 -0.39722881240E+01 -0.25260563444E+01 -0.73651668664E+01  0.87410363702E+01  0.51100000000E-03 0.  1.
        -12    1    3    3    0    0 -0.12598633184E+02 -0.17722600851E+01 -0.37293451603E-01  0.12722729846E+02  0.00000000000E+00 0.  1.
</event>
<event>
 7    1  0.6489567E-013  0.5930194E+02  0.7816164E-02  0.1266605E+00
        -11   -1    0    0    0    0  0.00000000000E+00  0.00000000000E+00  0.45593999997E+02  0.45594000000E+02  0.51100000000E-03 0. -1.
         11   -1    0    0    0    0 -0.00000000000E+00 -0.00000000000E+00 -0.45593999997E+02  0.45594000000E+02  0.51100000000E-03 0.  1.
    9900012    2    1    2    0    0  0.24722360502E+02  0.13865667798E+02  0.14603727716E+02  0.59301941676E+02  0.49999995710E+02 0.  0.
        -12    1    1    2    0    0 -0.24722360502E+02 -0.13865667798E+02 -0.14603727716E+02  0.31886058324E+02  0.00000000000E+00 0.  1.
         11    1    3    3    0    0  0.18392795693E+02 -0.62783678534E+01 -0.48118605748E+01  0.20021659241E+02  0.51100000000E-03 0. -1.
        -11    1    3    3    0    0 -0.70460624260E+01 -0.40310345724E+00 -0.13082257228E+01  0.71778090606E+01  0.51100000000E-03 0.  1.
        -12    1    3    3    0    0  0.13375627235E+02  0.20547139109E+02  0.20723814013E+02  0.32102473374E+02  0.00000000000E+00 0.  1.
</event>
<event>
 7    1  0.6489567E-013  0.5930198E+02  0.7816164E-02  0.1266605E+00
        -11   -1    0    0    0    0  0.00000000000E+00  0.00000000000E+00  0.45593999997E+02  0.45594000000E+02  0.51100000000E-03 0. -1.
         11   -1    0    0    0    0 -0.00000000000E+00 -0.00000000000E+00 -0.45593999997E+02  0.45594000000E+02  0.51100000000E-03 0.  1.
    9900012    2    1    2    0    0  0.66549319173E+01  0.15892136455E+02  0.26830392713E+02  0.59301982797E+02  0.50000070705E+02 0.  0.
        -12    1    1    2    0    0 -0.66549319173E+01 -0.15892136455E+02 -0.26830392713E+02  0.31886017203E+02  0.00000000000E+00 0.  1.
         11    1    3    3    0    0  0.63045887998E+01  0.16511022975E+00  0.19991201583E+02  0.20962424533E+02  0.51100000000E-03 0. -1.
        -11    1    3    3    0    0 -0.80238124989E+01 -0.23044807419E+01  0.14744927637E+02  0.16944175689E+02  0.51100000000E-03 0.  1.
        -12    1    3    3    0    0  0.83741556164E+01  0.18031506967E+02 -0.79057365064E+01  0.21395382575E+02  0.00000000000E+00 0.  1.
</event>
<event>
 7    1  0.6489567E-013  0.5930195E+02  0.7816164E-02  0.1266605E+00
        -11   -1    0    0    0    0  0.00000000000E+00  0.00000000000E+00  0.45593999997E+02  0.45594000000E+02  0.51100000000E-03 0.  1.
         11   -1    0    0    0    0 -0.00000000000E+00 -0.00000000000E+00 -0.45593999997E+02  0.45594000000E+02  0.51100000000E-03 0. -1.
    9900012    2    1    2    0    0  0.23261684757E+02 -0.20789153694E+02  0.65897730961E+01  0.59301952918E+02  0.50000016213E+02 0.  0.
        -12    1    1    2    0    0 -0.23261684757E+02  0.20789153694E+02 -0.65897730961E+01  0.31886047082E+02  0.00000000000E+00 0.  1.
         11    1    3    3    0    0 -0.21176904756E+01  0.41263500210E+01  0.65173156696E+01  0.79991737851E+01  0.51100000000E-03 0. -1.
        -11    1    3    3    0    0 -0.18578117238E+01 -0.11182329933E+02  0.13794835962E+02  0.17854788339E+02  0.51100000000E-03 0.  1.
         12    1    3    3    0    0  0.27237186957E+02 -0.13733173782E+02 -0.13722378536E+02  0.33447990794E+02  0.00000000000E+00 0. -1.
</event>
<event>
 7    1  0.6489567E-013  0.5930183E+02  0.7816164E-02  0.1266605E+00
        -11   -1    0    0    0    0  0.00000000000E+00  0.00000000000E+00  0.45593999997E+02  0.45594000000E+02  0.51100000000E-03 0.  1.
         11   -1    0    0    0    0 -0.00000000000E+00 -0.00000000000E+00 -0.45593999997E+02  0.45594000000E+02  0.51100000000E-03 0. -1.
    9900012    2    1    2    0    0  0.25689241065E+02 -0.45544219291E+01 -0.18331603613E+02  0.59301834400E+02  0.49999800065E+02 0.  0.
        -12    1    1    2    0    0 -0.25689241065E+02  0.45544219291E+01  0.18331603613E+02  0.31886165600E+02  0.00000000000E+00 0.  1.
         11    1    3    3    0    0 -0.23165114863E+01  0.90965349293E+01  0.24277695412E+00  0.93900007506E+01  0.51100000000E-03 0. -1.
        -11    1    3    3    0    0 -0.33812096685E+01  0.41238344550E+01 -0.12156533967E+02  0.13274784661E+02  0.51100000000E-03 0.  1.
        -12    1    3    3    0    0  0.31386962220E+02 -0.17774791313E+02 -0.64178466003E+01  0.36637048989E+02  0.00000000000E+00 0.  1.
</event>
<event>
 7    1  0.6489567E-013  0.5930194E+02  0.7816164E-02  0.1266605E+00
        -11   -1    0    0    0    0  0.00000000000E+00  0.00000000000E+00  0.45593999997E+02  0.45594000000E+02  0.51100000000E-03 0. -1.
         11   -1    0    0    0    0 -0.00000000000E+00 -0.00000000000E+00 -0.45593999997E+02  0.45594000000E+02  0.51100000000E-03 0.  1.
    9900012    2    1    2    0    0 -0.10400157389E+02 -0.18185071720E+02  0.24038731110E+02  0.59301941910E+02  0.49999996138E+02 0.  0.
        -12    1    1    2    0    0  0.10400157389E+02  0.18185071720E+02 -0.24038731110E+02  0.31886058090E+02  0.00000000000E+00 0.  1.
         11    1    3    3    0    0 -0.14047844958E+02 -0.13052536164E+02  0.27612889453E+01  0.19373573888E+02  0.51100000000E-03 0. -1.
        -11    1    3    3    0    0 -0.65398775442E+01 -0.12518242011E+02  0.23238018314E+02  0.27193416055E+02  0.51100000000E-03 0.  1.
        -12    1    3    3    0    0  0.10187565113E+02  0.73857064548E+01 -0.19605761493E+01  0.12734951967E+02  0.00000000000E+00 0.  1.
</event>
<event>
 7    1  0.6489567E-013  0.5930195E+02  0.7816164E-02  0.1266605E+00
        -11   -1    0    0    0    0  0.00000000000E+00  0.00000000000E+00  0.45593999997E+02  0.45594000000E+02  0.51100000000E-03 0. -1.
         11   -1    0    0    0    0 -0.00000000000E+00 -0.00000000000E+00 -0.45593999997E+02  0.45594000000E+02  0.51100000000E-03 0.  1.
    9900012    2    1    2    0    0  0.24172665576E+02 -0.36617894030E+01  0.20469343723E+02  0.59301945131E+02  0.50000002012E+02 0.  0.
        -12    1    1    2    0    0 -0.24172665576E+02  0.36617894030E+01 -0.20469343723E+02  0.31886054869E+02  0.00000000000E+00 0.  1.
         11    1    3    3    0    0  0.54600895661E+01 -0.32335201852E+01  0.84075793750E+01  0.10533547459E+02  0.51100000000E-03 0. -1.
        -11    1    3    3    0    0  0.88786207523E+01  0.17350592503E+02  0.19078205314E+02  0.27273629845E+02  0.51100000000E-03 0.  1.
         12    1    3    3    0    0  0.98339552573E+01 -0.17778861721E+02 -0.70164409659E+01  0.21494767827E+02  0.00000000000E+00 0. -1.
</event>
<event>
 7    1  0.6489567E-013  0.5930195E+02  0.7816164E-02  0.1266605E+00
        -11   -1    0    0    0    0  0.00000000000E+00  0.00000000000E+00  0.45593999997E+02  0.45594000000E+02  0.51100000000E-03 0. -1.
         11   -1    0    0    0    0 -0.00000000000E+00 -0.00000000000E+00 -0.45593999997E+02  0.45594000000E+02  0.51100000000E-03 0.  1.
    9900012    2    1    2    0    0 -0.92628555759E+01  0.29847847529E+01  0.30364625081E+02  0.59301954623E+02  0.50000019324E+02 0.  0.
        -12    1    1    2    0    0  0.92628555759E+01 -0.29847847529E+01 -0.30364625081E+02  0.31886045377E+02  0.00000000000E+00 0.  1.
         11    1    3    3    0    0  0.70822772154E+01  0.77664088673E+01 -0.40269761803E+01  0.11255767174E+02  0.51100000000E-03 0.  1.
        -11    1    3    3    0    0 -0.14172113698E+02 -0.15795489630E+02  0.27982511448E+02  0.35119328674E+02  0.51100000000E-03 0. -1.
         12    1    3    3    0    0 -0.21730190933E+01  0.11013865516E+02  0.64090898139E+01  0.12926858776E+02  0.00000000000E+00 0. -1.
</event>
<event>
 7    1  0.6489567E-013  0.5930197E+02  0.7816164E-02  0.1266605E+00
        -11   -1    0    0    0    0  0.00000000000E+00  0.00000000000E+00  0.45593999997E+02  0.45594000000E+02  0.51100000000E-03 0.  1.
         11   -1    0    0    0    0 -0.00000000000E+00 -0.00000000000E+00 -0.45593999997E+02  0.45594000000E+02  0.51100000000E-03 0. -1.
    9900012    2    1    2    0    0 -0.31661846987E+02 -0.31633905487E+01 -0.20589746433E+01  0.59301969030E+02  0.50000045599E+02 0.  0.
        -12    1    1    2    0    0  0.31661846987E+02  0.31633905487E+01  0.20589746433E+01  0.31886030970E+02  0.00000000000E+00 0.  1.
         11    1    3    3    0    0 -0.19705656851E+02 -0.13070240331E+02 -0.75841172047E+01  0.24832698771E+02  0.51100000000E-03 0. -1.
        -11    1    3    3    0    0 -0.33892371695E+01  0.56195973438E+01 -0.12465267552E+02  0.14087217550E+02  0.51100000000E-03 0.  1.
        -12    1    3    3    0    0 -0.85669529671E+01  0.42872524389E+01  0.17990410113E+02  0.20382052709E+02  0.00000000000E+00 0.  1.
</event>
<event>
 7    1  0.6489567E-013  0.5930194E+02  0.7816164E-02  0.1266605E+00
        -11   -1    0    0    0    0  0.00000000000E+00  0.00000000000E+00  0.45593999997E+02  0.45594000000E+02  0.51100000000E-03 0. -1.
         11   -1    0    0    0    0 -0.00000000000E+00 -0.00000000000E+00 -0.45593999997E+02  0.45594000000E+02  0.51100000000E-03 0.  1.
    9900012    2    1    2    0    0  0.20340160809E+02  0.24153833721E+02 -0.44261498859E+01  0.59301943047E+02  0.49999998212E+02 0.  0.
        -12    1    1    2    0    0 -0.20340160809E+02 -0.24153833721E+02  0.44261498859E+01  0.31886056953E+02  0.00000000000E+00 0.  1.
         11    1    3    3    0    0  0.21268590011E+02  0.20755021157E+02 -0.11746647395E+02  0.31954773503E+02  0.51100000000E-03 0. -1.
        -11    1    3    3    0    0  0.55957333586E+01  0.13222035100E+02  0.23428896516E+01  0.14547287588E+02  0.51100000000E-03 0.  1.
        -12    1    3    3    0    0 -0.65241625610E+01 -0.98232225358E+01  0.49776078577E+01  0.12799881956E+02  0.00000000000E+00 0.  1.
</event>
<event>
 7    1  0.6489567E-013  0.5930193E+02  0.7816164E-02  0.1266605E+00
        -11   -1    0    0    0    0  0.00000000000E+00  0.00000000000E+00  0.45593999997E+02  0.45594000000E+02  0.51100000000E-03 0.  1.
         11   -1    0    0    0    0 -0.00000000000E+00 -0.00000000000E+00 -0.45593999997E+02  0.45594000000E+02  0.51100000000E-03 0. -1.
    9900012    2    1    2    0    0 -0.29378920937E+02  0.12072753195E+02  0.28015735938E+01  0.59301934396E+02  0.49999982434E+02 0.  0.
        -12    1    1    2    0    0  0.29378920937E+02 -0.12072753195E+02 -0.28015735938E+01  0.31886065604E+02  0.00000000000E+00 0.  1.
         11    1    3    3    0    0 -0.12167720984E+02  0.26641218568E+02 -0.41812163245E+01  0.29585309377E+02  0.51100000000E-03 0.  1.
        -11    1    3    3    0    0  0.20039267918E+01 -0.23945953573E+01  0.62166539923E+01  0.69567662483E+01  0.51100000000E-03 0. -1.
        -12    1    3    3    0    0 -0.19215126745E+02 -0.12173870016E+02  0.76613592592E+00  0.22759858770E+02  0.00000000000E+00 0.  1.
</event>
<event>
 7    1  0.6489567E-013  0.5930195E+02  0.7816164E-02  0.1266605E+00
        -11   -1    0    0    0    0  0.00000000000E+00  0.00000000000E+00  0.45593999997E+02  0.45594000000E+02  0.51100000000E-03 0.  1.
         11   -1    0    0    0    0 -0.00000000000E+00 -0.00000000000E+00 -0.45593999997E+02  0.45594000000E+02  0.51100000000E-03 0. -1.
    9900012    2    1    2    0    0  0.37065528997E+01 -0.22658762392E+02 -0.22126046974E+02  0.59301952860E+02  0.50000016108E+02 0.  0.
        -12    1    1    2    0    0 -0.37065528997E+01  0.22658762392E+02  0.22126046974E+02  0.31886047140E+02  0.00000000000E+00 0.  1.
         11    1    3    3    0    0 -0.93428474627E+01 -0.15119946252E+02 -0.25912783283E+02  0.31422506442E+02  0.51100000000E-03 0. -1.
        -11    1    3    3    0    0 -0.62857252374E+01 -0.50325389089E+01  0.19503123092E+00  0.80544911119E+01  0.51100000000E-03 0.  1.
        -12    1    3    3    0    0  0.19335125600E+02 -0.25062772311E+01  0.35917050780E+01  0.19824955306E+02  0.00000000000E+00 0.  1.
</event>
<event>
 7    1  0.6489567E-013  0.5930197E+02  0.7816164E-02  0.1266605E+00
        -11   -1    0    0    0    0  0.00000000000E+00  0.00000000000E+00  0.45593999997E+02  0.45594000000E+02  0.51100000000E-03 0.  1.
         11   -1    0    0    0    0 -0.00000000000E+00 -0.00000000000E+00 -0.45593999997E+02  0.45594000000E+02  0.51100000000E-03 0. -1.
    9900012    2    1    2    0    0 -0.51049749759E+01 -0.30889612385E+02 -0.60407041938E+01  0.59301968105E+02  0.50000043912E+02 0.  0.
        -12    1    1    2    0    0  0.51049749759E+01  0.30889612385E+02  0.60407041938E+01  0.31886031895E+02  0.00000000000E+00 0.  1.
         11    1    3    3    0    0  0.96074531487E+01 -0.46817473981E+01  0.36471223084E-01  0.10687527549E+02  0.51100000000E-03 0. -1.
        -11    1    3    3    0    0 -0.99566412749E+01 -0.26618007393E+02  0.11307637031E+02  0.30586200786E+02  0.51100000000E-03 0.  1.
         12    1    3    3    0    0 -0.47557868498E+01  0.41014240592E+00 -0.17384812448E+02  0.18028239770E+02  0.00000000000E+00 0. -1.
</event>
<event>
 7    1  0.6489567E-013  0.5930196E+02  0.7816164E-02  0.1266605E+00
        -11   -1    0    0    0    0  0.00000000000E+00  0.00000000000E+00  0.45593999997E+02  0.45594000000E+02  0.51100000000E-03 0. -1.
         11   -1    0    0    0    0 -0.00000000000E+00 -0.00000000000E+00 -0.45593999997E+02  0.45594000000E+02  0.51100000000E-03 0.  1.
    9900012    2    1    2    0    0  0.28166900781E+02  0.14052831882E+02 -0.50855857829E+01  0.59301959696E+02  0.50000028575E+02 0.  0.
        -12    1    1    2    0    0 -0.28166900781E+02 -0.14052831882E+02  0.50855857829E+01  0.31886040304E+02  0.00000000000E+00 0.  1.
         11    1    3    3    0    0  0.86972239815E+01  0.10026128868E+02 -0.99953995757E+01  0.16615443961E+02  0.51100000000E-03 0. -1.
        -11    1    3    3    0    0  0.54563649407E+01 -0.11630294607E+02 -0.10530686921E+02  0.16611172093E+02  0.51100000000E-03 0.  1.
         12    1    3    3    0    0  0.14013311859E+02  0.15656997621E+02  0.15440500714E+02  0.26075343642E+02  0.00000000000E+00 0. -1.
</event>
<event>
 7    1  0.6489567E-013  0.5930191E+02  0.7816164E-02  0.1266605E+00
        -11   -1    0    0    0    0  0.00000000000E+00  0.00000000000E+00  0.45593999997E+02  0.45594000000E+02  0.51100000000E-03 0.  1.
         11   -1    0    0    0    0 -0.00000000000E+00 -0.00000000000E+00 -0.45593999997E+02  0.45594000000E+02  0.51100000000E-03 0. -1.
    9900012    2    1    2    0    0  0.30861898016E+02  0.75617745012E+01 -0.26619171615E+01  0.59301906076E+02  0.49999930785E+02 0.  0.
        -12    1    1    2    0    0 -0.30861898016E+02 -0.75617745012E+01  0.26619171615E+01  0.31886093924E+02  0.00000000000E+00 0.  1.
         11    1    3    3    0    0 -0.33254591825E+01  0.29336104699E+01 -0.27370501161E+01  0.52111604046E+01  0.51100000000E-03 0. -1.
        -11    1    3    3    0    0  0.57578576201E+01  0.29220229709E+01  0.18885629172E+02  0.19958911095E+02  0.51100000000E-03 0.  1.
         12    1    3    3    0    0  0.28429499578E+02  0.17061410604E+01 -0.18810496218E+02  0.34131834576E+02  0.00000000000E+00 0. -1.
</event>
<event>
 7    1  0.6489567E-013  0.5930196E+02  0.7816164E-02  0.1266605E+00
        -11   -1    0    0    0    0  0.00000000000E+00  0.00000000000E+00  0.45593999997E+02  0.45594000000E+02  0.51100000000E-03 0.  1.
         11   -1    0    0    0    0 -0.00000000000E+00 -0.00000000000E+00 -0.45593999997E+02  0.45594000000E+02  0.51100000000E-03 0. -1.
    9900012    2    1    2    0    0 -0.28672836249E+02  0.61806063289E+01 -0.12505521776E+02  0.59301960609E+02  0.50000030240E+02 0.  0.
        -12    1    1    2    0    0  0.28672836249E+02 -0.61806063289E+01  0.12505521776E+02  0.31886039391E+02  0.00000000000E+00 0.  1.
         11    1    3    3    0    0 -0.16169376554E+02  0.13760093938E+02 -0.82305732718E+01  0.22771281474E+02  0.51100000000E-03 0. -1.
        -11    1    3    3    0    0 -0.31876605461E+01  0.13139923078E+02 -0.24389165163E+01  0.13739252974E+02  0.51100000000E-03 0.  1.
        -12    1    3    3    0    0 -0.93157991496E+01 -0.20719410687E+02 -0.18360319875E+01  0.22791426161E+02  0.00000000000E+00 0.  1.
</event>
<event>
 7    1  0.6489567E-013  0.5930194E+02  0.7816164E-02  0.1266605E+00
        -11   -1    0    0    0    0  0.00000000000E+00  0.00000000000E+00  0.45593999997E+02  0.45594000000E+02  0.51100000000E-03 0. -1.
         11   -1    0    0    0    0 -0.00000000000E+00 -0.00000000000E+00 -0.45593999997E+02  0.45594000000E+02  0.51100000000E-03 0.  1.
    9900012    2    1    2    0    0  0.26984982728E+02  0.48534168908E+01  0.16278076132E+02  0.59301941747E+02  0.49999995840E+02 0.  0.
        -12    1    1    2    0    0 -0.26984982728E+02 -0.48534168908E+01 -0.16278076132E+02  0.31886058253E+02  0.00000000000E+00 0.  1.
         11    1    3    3    0    0 -0.28314640766E+01  0.11378594882E+02 -0.33845806716E+01  0.12204302393E+02  0.51100000000E-03 0. -1.
        -11    1    3    3    0    0 -0.38978874782E+01  0.44138448498E+01 -0.11420455661E+01  0.59983182215E+01  0.51100000000E-03 0.  1.
         12    1    3    3    0    0  0.33714334283E+02 -0.10939022841E+02  0.20804702370E+02  0.41099321133E+02  0.00000000000E+00 0. -1.
</event>
<event>
 7    1  0.6489567E-013  0.5930188E+02  0.7816164E-02  0.1266605E+00
        -11   -1    0    0    0    0  0.00000000000E+00  0.00000000000E+00  0.45593999997E+02  0.45594000000E+02  0.51100000000E-03 0. -1.
         11   -1    0    0    0    0 -0.00000000000E+00 -0.00000000000E+00 -0.45593999997E+02  0.45594000000E+02  0.51100000000E-03 0.  1.
    9900012    2    1    2    0    0  0.10093548414E+02  0.17336176432E+02  0.24785117259E+02  0.59301878091E+02  0.49999879747E+02 0.  0.
        -12    1    1    2    0    0 -0.10093548414E+02 -0.17336176432E+02 -0.24785117259E+02  0.31886121909E+02  0.00000000000E+00 0.  1.
         11    1    3    3    0    0  0.44304631147E+01  0.44988553467E+00  0.77674457453E+01  0.89534693875E+01  0.51100000000E-03 0. -1.
        -11    1    3    3    0    0  0.14430313769E+02 -0.56629452274E+01 -0.63132022706E+01  0.16737963654E+02  0.51100000000E-03 0.  1.
         12    1    3    3    0    0 -0.87672284701E+01  0.22549236125E+02  0.23330873784E+02  0.33610445049E+02  0.00000000000E+00 0. -1.
</event>
<event>
 7    1  0.6489567E-013  0.5930196E+02  0.7816164E-02  0.1266605E+00
        -11   -1    0    0    0    0  0.00000000000E+00  0.00000000000E+00  0.45593999997E+02  0.45594000000E+02  0.51100000000E-03 0. -1.
         11   -1    0    0    0    0 -0.00000000000E+00 -0.00000000000E+00 -0.45593999997E+02  0.45594000000E+02  0.51100000000E-03 0.  1.
    9900012    2    1    2    0    0 -0.22246771750E+02 -0.10667311748E+02  0.20199239615E+02  0.59301958003E+02  0.50000025487E+02 0.  0.
        -12    1    1    2    0    0  0.22246771750E+02  0.10667311748E+02 -0.20199239615E+02  0.31886041997E+02  0.00000000000E+00 0.  1.
         11    1    3    3    0    0 -0.24718963247E+02 -0.16676217052E+01  0.25150230062E+02  0.35303571754E+02  0.51100000000E-03 0. -1.
        -11    1    3    3    0    0  0.79335093742E+01 -0.13172987941E+01  0.56382875821E+01  0.98217174783E+01  0.51100000000E-03 0.  1.
        -12    1    3    3    0    0 -0.54613178773E+01 -0.76823912484E+01 -0.10589278029E+02  0.14176668770E+02  0.00000000000E+00 0.  1.
</event>
<event>
 7    1  0.6489567E-013  0.5930194E+02  0.7816164E-02  0.1266605E+00
        -11   -1    0    0    0    0  0.00000000000E+00  0.00000000000E+00  0.45593999997E+02  0.45594000000E+02  0.51100000000E-03 0. -1.
         11   -1    0    0    0    0 -0.00000000000E+00 -0.00000000000E+00 -0.45593999997E+02  0.45594000000E+02  0.51100000000E-03 0.  1.
    9900012    2    1    2    0    0  0.19031027918E+02  0.90967044146E+01  0.23912150262E+02  0.59301937449E+02  0.49999988002E+02 0.  0.
        -12    1    1    2    0    0 -0.19031027918E+02 -0.90967044146E+01 -0.23912150262E+02  0.31886062551E+02  0.00000000000E+00 0.  1.
         11    1    3    3    0    0 -0.47728456773E+01  0.12423529454E+02  0.91205941058E+00  0.13340014714E+02  0.51100000000E-03 0. -1.
        -11    1    3    3    0    0 -0.19524702077E+01 -0.20571499634E+01 -0.63125981027E+01  0.69204697060E+01  0.51100000000E-03 0.  1.
         12    1    3    3    0    0  0.25756343803E+02 -0.12696750755E+01  0.29312688954E+02  0.39041453029E+02  0.00000000000E+00 0. -1.
</event>
<event>
 7    1  0.6489567E-013  0.5930208E+02  0.7816164E-02  0.1266604E+00
        -11   -1    0    0    0    0  0.00000000000E+00  0.00000000000E+00  0.45593999997E+02  0.45594000000E+02  0.51100000000E-03 0. -1.
         11   -1    0    0    0    0 -0.00000000000E+00 -0.00000000000E+00 -0.45593999997E+02  0.45594000000E+02  0.51100000000E-03 0.  1.
    9900012    2    1    2    0    0 -0.61731586369E+01 -0.23504071478E+01  0.31194221536E+02  0.59302082128E+02  0.50000251861E+02 0.  0.
        -12    1    1    2    0    0  0.61731586369E+01  0.23504071478E+01 -0.31194221536E+02  0.31885917872E+02  0.00000000000E+00 0.  1.
         11    1    3    3    0    0 -0.10824092620E+02 -0.85813386820E+01 -0.60940922836E+01  0.15097626159E+02  0.51100000000E-03 0. -1.
        -11    1    3    3    0    0  0.58890021777E+01 -0.71476205461E+00 -0.31928444703E+00  0.59408058597E+01  0.51100000000E-03 0.  1.
         12    1    3    3    0    0 -0.12380681946E+01  0.69456935889E+01  0.37607598266E+02  0.38263650109E+02  0.00000000000E+00 0. -1.
</event>
<event>
 7    1  0.6489567E-013  0.5930194E+02  0.7816164E-02  0.1266605E+00
        -11   -1    0    0    0    0  0.00000000000E+00  0.00000000000E+00  0.45593999997E+02  0.45594000000E+02  0.51100000000E-03 0. -1.
         11   -1    0    0    0    0 -0.00000000000E+00 -0.00000000000E+00 -0.45593999997E+02  0.45594000000E+02  0.51100000000E-03 0.  1.
    9900012    2    1    2    0    0  0.20667009002E+02  0.25907577949E+01  0.24142976499E+02  0.59301943466E+02  0.49999998975E+02 0.  0.
        -12    1    1    2    0    0 -0.20667009002E+02 -0.25907577949E+01 -0.24142976499E+02  0.31886056534E+02  0.00000000000E+00 0.  1.
         11    1    3    3    0    0 -0.78217898128E+01 -0.11254717406E+02  0.99005953606E+01  0.16907715650E+02  0.51100000000E-03 0.  1.
        -11    1    3    3    0    0  0.10401471142E+02 -0.50259414960E+01 -0.18484052584E+01  0.11699029536E+02  0.51100000000E-03 0. -1.
         12    1    3    3    0    0  0.18087327674E+02  0.18871416697E+02  0.16090786397E+02  0.30695198279E+02  0.00000000000E+00 0. -1.
</event>
<event>
 7    1  0.6489567E-013  0.5930193E+02  0.7816164E-02  0.1266605E+00
        -11   -1    0    0    0    0  0.00000000000E+00  0.00000000000E+00  0.45593999997E+02  0.45594000000E+02  0.51100000000E-03 0. -1.
         11   -1    0    0    0    0 -0.00000000000E+00 -0.00000000000E+00 -0.45593999997E+02  0.45594000000E+02  0.51100000000E-03 0.  1.
    9900012    2    1    2    0    0 -0.19155192654E+02 -0.10875902874E+02  0.23054600228E+02  0.59301933127E+02  0.49999980120E+02 0.  0.
        -12    1    1    2    0    0  0.19155192654E+02  0.10875902874E+02 -0.23054600228E+02  0.31886066873E+02  0.00000000000E+00 0.  1.
         11    1    3    3    0    0  0.61827497919E+01 -0.24425302900E+01  0.12908407995E+02  0.14519619363E+02  0.51100000000E-03 0. -1.
        -11    1    3    3    0    0 -0.58991010793E+01 -0.19031858709E+02 -0.10880389766E+01  0.19954820684E+02  0.51100000000E-03 0.  1.
        -12    1    3    3    0    0 -0.19438841366E+02  0.10598486124E+02  0.11234231210E+02  0.24827493081E+02  0.00000000000E+00 0.  1.
</event>
<event>
 7    1  0.6489567E-013  0.5930196E+02  0.7816164E-02  0.1266605E+00
        -11   -1    0    0    0    0  0.00000000000E+00  0.00000000000E+00  0.45593999997E+02  0.45594000000E+02  0.51100000000E-03 0.  1.
         11   -1    0    0    0    0 -0.00000000000E+00 -0.00000000000E+00 -0.45593999997E+02  0.45594000000E+02  0.51100000000E-03 0. -1.
    9900012    2    1    2    0    0 -0.23345794919E+02  0.20045371835E+02 -0.83592005987E+01  0.59301963761E+02  0.50000035988E+02 0.  0.
        -12    1    1    2    0    0  0.23345794919E+02 -0.20045371835E+02  0.83592005987E+01  0.31886036239E+02  0.00000000000E+00 0.  1.
         11    1    3    3    0    0 -0.66800453182E+01  0.26158822494E+01 -0.19279170608E+02  0.20570665157E+02  0.51100000000E-03 0. -1.
        -11    1    3    3    0    0 -0.15061011546E+02 -0.28713651974E+01 -0.58209058775E+00  0.15343325474E+02  0.51100000000E-03 0.  1.
        -12    1    3    3    0    0 -0.16047380542E+01  0.20300854783E+02  0.11502060597E+02  0.23387973130E+02  0.00000000000E+00 0.  1.
</event>
<event>
 7    1  0.6489567E-013  0.5930195E+02  0.7816164E-02  0.1266605E+00
        -11   -1    0    0    0    0  0.00000000000E+00  0.00000000000E+00  0.45593999997E+02  0.45594000000E+02  0.51100000000E-03 0. -1.
         11   -1    0    0    0    0 -0.00000000000E+00 -0.00000000000E+00 -0.45593999997E+02  0.45594000000E+02  0.51100000000E-03 0.  1.
    9900012    2    1    2    0    0 -0.16174910254E+02 -0.10576334939E+02  0.25362056535E+02  0.59301945145E+02  0.50000002038E+02 0.  0.
        -12    1    1    2    0    0  0.16174910254E+02  0.10576334939E+02 -0.25362056535E+02  0.31886054855E+02  0.00000000000E+00 0.  1.
         11    1    3    3    0    0 -0.14746680635E+02 -0.77918505484E+01  0.26589603041E+02  0.31387649081E+02  0.51100000000E-03 0. -1.
        -11    1    3    3    0    0 -0.36163328805E+01  0.10869066769E+02  0.53019616442E+01  0.12622411555E+02  0.51100000000E-03 0.  1.
         12    1    3    3    0    0  0.21881032608E+01 -0.13653551160E+02 -0.65295081498E+01  0.15291884509E+02  0.00000000000E+00 0. -1.
</event>
<event>
 7    1  0.6489567E-013  0.5930194E+02  0.7816164E-02  0.1266605E+00
        -11   -1    0    0    0    0  0.00000000000E+00  0.00000000000E+00  0.45593999997E+02  0.45594000000E+02  0.51100000000E-03 0.  1.
         11   -1    0    0    0    0 -0.00000000000E+00 -0.00000000000E+00 -0.45593999997E+02  0.45594000000E+02  0.51100000000E-03 0. -1.
    9900012    2    1    2    0    0 -0.91379161350E+01 -0.29528159554E+02 -0.78298929658E+01  0.59301938127E+02  0.49999989238E+02 0.  0.
        -12    1    1    2    0    0  0.91379161350E+01  0.29528159554E+02  0.78298929658E+01  0.31886061873E+02  0.00000000000E+00 0.  1.
         11    1    3    3    0    0  0.90904510532E+01 -0.12916741152E+02 -0.45433306692E+00  0.15801421491E+02  0.51100000000E-03 0. -1.
        -11    1    3    3    0    0 -0.18813436814E+02 -0.46364001259E+01  0.10452661699E+02  0.22015897614E+02  0.51100000000E-03 0.  1.
         12    1    3    3    0    0  0.58506962615E+00 -0.11975018276E+02 -0.17828221597E+02  0.21484619022E+02  0.00000000000E+00 0. -1.
</event>
<event>
 7    1  0.6489567E-013  0.5930194E+02  0.7816164E-02  0.1266605E+00
        -11   -1    0    0    0    0  0.00000000000E+00  0.00000000000E+00  0.45593999997E+02  0.45594000000E+02  0.51100000000E-03 0. -1.
         11   -1    0    0    0    0 -0.00000000000E+00 -0.00000000000E+00 -0.45593999997E+02  0.45594000000E+02  0.51100000000E-03 0.  1.
    9900012    2    1    2    0    0  0.28611741938E+02  0.42107093166E+00  0.14068106318E+02  0.59301942030E+02  0.49999996357E+02 0.  0.
        -12    1    1    2    0    0 -0.28611741938E+02 -0.42107093166E+00 -0.14068106318E+02  0.31886057970E+02  0.00000000000E+00 0.  1.
         11    1    3    3    0    0  0.32941278732E+01 -0.10473115457E+02  0.20130631315E+02  0.22929887554E+02  0.51100000000E-03 0. -1.
        -11    1    3    3    0    0  0.17730220993E+02  0.13947478057E+02  0.45102660243E+01  0.23005116398E+02  0.51100000000E-03 0.  1.
        -12    1    3    3    0    0  0.75873930717E+01 -0.30532916676E+01 -0.10572791021E+02  0.13366938079E+02  0.00000000000E+00 0.  1.
</event>
<event>
 7    1  0.6489567E-013  0.5930186E+02  0.7816164E-02  0.1266605E+00
        -11   -1    0    0    0    0  0.00000000000E+00  0.00000000000E+00  0.45593999997E+02  0.45594000000E+02  0.51100000000E-03 0. -1.
         11   -1    0    0    0    0 -0.00000000000E+00 -0.00000000000E+00 -0.45593999997E+02  0.45594000000E+02  0.51100000000E-03 0.  1.
    9900012    2    1    2    0    0  0.21527821027E+02  0.19229534141E+02 -0.13546362270E+02  0.59301858932E+02  0.49999844805E+02 0.  0.
        -12    1    1    2    0    0 -0.21527821027E+02 -0.19229534141E+02  0.13546362270E+02  0.31886141068E+02  0.00000000000E+00 0.  1.
         11    1    3    3    0    0 -0.84428500315E+01  0.17090649268E+01 -0.49927718059E+01  0.99564245663E+01  0.51100000000E-03 0. -1.
        -11    1    3    3    0    0  0.72762715942E+01  0.23760392144E+02 -0.66944655971E+01  0.25735505300E+02  0.51100000000E-03 0.  1.
         12    1    3    3    0    0  0.22694399464E+02 -0.62399229295E+01 -0.18591248674E+01  0.23609929066E+02  0.00000000000E+00 0. -1.
</event>
<event>
 7    1  0.6489567E-013  0.5930195E+02  0.7816164E-02  0.1266605E+00
        -11   -1    0    0    0    0  0.00000000000E+00  0.00000000000E+00  0.45593999997E+02  0.45594000000E+02  0.51100000000E-03 0.  1.
         11   -1    0    0    0    0 -0.00000000000E+00 -0.00000000000E+00 -0.45593999997E+02  0.45594000000E+02  0.51100000000E-03 0. -1.
    9900012    2    1    2    0    0  0.62175960712E+01  0.29923958641E+02  0.90894625332E+01  0.59301950844E+02  0.50000012432E+02 0.  0.
        -12    1    1    2    0    0 -0.62175960712E+01 -0.29923958641E+02 -0.90894625332E+01  0.31886049156E+02  0.00000000000E+00 0.  1.
         11    1    3    3    0    0  0.62828380915E+01  0.15897784654E+02  0.29409050700E+01  0.17345389424E+02  0.51100000000E-03 0. -1.
        -11    1    3    3    0    0  0.34673978716E+01  0.58019620160E+01 -0.16377432527E+02  0.17717389979E+02  0.51100000000E-03 0.  1.
        -12    1    3    3    0    0 -0.35326398919E+01  0.82242119706E+01  0.22525989990E+02  0.24239171441E+02  0.00000000000E+00 0.  1.
</event>
<event>
 7    1  0.6489567E-013  0.5930195E+02  0.7816164E-02  0.1266605E+00
        -11   -1    0    0    0    0  0.00000000000E+00  0.00000000000E+00  0.45593999997E+02  0.45594000000E+02  0.51100000000E-03 0. -1.
         11   -1    0    0    0    0 -0.00000000000E+00 -0.00000000000E+00 -0.45593999997E+02  0.45594000000E+02  0.51100000000E-03 0.  1.
    9900012    2    1    2    0    0 -0.12437629933E+02  0.59727313171E+01  0.28746339017E+02  0.59301950314E+02  0.50000011464E+02 0.  0.
        -12    1    1    2    0    0  0.12437629933E+02 -0.59727313171E+01 -0.28746339017E+02  0.31886049686E+02  0.00000000000E+00 0.  1.
         11    1    3    3    0    0 -0.98886095019E+01 -0.37425341252E+01 -0.10324941411E+02  0.14778212847E+02  0.51100000000E-03 0. -1.
        -11    1    3    3    0    0  0.43048157773E+00  0.11258523765E+02  0.94277009275E+01  0.14690854869E+02  0.51100000000E-03 0.  1.
        -12    1    3    3    0    0 -0.29795020085E+01 -0.15432583227E+01  0.29643579500E+02  0.29832882597E+02  0.00000000000E+00 0.  1.
</event>
<event>
 7    1  0.6489567E-013  0.5930195E+02  0.7816164E-02  0.1266605E+00
        -11   -1    0    0    0    0  0.00000000000E+00  0.00000000000E+00  0.45593999997E+02  0.45594000000E+02  0.51100000000E-03 0.  1.
         11   -1    0    0    0    0 -0.00000000000E+00 -0.00000000000E+00 -0.45593999997E+02  0.45594000000E+02  0.51100000000E-03 0. -1.
    9900012    2    1    2    0    0  0.24751191172E+02  0.19169062836E+02 -0.60535918748E+01  0.59301946481E+02  0.50000004474E+02 0.  0.
        -12    1    1    2    0    0 -0.24751191172E+02 -0.19169062836E+02  0.60535918748E+01  0.31886053519E+02  0.00000000000E+00 0.  1.
         11    1    3    3    0    0  0.17885961371E+02 -0.28037064380E+01  0.62809337234E+01  0.19162946346E+02  0.51100000000E-03 0. -1.
        -11    1    3    3    0    0  0.97247332164E+01 -0.47081349828E+01 -0.51282105590E+00  0.10816651831E+02  0.51100000000E-03 0.  1.
        -12    1    3    3    0    0 -0.28595034154E+01  0.26680904257E+02 -0.11821704542E+02  0.29322348304E+02  0.00000000000E+00 0.  1.
</event>
<event>
 7    1  0.6489567E-013  0.5930196E+02  0.7816164E-02  0.1266605E+00
        -11   -1    0    0    0    0  0.00000000000E+00  0.00000000000E+00  0.45593999997E+02  0.45594000000E+02  0.51100000000E-03 0. -1.
         11   -1    0    0    0    0 -0.00000000000E+00 -0.00000000000E+00 -0.45593999997E+02  0.45594000000E+02  0.51100000000E-03 0.  1.
    9900012    2    1    2    0    0 -0.12201610590E+02  0.24610698616E+02  0.16191167893E+02  0.59301957519E+02  0.50000024606E+02 0.  0.
        -12    1    1    2    0    0  0.12201610590E+02 -0.24610698616E+02 -0.16191167893E+02  0.31886042481E+02  0.00000000000E+00 0.  1.
         11    1    3    3    0    0 -0.14213473585E+02  0.10619157918E+02  0.72147120840E+00  0.17756966723E+02  0.51100000000E-03 0. -1.
        -11    1    3    3    0    0  0.90177328753E+01  0.24293405474E+02  0.85113475548E+01  0.27275118574E+02  0.51100000000E-03 0.  1.
         12    1    3    3    0    0 -0.70058698805E+01 -0.10301864776E+02  0.69583491296E+01  0.14269872223E+02  0.00000000000E+00 0. -1.
</event>
<event>
 7    1  0.6489567E-013  0.5930193E+02  0.7816164E-02  0.1266605E+00
        -11   -1    0    0    0    0  0.00000000000E+00  0.00000000000E+00  0.45593999997E+02  0.45594000000E+02  0.51100000000E-03 0.  1.
         11   -1    0    0    0    0 -0.00000000000E+00 -0.00000000000E+00 -0.45593999997E+02  0.45594000000E+02  0.51100000000E-03 0. -1.
    9900012    2    1    2    0    0 -0.27995300712E+02 -0.77425259373E+01 -0.13154384811E+02  0.59301930791E+02  0.49999975860E+02 0.  0.
        -12    1    1    2    0    0  0.27995300712E+02  0.77425259373E+01  0.13154384811E+02  0.31886069209E+02  0.00000000000E+00 0.  1.
         11    1    3    3    0    0 -0.22182208259E+02  0.59172824154E+01 -0.14721656379E+02  0.27272545925E+02  0.51100000000E-03 0. -1.
        -11    1    3    3    0    0 -0.16550192917E+02 -0.40233712739E+01  0.37439001229E+01  0.17438841429E+02  0.51100000000E-03 0.  1.
        -12    1    3    3    0    0  0.10737100464E+02 -0.96364370789E+01 -0.21766285552E+01  0.14590543438E+02  0.00000000000E+00 0.  1.
</event>
<event>
 7    1  0.6489567E-013  0.5930176E+02  0.7816164E-02  0.1266605E+00
        -11   -1    0    0    0    0  0.00000000000E+00  0.00000000000E+00  0.45593999997E+02  0.45594000000E+02  0.51100000000E-03 0. -1.
         11   -1    0    0    0    0 -0.00000000000E+00 -0.00000000000E+00 -0.45593999997E+02  0.45594000000E+02  0.51100000000E-03 0.  1.
    9900012    2    1    2    0    0  0.28409944443E+02  0.21467254464E+01 -0.14317788461E+02  0.59301757829E+02  0.49999660416E+02 0.  0.
        -12    1    1    2    0    0 -0.28409944443E+02 -0.21467254464E+01  0.14317788461E+02  0.31886242171E+02  0.00000000000E+00 0.  1.
         11    1    3    3    0    0  0.14544724210E+02 -0.21365173222E+02  0.85767659624E-01  0.25846218012E+02  0.51100000000E-03 0.  1.
        -11    1    3    3    0    0  0.69978987173E+01  0.15268954818E+01 -0.32972973153E+01  0.78850596774E+01  0.51100000000E-03 0. -1.
        -12    1    3    3    0    0  0.68673215156E+01  0.21985003187E+02 -0.11106258805E+02  0.25570480139E+02  0.00000000000E+00 0.  1.
</event>
<event>
 7    1  0.6489567E-013  0.5930196E+02  0.7816164E-02  0.1266605E+00
        -11   -1    0    0    0    0  0.00000000000E+00  0.00000000000E+00  0.45593999997E+02  0.45594000000E+02  0.51100000000E-03 0. -1.
         11   -1    0    0    0    0 -0.00000000000E+00 -0.00000000000E+00 -0.45593999997E+02  0.45594000000E+02  0.51100000000E-03 0.  1.
    9900012    2    1    2    0    0  0.18859626139E+02  0.22858694345E+02  0.11769207031E+02  0.59301958550E+02  0.50000026484E+02 0.  0.
        -12    1    1    2    0    0 -0.18859626139E+02 -0.22858694345E+02 -0.11769207031E+02  0.31886041450E+02  0.00000000000E+00 0.  1.
         11    1    3    3    0    0  0.17975027725E+02  0.12084291746E+01  0.10986091522E+02  0.21101093099E+02  0.51100000000E-03 0.  1.
        -11    1    3    3    0    0  0.33425313027E+01 -0.26862892128E+01  0.10913469548E+02  0.11725718873E+02  0.51100000000E-03 0. -1.
         12    1    3    3    0    0 -0.24579328892E+01  0.24336554383E+02 -0.10130354039E+02  0.26475146577E+02  0.00000000000E+00 0. -1.
</event>
<event>
 7    1  0.6489567E-013  0.5930194E+02  0.7816164E-02  0.1266605E+00
        -11   -1    0    0    0    0  0.00000000000E+00  0.00000000000E+00  0.45593999997E+02  0.45594000000E+02  0.51100000000E-03 0.  1.
         11   -1    0    0    0    0 -0.00000000000E+00 -0.00000000000E+00 -0.45593999997E+02  0.45594000000E+02  0.51100000000E-03 0. -1.
    9900012    2    1    2    0    0  0.66211951931E+01 -0.35453482773E+01 -0.30988882079E+02  0.59301944542E+02  0.50000000938E+02 0.  0.
        -12    1    1    2    0    0 -0.66211951931E+01  0.35453482773E+01  0.30988882079E+02  0.31886055458E+02  0.00000000000E+00 0.  1.
         11    1    3    3    0    0 -0.65894422748E+01 -0.70933665699E+01 -0.15692603831E+02  0.18438937444E+02  0.51100000000E-03 0. -1.
        -11    1    3    3    0    0  0.20565917925E+01  0.85696916299E+01  0.96563238493E+01  0.13073399519E+02  0.51100000000E-03 0.  1.
         12    1    3    3    0    0  0.11154045675E+02 -0.50216733373E+01 -0.24952602097E+02  0.27789607580E+02  0.00000000000E+00 0. -1.
</event>
<event>
 7    1  0.6489567E-013  0.5930195E+02  0.7816164E-02  0.1266605E+00
        -11   -1    0    0    0    0  0.00000000000E+00  0.00000000000E+00  0.45593999997E+02  0.45594000000E+02  0.51100000000E-03 0.  1.
         11   -1    0    0    0    0 -0.00000000000E+00 -0.00000000000E+00 -0.45593999997E+02  0.45594000000E+02  0.51100000000E-03 0. -1.
    9900012    2    1    2    0    0 -0.24665105074E+02  0.20034741074E+02 -0.26385218787E+01  0.59301952018E+02  0.50000014572E+02 0.  0.
        -12    1    1    2    0    0  0.24665105074E+02 -0.20034741074E+02  0.26385218787E+01  0.31886047982E+02  0.00000000000E+00 0.  1.
         11    1    3    3    0    0 -0.63689845358E+01  0.52762635167E+01 -0.66380248373E+01  0.10605012716E+02  0.51100000000E-03 0. -1.
        -11    1    3    3    0    0 -0.29877824562E+02  0.51969527746E+01  0.10824429687E+02  0.32200326039E+02  0.51100000000E-03 0.  1.
        -12    1    3    3    0    0  0.11581704024E+02  0.95615247830E+01 -0.68249267281E+01  0.16496613262E+02  0.00000000000E+00 0.  1.
</event>
<event>
 7    1  0.6489567E-013  0.5930196E+02  0.7816164E-02  0.1266605E+00
        -11   -1    0    0    0    0  0.00000000000E+00  0.00000000000E+00  0.45593999997E+02  0.45594000000E+02  0.51100000000E-03 0. -1.
         11   -1    0    0    0    0 -0.00000000000E+00 -0.00000000000E+00 -0.45593999997E+02  0.45594000000E+02  0.51100000000E-03 0.  1.
    9900012    2    1    2    0    0 -0.22861912915E+02  0.96962489000E+01 -0.20000884129E+02  0.59301958057E+02  0.50000025586E+02 0.  0.
        -12    1    1    2    0    0  0.22861912915E+02 -0.96962489000E+01  0.20000884129E+02  0.31886041943E+02  0.00000000000E+00 0.  1.
         11    1    3    3    0    0 -0.10241049112E+02  0.86836117339E+01  0.49550548136E+01  0.14312119624E+02  0.51100000000E-03 0. -1.
        -11    1    3    3    0    0 -0.11861520381E+02 -0.15670891793E+01  0.63659376125E+01  0.13552733901E+02  0.51100000000E-03 0.  1.
        -12    1    3    3    0    0 -0.75934342150E+00  0.25797263453E+01 -0.31321876555E+02  0.31437104532E+02  0.00000000000E+00 0.  1.
</event>
<event>
 7    1  0.6489567E-013  0.5930195E+02  0.7816164E-02  0.1266605E+00
        -11   -1    0    0    0    0  0.00000000000E+00  0.00000000000E+00  0.45593999997E+02  0.45594000000E+02  0.51100000000E-03 0. -1.
         11   -1    0    0    0    0 -0.00000000000E+00 -0.00000000000E+00 -0.45593999997E+02  0.45594000000E+02  0.51100000000E-03 0.  1.
    9900012    2    1    2    0    0 -0.29988000028E+02  0.82997514768E+01  0.69681027165E+01  0.59301945435E+02  0.50000002566E+02 0.  0.
        -12    1    1    2    0    0  0.29988000028E+02 -0.82997514768E+01 -0.69681027165E+01  0.31886054565E+02  0.00000000000E+00 0.  1.
         11    1    3    3    0    0 -0.43348599395E+01 -0.59169178874E+01  0.91976539313E+01  0.11764257991E+02  0.51100000000E-03 0. -1.
        -11    1    3    3    0    0 -0.82023521368E+01  0.15275779063E+02  0.15047924523E+02  0.22957962438E+02  0.51100000000E-03 0.  1.
        -12    1    3    3    0    0 -0.17450787952E+02 -0.10591096991E+01 -0.17277475738E+02  0.24579725006E+02  0.00000000000E+00 0.  1.
</event>
<event>
 7    1  0.6489567E-013  0.5930192E+02  0.7816164E-02  0.1266605E+00
        -11   -1    0    0    0    0  0.00000000000E+00  0.00000000000E+00  0.45593999997E+02  0.45594000000E+02  0.51100000000E-03 0.  1.
         11   -1    0    0    0    0 -0.00000000000E+00 -0.00000000000E+00 -0.45593999997E+02  0.45594000000E+02  0.51100000000E-03 0. -1.
    9900012    2    1    2    0    0  0.17439183787E+02  0.21674664584E+02 -0.15582236982E+02  0.59301916431E+02  0.49999949671E+02 0.  0.
        -12    1    1    2    0    0 -0.17439183787E+02 -0.21674664584E+02  0.15582236982E+02  0.31886083569E+02  0.00000000000E+00 0.  1.
         11    1    3    3    0    0  0.54581297712E+01  0.17057324689E+02  0.33486586162E+01  0.18219687729E+02  0.51100000000E-03 0. -1.
        -11    1    3    3    0    0  0.10450406582E+01  0.61806820251E+01  0.90446427974E+01  0.11004476538E+02  0.51100000000E-03 0.  1.
         12    1    3    3    0    0  0.10936013358E+02 -0.15633421303E+01 -0.27975538396E+02  0.30077752165E+02  0.00000000000E+00 0. -1.
</event>
<event>
 7    1  0.6489567E-013  0.5930195E+02  0.7816164E-02  0.1266605E+00
        -11   -1    0    0    0    0  0.00000000000E+00  0.00000000000E+00  0.45593999997E+02  0.45594000000E+02  0.51100000000E-03 0.  1.
         11   -1    0    0    0    0 -0.00000000000E+00 -0.00000000000E+00 -0.45593999997E+02  0.45594000000E+02  0.51100000000E-03 0. -1.
    9900012    2    1    2    0    0  0.19399857033E+02  0.17795561292E+02 -0.17991215813E+02  0.59301948174E+02  0.50000007562E+02 0.  0.
        -12    1    1    2    0    0 -0.19399857033E+02 -0.17795561292E+02  0.17991215813E+02  0.31886051826E+02  0.00000000000E+00 0.  1.
         11    1    3    3    0    0 -0.48083975105E+01  0.49611303977E+01 -0.10432433449E+02  0.12512760262E+02  0.51100000000E-03 0. -1.
        -11    1    3    3    0    0  0.20464587044E+02 -0.11346045588E+01 -0.19306363742E+02  0.28157100909E+02  0.51100000000E-03 0.  1.
        -12    1    3    3    0    0  0.37436674999E+01  0.13969035453E+02  0.11747581379E+02  0.18632087003E+02  0.00000000000E+00 0.  1.
</event>
<event>
 7    1  0.6489567E-013  0.5930192E+02  0.7816164E-02  0.1266605E+00
        -11   -1    0    0    0    0  0.00000000000E+00  0.00000000000E+00  0.45593999997E+02  0.45594000000E+02  0.51100000000E-03 0.  1.
         11   -1    0    0    0    0 -0.00000000000E+00 -0.00000000000E+00 -0.45593999997E+02  0.45594000000E+02  0.51100000000E-03 0. -1.
    9900012    2    1    2    0    0  0.81961608190E+01 -0.23324526102E+02 -0.20137318393E+02  0.59301918991E+02  0.49999954338E+02 0.  0.
        -12    1    1    2    0    0 -0.81961608190E+01  0.23324526102E+02  0.20137318393E+02  0.31886081009E+02  0.00000000000E+00 0.  1.
         11    1    3    3    0    0  0.14937133826E+02 -0.17263046600E+02  0.10389844817E+02  0.25081459695E+02  0.51100000000E-03 0. -1.
        -11    1    3    3    0    0  0.27215642714E+01 -0.50434213323E+01 -0.14340783292E+02  0.15443480065E+02  0.51100000000E-03 0.  1.
        -12    1    3    3    0    0 -0.94625372780E+01 -0.10180581697E+01 -0.16186379919E+02  0.18776979231E+02  0.00000000000E+00 0.  1.
</event>
<event>
 7    1  0.6489567E-013  0.5930193E+02  0.7816164E-02  0.1266605E+00
        -11   -1    0    0    0    0  0.00000000000E+00  0.00000000000E+00  0.45593999997E+02  0.45594000000E+02  0.51100000000E-03 0. -1.
         11   -1    0    0    0    0 -0.00000000000E+00 -0.00000000000E+00 -0.45593999997E+02  0.45594000000E+02  0.51100000000E-03 0.  1.
    9900012    2    1    2    0    0 -0.25859127098E+02 -0.32371690114E+01  0.18372467144E+02  0.59301933036E+02  0.49999979954E+02 0.  0.
        -12    1    1    2    0    0  0.25859127098E+02  0.32371690114E+01 -0.18372467144E+02  0.31886066964E+02  0.00000000000E+00 0.  1.
         11    1    3    3    0    0 -0.11022287973E+02 -0.67786768531E+00  0.86185487479E+01  0.14008201867E+02  0.51100000000E-03 0. -1.
        -11    1    3    3    0    0 -0.20564480825E+02  0.13975673644E+02 -0.76658553923E+00  0.24875791024E+02  0.51100000000E-03 0.  1.
        -12    1    3    3    0    0  0.57276416999E+01 -0.16534974971E+02  0.10520503935E+02  0.20417940145E+02  0.00000000000E+00 0.  1.
</event>
<event>
 7    1  0.6489567E-013  0.5930195E+02  0.7816164E-02  0.1266605E+00
        -11   -1    0    0    0    0  0.00000000000E+00  0.00000000000E+00  0.45593999997E+02  0.45594000000E+02  0.51100000000E-03 0.  1.
         11   -1    0    0    0    0 -0.00000000000E+00 -0.00000000000E+00 -0.45593999997E+02  0.45594000000E+02  0.51100000000E-03 0. -1.
    9900012    2    1    2    0    0 -0.23580554524E+02  0.20455199055E+02 -0.65009405903E+01  0.59301953700E+02  0.50000017641E+02 0.  0.
        -12    1    1    2    0    0  0.23580554524E+02 -0.20455199055E+02  0.65009405903E+01  0.31886046300E+02  0.00000000000E+00 0.  1.
         11    1    3    3    0    0 -0.13799543286E+02  0.32470308669E+01  0.13500383084E+01  0.14240548025E+02  0.51100000000E-03 0. -1.
        -11    1    3    3    0    0 -0.87643174711E+01 -0.11443741913E+02 -0.78042499753E+01  0.16391424820E+02  0.51100000000E-03 0.  1.
         12    1    3    3    0    0 -0.10166937676E+01  0.28651910101E+02 -0.46728923320E-01  0.28669980855E+02  0.00000000000E+00 0. -1.
</event>
<event>
 7    1  0.6489567E-013  0.5930193E+02  0.7816164E-02  0.1266605E+00
        -11   -1    0    0    0    0  0.00000000000E+00  0.00000000000E+00  0.45593999997E+02  0.45594000000E+02  0.51100000000E-03 0.  1.
         11   -1    0    0    0    0 -0.00000000000E+00 -0.00000000000E+00 -0.45593999997E+02  0.45594000000E+02  0.51100000000E-03 0. -1.
    9900012    2    1    2    0    0  0.19945345136E+02 -0.30747808546E+01 -0.24687051527E+02  0.59301928072E+02  0.49999970901E+02 0.  0.
        -12    1    1    2    0    0 -0.19945345136E+02  0.30747808546E+01  0.24687051527E+02  0.31886071928E+02  0.00000000000E+00 0.  1.
         11    1    3    3    0    0  0.84830144887E+01  0.22837137902E+02 -0.70213533271E+01  0.25353418018E+02  0.51100000000E-03 0.  1.
        -11    1    3    3    0    0  0.44271853985E+01 -0.12279496797E+02 -0.47361103518E+01  0.13885847243E+02  0.51100000000E-03 0. -1.
        -12    1    3    3    0    0  0.70351452486E+01 -0.13632421960E+02 -0.12929587848E+02  0.20062662811E+02  0.00000000000E+00 0.  1.
</event>
<event>
 7    1  0.6489567E-013  0.5930194E+02  0.7816164E-02  0.1266605E+00
        -11   -1    0    0    0    0  0.00000000000E+00  0.00000000000E+00  0.45593999997E+02  0.45594000000E+02  0.51100000000E-03 0. -1.
         11   -1    0    0    0    0 -0.00000000000E+00 -0.00000000000E+00 -0.45593999997E+02  0.45594000000E+02  0.51100000000E-03 0.  1.
    9900012    2    1    2    0    0 -0.26362237052E+02  0.16828217194E+02  0.62100264292E+01  0.59301939337E+02  0.49999991446E+02 0.  0.
        -12    1    1    2    0    0  0.26362237052E+02 -0.16828217194E+02 -0.62100264292E+01  0.31886060663E+02  0.00000000000E+00 0.  1.
         11    1    3    3    0    0 -0.77375665064E+01  0.95731358968E+01  0.13390374429E+02  0.18188375242E+02  0.51100000000E-03 0. -1.
        -11    1    3    3    0    0 -0.24691864811E+02  0.85866199311E+01  0.57513000709E+01  0.26767436980E+02  0.51100000000E-03 0.  1.
        -12    1    3    3    0    0  0.60671942654E+01 -0.13315386338E+01 -0.12931648071E+02  0.14346127115E+02  0.00000000000E+00 0.  1.
</event>
<event>
 7    1  0.6489567E-013  0.5930199E+02  0.7816164E-02  0.1266605E+00
        -11   -1    0    0    0    0  0.00000000000E+00  0.00000000000E+00  0.45593999997E+02  0.45594000000E+02  0.51100000000E-03 0.  1.
         11   -1    0    0    0    0 -0.00000000000E+00 -0.00000000000E+00 -0.45593999997E+02  0.45594000000E+02  0.51100000000E-03 0. -1.
    9900012    2    1    2    0    0  0.25537839667E+02 -0.12032448811E+02 -0.14824198583E+02  0.59301985152E+02  0.50000075001E+02 0.  0.
        -12    1    1    2    0    0 -0.25537839667E+02  0.12032448811E+02  0.14824198583E+02  0.31886014848E+02  0.00000000000E+00 0.  1.
         11    1    3    3    0    0 -0.48684765648E+01 -0.49171300859E+01 -0.60581864879E+01  0.91968394640E+01  0.51100000000E-03 0. -1.
        -11    1    3    3    0    0  0.13504922545E+02 -0.16736917749E+02 -0.18489751520E+02  0.28361563078E+02  0.51100000000E-03 0.  1.
        -12    1    3    3    0    0  0.16901393687E+02  0.96215990237E+01  0.97237394247E+01  0.21743582610E+02  0.00000000000E+00 0.  1.
</event>
<event>
 7    1  0.6489567E-013  0.5930196E+02  0.7816164E-02  0.1266605E+00
        -11   -1    0    0    0    0  0.00000000000E+00  0.00000000000E+00  0.45593999997E+02  0.45594000000E+02  0.51100000000E-03 0. -1.
         11   -1    0    0    0    0 -0.00000000000E+00 -0.00000000000E+00 -0.45593999997E+02  0.45594000000E+02  0.51100000000E-03 0.  1.
    9900012    2    1    2    0    0  0.15227358482E+02  0.26700697367E+02 -0.84805501944E+01  0.59301962024E+02  0.50000032820E+02 0.  0.
        -12    1    1    2    0    0 -0.15227358482E+02 -0.26700697367E+02  0.84805501944E+01  0.31886037976E+02  0.00000000000E+00 0.  1.
         11    1    3    3    0    0 -0.50380230856E+01 -0.14850388440E+01 -0.62405705049E+00  0.52892782534E+01  0.51100000000E-03 0. -1.
        -11    1    3    3    0    0  0.77975523985E+01 -0.10192660034E+02 -0.41612942418E+01  0.13491053035E+02  0.51100000000E-03 0.  1.
         12    1    3    3    0    0  0.12467829169E+02  0.38378396245E+02 -0.36951989021E+01  0.40521630735E+02  0.00000000000E+00 0. -1.
</event>
<event>
 7    1  0.6489567E-013  0.5930195E+02  0.7816164E-02  0.1266605E+00
        -11   -1    0    0    0    0  0.00000000000E+00  0.00000000000E+00  0.45593999997E+02  0.45594000000E+02  0.51100000000E-03 0. -1.
         11   -1    0    0    0    0 -0.00000000000E+00 -0.00000000000E+00 -0.45593999997E+02  0.45594000000E+02  0.51100000000E-03 0.  1.
    9900012    2    1    2    0    0 -0.14077141207E+02 -0.21792266175E+02  0.18537835679E+02  0.59301950993E+02  0.50000012703E+02 0.  0.
        -12    1    1    2    0    0  0.14077141207E+02  0.21792266175E+02 -0.18537835679E+02  0.31886049007E+02  0.00000000000E+00 0.  1.
         11    1    3    3    0    0 -0.28004440861E+01 -0.23602104353E+02  0.73483763929E+01  0.24877709959E+02  0.51100000000E-03 0. -1.
        -11    1    3    3    0    0  0.91902434694E+01 -0.30427771761E+01 -0.15922351864E+01  0.98109266188E+01  0.51100000000E-03 0.  1.
         12    1    3    3    0    0 -0.20466940590E+02  0.48526153534E+01  0.12781694473E+02  0.24613314415E+02  0.00000000000E+00 0. -1.
</event>
<event>
 7    1  0.6489567E-013  0.5930194E+02  0.7816164E-02  0.1266605E+00
        -11   -1    0    0    0    0  0.00000000000E+00  0.00000000000E+00  0.45593999997E+02  0.45594000000E+02  0.51100000000E-03 0.  1.
         11   -1    0    0    0    0 -0.00000000000E+00 -0.00000000000E+00 -0.45593999997E+02  0.45594000000E+02  0.51100000000E-03 0. -1.
    9900012    2    1    2    0    0  0.46518543145E+01  0.14906929677E+02 -0.27800442476E+02  0.59301938738E+02  0.49999990352E+02 0.  0.
        -12    1    1    2    0    0 -0.46518543145E+01 -0.14906929677E+02  0.27800442476E+02  0.31886061262E+02  0.00000000000E+00 0.  1.
         11    1    3    3    0    0  0.17928400957E+01 -0.93044874503E+01 -0.18114318757E+02  0.20443001409E+02  0.51100000000E-03 0. -1.
        -11    1    3    3    0    0  0.70849765571E+01 -0.20695403266E+01  0.45518328535E+01  0.86717398811E+01  0.51100000000E-03 0.  1.
        -12    1    3    3    0    0 -0.42259623382E+01  0.26280957454E+02 -0.14237956573E+02  0.30187197448E+02  0.00000000000E+00 0.  1.
</event>
<event>
 7    1  0.6489567E-013  0.5930196E+02  0.7816164E-02  0.1266605E+00
        -11   -1    0    0    0    0  0.00000000000E+00  0.00000000000E+00  0.45593999997E+02  0.45594000000E+02  0.51100000000E-03 0. -1.
         11   -1    0    0    0    0 -0.00000000000E+00 -0.00000000000E+00 -0.45593999997E+02  0.45594000000E+02  0.51100000000E-03 0.  1.
    9900012    2    1    2    0    0 -0.11939808499E+02  0.12649011146E+02  0.26723823249E+02  0.59301964828E+02  0.50000037934E+02 0.  0.
        -12    1    1    2    0    0  0.11939808499E+02 -0.12649011146E+02 -0.26723823249E+02  0.31886035172E+02  0.00000000000E+00 0.  1.
         11    1    3    3    0    0 -0.41671467430E+01 -0.11214049259E+02 -0.41649444853E+01  0.12667548129E+02  0.51100000000E-03 0. -1.
        -11    1    3    3    0    0  0.39894796805E+01 -0.33817293619E+01  0.39290929423E+01  0.65413922989E+01  0.51100000000E-03 0.  1.
         12    1    3    3    0    0 -0.11762141436E+02  0.27244789767E+02  0.26959674792E+02  0.40093024400E+02  0.00000000000E+00 0. -1.
</event>
<event>
 7    1  0.6489567E-013  0.5930195E+02  0.7816164E-02  0.1266605E+00
        -11   -1    0    0    0    0  0.00000000000E+00  0.00000000000E+00  0.45593999997E+02  0.45594000000E+02  0.51100000000E-03 0.  1.
         11   -1    0    0    0    0 -0.00000000000E+00 -0.00000000000E+00 -0.45593999997E+02  0.45594000000E+02  0.51100000000E-03 0. -1.
    9900012    2    1    2    0    0 -0.11421266188E+01 -0.26746650363E+00 -0.31864466894E+02  0.59301949100E+02  0.50000009251E+02 0.  0.
        -12    1    1    2    0    0  0.11421266188E+01  0.26746650363E+00  0.31864466894E+02  0.31886050900E+02  0.00000000000E+00 0.  1.
         11    1    3    3    0    0 -0.13249971816E+02 -0.46935130206E+01 -0.51337775321E+01  0.14964841783E+02  0.51100000000E-03 0. -1.
        -11    1    3    3    0    0 -0.80873284363E+01  0.69081489658E+01 -0.20436616739E+02  0.23038721912E+02  0.51100000000E-03 0.  1.
         12    1    3    3    0    0  0.20195173633E+02 -0.24821024488E+01 -0.62940726231E+01  0.21298385404E+02  0.00000000000E+00 0. -1.
</event>
<event>
 7    1  0.6489567E-013  0.5930197E+02  0.7816164E-02  0.1266605E+00
        -11   -1    0    0    0    0  0.00000000000E+00  0.00000000000E+00  0.45593999997E+02  0.45594000000E+02  0.51100000000E-03 0.  1.
         11   -1    0    0    0    0 -0.00000000000E+00 -0.00000000000E+00 -0.45593999997E+02  0.45594000000E+02  0.51100000000E-03 0. -1.
    9900012    2    1    2    0    0  0.16429187404E+02 -0.48377052388E+01 -0.26896051483E+02  0.59301965814E+02  0.50000039733E+02 0.  0.
        -12    1    1    2    0    0 -0.16429187404E+02  0.48377052388E+01  0.26896051483E+02  0.31886034186E+02  0.00000000000E+00 0.  1.
         11    1    3    3    0    0 -0.48188108859E+01  0.81854791381E+01 -0.44369429141E+00  0.95089364263E+01  0.51100000000E-03 0.  1.
        -11    1    3    3    0    0 -0.90162873008E+01  0.27171170509E+00 -0.71827294431E+01  0.11530779091E+02  0.51100000000E-03 0. -1.
         12    1    3    3    0    0  0.30264285591E+02 -0.13294896082E+02 -0.19269627749E+02  0.38262250296E+02  0.00000000000E+00 0. -1.
</event>
<event>
 7    1  0.6489567E-013  0.5930195E+02  0.7816164E-02  0.1266605E+00
        -11   -1    0    0    0    0  0.00000000000E+00  0.00000000000E+00  0.45593999997E+02  0.45594000000E+02  0.51100000000E-03 0. -1.
         11   -1    0    0    0    0 -0.00000000000E+00 -0.00000000000E+00 -0.45593999997E+02  0.45594000000E+02  0.51100000000E-03 0.  1.
    9900012    2    1    2    0    0  0.12537670649E+02  0.16622581753E+02  0.24149881789E+02  0.59301949761E+02  0.50000010456E+02 0.  0.
        -12    1    1    2    0    0 -0.12537670649E+02 -0.16622581753E+02 -0.24149881789E+02  0.31886050239E+02  0.00000000000E+00 0.  1.
         11    1    3    3    0    0  0.84513860396E+01  0.18853803280E+02  0.22236730926E+02  0.30353978761E+02  0.51100000000E-03 0. -1.
        -11    1    3    3    0    0 -0.29086745147E+01  0.57694455536E+01  0.12422194515E+02  0.14002064357E+02  0.51100000000E-03 0.  1.
        -12    1    3    3    0    0  0.69949591237E+01 -0.80006670803E+01 -0.10509043652E+02  0.14945906642E+02  0.00000000000E+00 0.  1.
</event>
<event>
 7    1  0.6489567E-013  0.5930194E+02  0.7816164E-02  0.1266605E+00
        -11   -1    0    0    0    0  0.00000000000E+00  0.00000000000E+00  0.45593999997E+02  0.45594000000E+02  0.51100000000E-03 0.  1.
         11   -1    0    0    0    0 -0.00000000000E+00 -0.00000000000E+00 -0.45593999997E+02  0.45594000000E+02  0.51100000000E-03 0. -1.
    9900012    2    1    2    0    0 -0.16886166188E+02  0.88923904566E+01 -0.25544149517E+02  0.59301940490E+02  0.49999993547E+02 0.  0.
        -12    1    1    2    0    0  0.16886166188E+02 -0.88923904566E+01  0.25544149517E+02  0.31886059510E+02  0.00000000000E+00 0.  1.
         11    1    3    3    0    0 -0.41718677096E+01  0.34053601351E+01 -0.15815957449E+02  0.16707646996E+02  0.51100000000E-03 0. -1.
        -11    1    3    3    0    0 -0.25065658805E+02  0.60366273287E+01 -0.14215450149E+02  0.29441588681E+02  0.51100000000E-03 0.  1.
        -12    1    3    3    0    0  0.12351360327E+02 -0.54959700713E+00  0.44872580823E+01  0.13152704813E+02  0.00000000000E+00 0.  1.
</event>
<event>
 7    1  0.6489567E-013  0.5930196E+02  0.7816164E-02  0.1266605E+00
        -11   -1    0    0    0    0  0.00000000000E+00  0.00000000000E+00  0.45593999997E+02  0.45594000000E+02  0.51100000000E-03 0.  1.
         11   -1    0    0    0    0 -0.00000000000E+00 -0.00000000000E+00 -0.45593999997E+02  0.45594000000E+02  0.51100000000E-03 0. -1.
    9900012    2    1    2    0    0 -0.16516768193E+02 -0.26135482916E+02 -0.78007825267E+01  0.59301963764E+02  0.50000035994E+02 0.  0.
        -12    1    1    2    0    0  0.16516768193E+02  0.26135482916E+02  0.78007825267E+01  0.31886036236E+02  0.00000000000E+00 0.  1.
         11    1    3    3    0    0 -0.28040624351E+02 -0.17947031621E+02  0.27080889885E+01  0.33402190111E+02  0.51100000000E-03 0.  1.
        -11    1    3    3    0    0 -0.23733869160E+01  0.24252799098E+01 -0.73971740247E+01  0.81383740334E+01  0.51100000000E-03 0. -1.
        -12    1    3    3    0    0  0.13897243074E+02 -0.10613731206E+02 -0.31116974905E+01  0.17761399619E+02  0.00000000000E+00 0.  1.
</event>
<event>
 7    1  0.6489567E-013  0.5930195E+02  0.7816164E-02  0.1266605E+00
        -11   -1    0    0    0    0  0.00000000000E+00  0.00000000000E+00  0.45593999997E+02  0.45594000000E+02  0.51100000000E-03 0. -1.
         11   -1    0    0    0    0 -0.00000000000E+00 -0.00000000000E+00 -0.45593999997E+02  0.45594000000E+02  0.51100000000E-03 0.  1.
    9900012    2    1    2    0    0  0.17262533057E+01 -0.30819701105E+02  0.79928946762E+01  0.59301948316E+02  0.50000007822E+02 0.  0.
        -12    1    1    2    0    0 -0.17262533057E+01  0.30819701105E+02 -0.79928946762E+01  0.31886051684E+02  0.00000000000E+00 0.  1.
         11    1    3    3    0    0  0.41137562893E+01 -0.23569859594E+02  0.68365557948E+01  0.24883724952E+02  0.51100000000E-03 0. -1.
        -11    1    3    3    0    0 -0.71654178850E+01 -0.97983991330E+01  0.15150058517E+02  0.19413297308E+02  0.51100000000E-03 0.  1.
        -12    1    3    3    0    0  0.47779149013E+01  0.25485576219E+01 -0.13993719635E+02  0.15004926057E+02  0.00000000000E+00 0.  1.
</event>
<event>
 7    1  0.6489567E-013  0.5930198E+02  0.7816164E-02  0.1266605E+00
        -11   -1    0    0    0    0  0.00000000000E+00  0.00000000000E+00  0.45593999997E+02  0.45594000000E+02  0.51100000000E-03 0.  1.
         11   -1    0    0    0    0 -0.00000000000E+00 -0.00000000000E+00 -0.45593999997E+02  0.45594000000E+02  0.51100000000E-03 0. -1.
    9900012    2    1    2    0    0 -0.18575913854E+02 -0.14701479565E+02 -0.21342915022E+02  0.59301982711E+02  0.50000070550E+02 0.  0.
        -12    1    1    2    0    0  0.18575913854E+02  0.14701479565E+02  0.21342915022E+02  0.31886017289E+02  0.00000000000E+00 0.  1.
         11    1    3    3    0    0  0.87318259614E+00  0.37835523177E+01  0.11637157347E+02  0.12267890909E+02  0.51100000000E-03 0. -1.
        -11    1    3    3    0    0  0.71812116931E+00 -0.82191509123E+01 -0.16955755671E+01  0.84228924069E+01  0.51100000000E-03 0.  1.
         12    1    3    3    0    0 -0.20167217619E+02 -0.10265880970E+02 -0.31284496802E+02  0.38611199395E+02  0.00000000000E+00 0. -1.
</event>
<event>
 7    1  0.6489567E-013  0.5930222E+02  0.7816164E-02  0.1266604E+00
        -11   -1    0    0    0    0  0.00000000000E+00  0.00000000000E+00  0.45593999997E+02  0.45594000000E+02  0.51100000000E-03 0. -1.
         11   -1    0    0    0    0 -0.00000000000E+00 -0.00000000000E+00 -0.45593999997E+02  0.45594000000E+02  0.51100000000E-03 0.  1.
    9900012    2    1    2    0    0  0.26707585606E+02 -0.15555287734E+02  0.78384308145E+01  0.59302217855E+02  0.50000499392E+02 0.  0.
        -12    1    1    2    0    0 -0.26707585606E+02  0.15555287734E+02 -0.78384308145E+01  0.31885782145E+02  0.00000000000E+00 0.  1.
         11    1    3    3    0    0  0.16100647161E+02 -0.13906664155E+02 -0.97456369368E+01  0.23400931317E+02  0.51100000000E-03 0. -1.
        -11    1    3    3    0    0  0.16095842190E+02 -0.63165366912E+01  0.43094352590E+00  0.17296256363E+02  0.51100000000E-03 0.  1.
        -12    1    3    3    0    0 -0.54889037456E+01  0.46679131117E+01  0.17153124225E+02  0.18605030176E+02  0.00000000000E+00 0.  1.
</event>
<event>
 7    1  0.6489567E-013  0.5930200E+02  0.7816164E-02  0.1266605E+00
        -11   -1    0    0    0    0  0.00000000000E+00  0.00000000000E+00  0.45593999997E+02  0.45594000000E+02  0.51100000000E-03 0.  1.
         11   -1    0    0    0    0 -0.00000000000E+00 -0.00000000000E+00 -0.45593999997E+02  0.45594000000E+02  0.51100000000E-03 0. -1.
    9900012    2    1    2    0    0  0.77457327568E+01  0.25506931577E+02 -0.17496201775E+02  0.59301999765E+02  0.50000101652E+02 0.  0.
        -12    1    1    2    0    0 -0.77457327568E+01 -0.25506931577E+02  0.17496201775E+02  0.31886000235E+02  0.00000000000E+00 0.  1.
         11    1    3    3    0    0 -0.94522375843E+01  0.23730694078E+01  0.20645915684E+01  0.99618669118E+01  0.51100000000E-03 0. -1.
        -11    1    3    3    0    0 -0.91197810776E+01  0.15026410084E+02 -0.54862478200E+01  0.18413645004E+02  0.51100000000E-03 0.  1.
         12    1    3    3    0    0  0.26317751419E+02  0.81074520850E+01 -0.14074545523E+02  0.30926487850E+02  0.00000000000E+00 0. -1.
</event>
<event>
 7    1  0.6489567E-013  0.5930194E+02  0.7816164E-02  0.1266605E+00
        -11   -1    0    0    0    0  0.00000000000E+00  0.00000000000E+00  0.45593999997E+02  0.45594000000E+02  0.51100000000E-03 0. -1.
         11   -1    0    0    0    0 -0.00000000000E+00 -0.00000000000E+00 -0.45593999997E+02  0.45594000000E+02  0.51100000000E-03 0.  1.
    9900012    2    1    2    0    0 -0.19883379778E+02  0.24897590930E+02 -0.12173450723E+01  0.59301941063E+02  0.49999994594E+02 0.  0.
        -12    1    1    2    0    0  0.19883379778E+02 -0.24897590930E+02  0.12173450723E+01  0.31886058937E+02  0.00000000000E+00 0.  1.
         11    1    3    3    0    0  0.32150411739E+01  0.49077238114E+01 -0.33874339230E+01  0.67747288951E+01  0.51100000000E-03 0. -1.
        -11    1    3    3    0    0 -0.12759196287E+02  0.19159245213E+02 -0.18413636455E+02  0.29477716580E+02  0.51100000000E-03 0.  1.
         12    1    3    3    0    0 -0.10339224664E+02  0.83062190495E+00  0.20583725305E+02  0.23049495588E+02  0.00000000000E+00 0. -1.
</event>
<event>
 7    1  0.6489567E-013  0.5930194E+02  0.7816164E-02  0.1266605E+00
        -11   -1    0    0    0    0  0.00000000000E+00  0.00000000000E+00  0.45593999997E+02  0.45594000000E+02  0.51100000000E-03 0.  1.
         11   -1    0    0    0    0 -0.00000000000E+00 -0.00000000000E+00 -0.45593999997E+02  0.45594000000E+02  0.51100000000E-03 0. -1.
    9900012    2    1    2    0    0 -0.17051605625E+02  0.16489252171E+02 -0.21308872066E+02  0.59301941600E+02  0.49999995572E+02 0.  0.
        -12    1    1    2    0    0  0.17051605625E+02 -0.16489252171E+02  0.21308872066E+02  0.31886058400E+02  0.00000000000E+00 0.  1.
         11    1    3    3    0    0 -0.23825618677E+02 -0.25145996169E+01 -0.59409197792E+01  0.24683554134E+02  0.51100000000E-03 0. -1.
        -11    1    3    3    0    0 -0.43845807034E+01  0.17702480540E+02 -0.14593509914E+02  0.23357501945E+02  0.51100000000E-03 0.  1.
        -12    1    3    3    0    0  0.11158593756E+02  0.13013712477E+01 -0.77444237318E+00  0.11260885521E+02  0.00000000000E+00 0.  1.
</event>
<event>
 7    1  0.6489567E-013  0.5930183E+02  0.7816164E-02  0.1266605E+00
        -11   -1    0    0    0    0  0.00000000000E+00  0.00000000000E+00  0.45593999997E+02  0.45594000000E+02  0.51100000000E-03 0.  1.
         11   -1    0    0    0    0 -0.00000000000E+00 -0.00000000000E+00 -0.45593999997E+02  0.45594000000E+02  0.51100000000E-03 0. -1.
    9900012    2    1    2    0    0  0.80894908554E+01  0.17378690731E+02 -0.25480764773E+02  0.59301825453E+02  0.49999783748E+02 0.  0.
        -12    1    1    2    0    0 -0.80894908554E+01 -0.17378690731E+02  0.25480764773E+02  0.31886174547E+02  0.00000000000E+00 0.  1.
         11    1    3    3    0    0 -0.36259116619E+00 -0.11248720678E+00  0.49493763435E+01  0.49639150050E+01  0.51100000000E-03 0. -1.
        -11    1    3    3    0    0 -0.14408560619E+02 -0.23045280455E+01 -0.12260698464E+02  0.19058913813E+02  0.51100000000E-03 0.  1.
         12    1    3    3    0    0  0.22860642640E+02  0.19795705984E+02 -0.18169442652E+02  0.35278996636E+02  0.00000000000E+00 0. -1.
</event>
<event>
 7    1  0.6489567E-013  0.5930195E+02  0.7816164E-02  0.1266605E+00
        -11   -1    0    0    0    0  0.00000000000E+00  0.00000000000E+00  0.45593999997E+02  0.45594000000E+02  0.51100000000E-03 0. -1.
         11   -1    0    0    0    0 -0.00000000000E+00 -0.00000000000E+00 -0.45593999997E+02  0.45594000000E+02  0.51100000000E-03 0.  1.
    9900012    2    1    2    0    0 -0.71703619344E+01 -0.26509283871E+02  0.16203832195E+02  0.59301946631E+02  0.50000004749E+02 0.  0.
        -12    1    1    2    0    0  0.71703619344E+01  0.26509283871E+02 -0.16203832195E+02  0.31886053369E+02  0.00000000000E+00 0.  1.
         11    1    3    3    0    0 -0.41399651167E+00 -0.20535316869E+02 -0.11709406170E+02  0.23642775326E+02  0.51100000000E-03 0.  1.
        -11    1    3    3    0    0  0.71093206593E+01 -0.30973232537E+01  0.12656720594E+02  0.14843464152E+02  0.51100000000E-03 0. -1.
         12    1    3    3    0    0 -0.13865686082E+02 -0.28766437486E+01  0.15256517771E+02  0.20815707153E+02  0.00000000000E+00 0. -1.
</event>
<event>
 7    1  0.6489567E-013  0.5930192E+02  0.7816164E-02  0.1266605E+00
        -11   -1    0    0    0    0  0.00000000000E+00  0.00000000000E+00  0.45593999997E+02  0.45594000000E+02  0.51100000000E-03 0.  1.
         11   -1    0    0    0    0 -0.00000000000E+00 -0.00000000000E+00 -0.45593999997E+02  0.45594000000E+02  0.51100000000E-03 0. -1.
    9900012    2    1    2    0    0  0.91920175470E+01  0.74123492145E+01 -0.29619019272E+02  0.59301915103E+02  0.49999947248E+02 0.  0.
        -12    1    1    2    0    0 -0.91920175470E+01 -0.74123492145E+01  0.29619019272E+02  0.31886084897E+02  0.00000000000E+00 0.  1.
         11    1    3    3    0    0  0.19199487244E+02 -0.17339850589E+01 -0.20089011959E+02  0.27842331375E+02  0.51100000000E-03 0. -1.
        -11    1    3    3    0    0  0.64477254988E+01  0.11636363666E+02 -0.34737919174E+01  0.13749376495E+02  0.51100000000E-03 0.  1.
        -12    1    3    3    0    0 -0.16455195196E+02 -0.24900293921E+01 -0.60562153950E+01  0.17710207233E+02  0.00000000000E+00 0.  1.
</event>
<event>
 7    1  0.6489567E-013  0.5930233E+02  0.7816164E-02  0.1266603E+00
        -11   -1    0    0    0    0  0.00000000000E+00  0.00000000000E+00  0.45593999997E+02  0.45594000000E+02  0.51100000000E-03 0.  1.
         11   -1    0    0    0    0 -0.00000000000E+00 -0.00000000000E+00 -0.45593999997E+02  0.45594000000E+02  0.51100000000E-03 0. -1.
    9900012    2    1    2    0    0 -0.11312591028E+02 -0.25126712366E+02 -0.16042742830E+02  0.59302329431E+02  0.50000702879E+02 0.  0.
        -12    1    1    2    0    0  0.11312591028E+02  0.25126712366E+02  0.16042742830E+02  0.31885670569E+02  0.00000000000E+00 0.  1.
         11    1    3    3    0    0 -0.14485916907E+02 -0.17251149819E+02 -0.33111586130E+01  0.22768568913E+02  0.51100000000E-03 0. -1.
        -11    1    3    3    0    0  0.15884419352E+02 -0.26144119656E+01  0.21806799018E+01  0.16245162147E+02  0.51100000000E-03 0.  1.
         12    1    3    3    0    0 -0.12711093473E+02 -0.52611505812E+01 -0.14912264119E+02  0.20288598372E+02  0.00000000000E+00 0. -1.
</event>
<event>
 7    1  0.6489567E-013  0.5930197E+02  0.7816164E-02  0.1266605E+00
        -11   -1    0    0    0    0  0.00000000000E+00  0.00000000000E+00  0.45593999997E+02  0.45594000000E+02  0.51100000000E-03 0. -1.
         11   -1    0    0    0    0 -0.00000000000E+00 -0.00000000000E+00 -0.45593999997E+02  0.45594000000E+02  0.51100000000E-03 0.  1.
    9900012    2    1    2    0    0  0.13448312683E+02  0.26546237369E+02 -0.11452474898E+02  0.59301968360E+02  0.50000044376E+02 0.  0.
        -12    1    1    2    0    0 -0.13448312683E+02 -0.26546237369E+02  0.11452474898E+02  0.31886031640E+02  0.00000000000E+00 0.  1.
         11    1    3    3    0    0  0.14688386039E+02  0.79818100397E+01  0.65926263434E+01  0.17969994388E+02  0.51100000000E-03 0. -1.
        -11    1    3    3    0    0  0.98110710329E+01 -0.42873829958E+01 -0.10138331738E+02  0.14745322596E+02  0.51100000000E-03 0.  1.
        -12    1    3    3    0    0 -0.11051144389E+02  0.22851810325E+02 -0.79067695035E+01  0.26586651377E+02  0.00000000000E+00 0.  1.
</event>
<event>
 7    1  0.6489567E-013  0.5930186E+02  0.7816164E-02  0.1266605E+00
        -11   -1    0    0    0    0  0.00000000000E+00  0.00000000000E+00  0.45593999997E+02  0.45594000000E+02  0.51100000000E-03 0.  1.
         11   -1    0    0    0    0 -0.00000000000E+00 -0.00000000000E+00 -0.45593999997E+02  0.45594000000E+02  0.51100000000E-03 0. -1.
    9900012    2    1    2    0    0 -0.23731586764E+02  0.10549906289E+02 -0.18499655185E+02  0.59301859202E+02  0.49999845298E+02 0.  0.
        -12    1    1    2    0    0  0.23731586764E+02 -0.10549906289E+02  0.18499655185E+02  0.31886140798E+02  0.00000000000E+00 0.  1.
         11    1    3    3    0    0 -0.88654524026E+01  0.12791481771E+02  0.13104204563E+01  0.15618433155E+02  0.51100000000E-03 0. -1.
        -11    1    3    3    0    0  0.12369220027E+01 -0.65038939368E+01  0.85376547904E+01  0.10803803125E+02  0.51100000000E-03 0.  1.
         12    1    3    3    0    0 -0.16103056364E+02  0.42623184551E+01 -0.28347730431E+02  0.32879622922E+02  0.00000000000E+00 0. -1.
</event>
<event>
 7    1  0.6489567E-013  0.5930198E+02  0.7816164E-02  0.1266605E+00
        -11   -1    0    0    0    0  0.00000000000E+00  0.00000000000E+00  0.45593999997E+02  0.45594000000E+02  0.51100000000E-03 0.  1.
         11   -1    0    0    0    0 -0.00000000000E+00 -0.00000000000E+00 -0.45593999997E+02  0.45594000000E+02  0.51100000000E-03 0. -1.
    9900012    2    1    2    0    0  0.33751097737E+01  0.20047577431E+02 -0.24564637662E+02  0.59301981899E+02  0.50000069069E+02 0.  0.
        -12    1    1    2    0    0 -0.33751097737E+01 -0.20047577431E+02  0.24564637662E+02  0.31886018101E+02  0.00000000000E+00 0.  1.
         11    1    3    3    0    0 -0.77498777395E+01  0.92422320345E+01 -0.23173047017E+02  0.26124118479E+02  0.51100000000E-03 0. -1.
        -11    1    3    3    0    0  0.14720717621E+02  0.62104539012E+01 -0.12728582683E+02  0.20427581411E+02  0.51100000000E-03 0.  1.
         12    1    3    3    0    0 -0.35957301077E+01  0.45948914951E+01  0.11336992038E+02  0.12750282010E+02  0.00000000000E+00 0. -1.
</event>
<event>
 7    1  0.6489567E-013  0.5930195E+02  0.7816164E-02  0.1266605E+00
        -11   -1    0    0    0    0  0.00000000000E+00  0.00000000000E+00  0.45593999997E+02  0.45594000000E+02  0.51100000000E-03 0.  1.
         11   -1    0    0    0    0 -0.00000000000E+00 -0.00000000000E+00 -0.45593999997E+02  0.45594000000E+02  0.51100000000E-03 0. -1.
    9900012    2    1    2    0    0  0.79688711193E+01  0.24393729619E+02 -0.18925200738E+02  0.59301950157E+02  0.50000011178E+02 0.  0.
        -12    1    1    2    0    0 -0.79688711193E+01 -0.24393729619E+02  0.18925200738E+02  0.31886049843E+02  0.00000000000E+00 0.  1.
         11    1    3    3    0    0 -0.38900428079E+01  0.27602635992E+01 -0.15130595530E+02  0.15864627621E+02  0.51100000000E-03 0. -1.
        -11    1    3    3    0    0  0.76829078692E+01  0.54347462841E+01 -0.18762371395E+02  0.20990238710E+02  0.51100000000E-03 0.  1.
        -12    1    3    3    0    0  0.41760060580E+01  0.16198719735E+02  0.14967766187E+02  0.22447083826E+02  0.00000000000E+00 0.  1.
</event>
<event>
 7    1  0.6489567E-013  0.5930196E+02  0.7816164E-02  0.1266605E+00
        -11   -1    0    0    0    0  0.00000000000E+00  0.00000000000E+00  0.45593999997E+02  0.45594000000E+02  0.51100000000E-03 0.  1.
         11   -1    0    0    0    0 -0.00000000000E+00 -0.00000000000E+00 -0.45593999997E+02  0.45594000000E+02  0.51100000000E-03 0. -1.
    9900012    2    1    2    0    0  0.17978636886E+02  0.11428483433E+01 -0.26309347169E+02  0.59301964890E+02  0.50000038047E+02 0.  0.
        -12    1    1    2    0    0 -0.17978636886E+02 -0.11428483433E+01  0.26309347169E+02  0.31886035110E+02  0.00000000000E+00 0.  1.
         11    1    3    3    0    0  0.51273723654E+01  0.80073666313E+01  0.26582409210E+01  0.98728978925E+01  0.51100000000E-03 0. -1.
        -11    1    3    3    0    0  0.11755131081E+01  0.14644803588E+02 -0.16036224042E+02  0.21748852498E+02  0.51100000000E-03 0.  1.
         12    1    3    3    0    0  0.11675751412E+02 -0.21509321876E+02 -0.12931364048E+02  0.27680214499E+02  0.00000000000E+00 0. -1.
</event>
<event>
 7    1  0.6489567E-013  0.5930196E+02  0.7816164E-02  0.1266605E+00
        -11   -1    0    0    0    0  0.00000000000E+00  0.00000000000E+00  0.45593999997E+02  0.45594000000E+02  0.51100000000E-03 0. -1.
         11   -1    0    0    0    0 -0.00000000000E+00 -0.00000000000E+00 -0.45593999997E+02  0.45594000000E+02  0.51100000000E-03 0.  1.
    9900012    2    1    2    0    0  0.21676676179E+02 -0.21988919446E+02  0.79579355844E+01  0.59301959052E+02  0.50000027400E+02 0.  0.
        -12    1    1    2    0    0 -0.21676676179E+02  0.21988919446E+02 -0.79579355844E+01  0.31886040948E+02  0.00000000000E+00 0.  1.
         11    1    3    3    0    0  0.56184281581E+01 -0.26327917837E+02 -0.56253340964E+01  0.27502188578E+02  0.51100000000E-03 0. -1.
        -11    1    3    3    0    0  0.16914341414E+01 -0.21789838025E+01 -0.60288061374E+01  0.66298886544E+01  0.51100000000E-03 0.  1.
         12    1    3    3    0    0  0.14366813879E+02  0.65179821933E+01  0.19612075818E+02  0.25169881820E+02  0.00000000000E+00 0. -1.
</event>
<event>
 7    1  0.6489567E-013  0.5930192E+02  0.7816164E-02  0.1266605E+00
        -11   -1    0    0    0    0  0.00000000000E+00  0.00000000000E+00  0.45593999997E+02  0.45594000000E+02  0.51100000000E-03 0.  1.
         11   -1    0    0    0    0 -0.00000000000E+00 -0.00000000000E+00 -0.45593999997E+02  0.45594000000E+02  0.51100000000E-03 0. -1.
    9900012    2    1    2    0    0  0.13194455285E+02 -0.18055198309E+01 -0.28971855213E+02  0.59301922370E+02  0.49999960501E+02 0.  0.
        -12    1    1    2    0    0 -0.13194455285E+02  0.18055198309E+01  0.28971855213E+02  0.31886077630E+02  0.00000000000E+00 0.  1.
         11    1    3    3    0    0  0.32562081803E+01  0.68447797565E+01 -0.98694298094E+01  0.12444257577E+02  0.51100000000E-03 0. -1.
        -11    1    3    3    0    0  0.18287407485E+02  0.98923631344E+01 -0.31868952168E+01  0.21034362893E+02  0.51100000000E-03 0.  1.
        -12    1    3    3    0    0 -0.83491603803E+01 -0.18542662722E+02 -0.15915530187E+02  0.25823301900E+02  0.00000000000E+00 0.  1.
</event>
<event>
 7    1  0.6489567E-013  0.5930194E+02  0.7816164E-02  0.1266605E+00
        -11   -1    0    0    0    0  0.00000000000E+00  0.00000000000E+00  0.45593999997E+02  0.45594000000E+02  0.51100000000E-03 0.  1.
         11   -1    0    0    0    0 -0.00000000000E+00 -0.00000000000E+00 -0.45593999997E+02  0.45594000000E+02  0.51100000000E-03 0. -1.
    9900012    2    1    2    0    0 -0.22118167663E+02  0.68636667432E+01 -0.21917968906E+02  0.59301943127E+02  0.49999998358E+02 0.  0.
        -12    1    1    2    0    0  0.22118167663E+02 -0.68636667432E+01  0.21917968906E+02  0.31886056873E+02  0.00000000000E+00 0.  1.
         11    1    3    3    0    0 -0.19195035881E+02 -0.90956288011E+01 -0.71556530038E+00  0.21253044481E+02  0.51100000000E-03 0. -1.
        -11    1    3    3    0    0 -0.10382247488E+02  0.20389586896E+02 -0.16191294126E+02  0.28030061050E+02  0.51100000000E-03 0.  1.
        -12    1    3    3    0    0  0.74591157059E+01 -0.44302913520E+01 -0.50111094792E+01  0.10018837597E+02  0.00000000000E+00 0.  1.
</event>
<event>
 7    1  0.6489567E-013  0.5930193E+02  0.7816164E-02  0.1266605E+00
        -11   -1    0    0    0    0  0.00000000000E+00  0.00000000000E+00  0.45593999997E+02  0.45594000000E+02  0.51100000000E-03 0.  1.
         11   -1    0    0    0    0 -0.00000000000E+00 -0.00000000000E+00 -0.45593999997E+02  0.45594000000E+02  0.51100000000E-03 0. -1.
    9900012    2    1    2    0    0  0.18407675920E+02 -0.24977439162E+02 -0.73488951579E+01  0.59301933138E+02  0.49999980139E+02 0.  0.
        -12    1    1    2    0    0 -0.18407675920E+02  0.24977439162E+02  0.73488951579E+01  0.31886066862E+02  0.00000000000E+00 0.  1.
         11    1    3    3    0    0  0.23271287920E+02 -0.89138148702E+01 -0.13389007594E+02  0.28289122674E+02  0.51100000000E-03 0. -1.
        -11    1    3    3    0    0  0.45467118767E+01  0.51488995062E+01 -0.54444231329E+00  0.68905858030E+01  0.51100000000E-03 0.  1.
        -12    1    3    3    0    0 -0.94103238768E+01 -0.21212523798E+02  0.65845547498E+01  0.24122224661E+02  0.00000000000E+00 0.  1.
</event>
<event>
 7    1  0.6489567E-013  0.5930193E+02  0.7816164E-02  0.1266605E+00
        -11   -1    0    0    0    0  0.00000000000E+00  0.00000000000E+00  0.45593999997E+02  0.45594000000E+02  0.51100000000E-03 0.  1.
         11   -1    0    0    0    0 -0.00000000000E+00 -0.00000000000E+00 -0.45593999997E+02  0.45594000000E+02  0.51100000000E-03 0. -1.
    9900012    2    1    2    0    0  0.26524305309E+02 -0.31977642198E+01 -0.17405659307E+02  0.59301930251E+02  0.49999974874E+02 0.  0.
        -12    1    1    2    0    0 -0.26524305309E+02  0.31977642198E+01  0.17405659307E+02  0.31886069749E+02  0.00000000000E+00 0.  1.
         11    1    3    3    0    0  0.29658924856E+02 -0.47228161657E+01 -0.17699011066E+02  0.34859888254E+02  0.51100000000E-03 0. -1.
        -11    1    3    3    0    0 -0.94362480439E-01 -0.10767345562E+02  0.36017918135E+01  0.11354185980E+02  0.51100000000E-03 0.  1.
        -12    1    3    3    0    0 -0.30402570662E+01  0.12292397508E+02 -0.33084400548E+01  0.13087856017E+02  0.00000000000E+00 0.  1.
</event>
<event>
 7    1  0.6489567E-013  0.5930193E+02  0.7816164E-02  0.1266605E+00
        -11   -1    0    0    0    0  0.00000000000E+00  0.00000000000E+00  0.45593999997E+02  0.45594000000E+02  0.51100000000E-03 0.  1.
         11   -1    0    0    0    0 -0.00000000000E+00 -0.00000000000E+00 -0.45593999997E+02  0.45594000000E+02  0.51100000000E-03 0. -1.
    9900012    2    1    2    0    0 -0.85381340881E+01  0.30379830942E+02 -0.45702831506E+01  0.59301931728E+02  0.49999977568E+02 0.  0.
        -12    1    1    2    0    0  0.85381340881E+01 -0.30379830942E+02  0.45702831506E+01  0.31886068272E+02  0.00000000000E+00 0.  1.
         11    1    3    3    0    0 -0.19940953486E+02  0.30268030633E+02 -0.18013740592E+01  0.36291049214E+02  0.51100000000E-03 0. -1.
        -11    1    3    3    0    0 -0.18896298518E+01 -0.10611919847E+00 -0.83726347264E+01  0.85838787727E+01  0.51100000000E-03 0.  1.
        -12    1    3    3    0    0  0.13292449249E+02  0.21791950776E+00  0.56037256350E+01  0.14427003741E+02  0.00000000000E+00 0.  1.
</event>
<event>
 7    1  0.6489567E-013  0.5930194E+02  0.7816164E-02  0.1266605E+00
        -11   -1    0    0    0    0  0.00000000000E+00  0.00000000000E+00  0.45593999997E+02  0.45594000000E+02  0.51100000000E-03 0. -1.
         11   -1    0    0    0    0 -0.00000000000E+00 -0.00000000000E+00 -0.45593999997E+02  0.45594000000E+02  0.51100000000E-03 0.  1.
    9900012    2    1    2    0    0  0.29181298418E+02  0.11667374731E+02 -0.53893209669E+01  0.59301943628E+02  0.49999999271E+02 0.  0.
        -12    1    1    2    0    0 -0.29181298418E+02 -0.11667374731E+02  0.53893209669E+01  0.31886056372E+02  0.00000000000E+00 0.  1.
         11    1    3    3    0    0  0.90558071107E+01  0.14365963986E+02  0.16601411867E+02  0.23748588167E+02  0.51100000000E-03 0. -1.
        -11    1    3    3    0    0 -0.21944603170E+01  0.40392387155E+01 -0.41917120787E+01  0.62210574580E+01  0.51100000000E-03 0.  1.
        -12    1    3    3    0    0  0.22319951625E+02 -0.67378279709E+01 -0.17799020755E+02  0.29332298003E+02  0.00000000000E+00 0.  1.
</event>
<event>
 7    1  0.6489567E-013  0.5930196E+02  0.7816164E-02  0.1266605E+00
        -11   -1    0    0    0    0  0.00000000000E+00  0.00000000000E+00  0.45593999997E+02  0.45594000000E+02  0.51100000000E-03 0. -1.
         11   -1    0    0    0    0 -0.00000000000E+00 -0.00000000000E+00 -0.45593999997E+02  0.45594000000E+02  0.51100000000E-03 0.  1.
    9900012    2    1    2    0    0  0.45260770477E+01 -0.31134380804E+02 -0.51850466657E+01  0.59301956809E+02  0.50000023310E+02 0.  0.
        -12    1    1    2    0    0 -0.45260770477E+01  0.31134380804E+02  0.51850466657E+01  0.31886043191E+02  0.00000000000E+00 0.  1.
         11    1    3    3    0    0  0.13422114177E+02 -0.35550228316E+02 -0.62040558310E+01  0.38502755633E+02  0.51100000000E-03 0. -1.
        -11    1    3    3    0    0 -0.74050347260E+01 -0.38161426157E+01 -0.56791731539E+01  0.10082186853E+02  0.51100000000E-03 0.  1.
        -12    1    3    3    0    0 -0.14910024030E+01  0.82319901280E+01  0.66981823192E+01  0.10717014324E+02  0.00000000000E+00 0.  1.
</event>
<event>
 7    1  0.6489567E-013  0.5930194E+02  0.7816164E-02  0.1266605E+00
        -11   -1    0    0    0    0  0.00000000000E+00  0.00000000000E+00  0.45593999997E+02  0.45594000000E+02  0.51100000000E-03 0. -1.
         11   -1    0    0    0    0 -0.00000000000E+00 -0.00000000000E+00 -0.45593999997E+02  0.45594000000E+02  0.51100000000E-03 0.  1.
    9900012    2    1    2    0    0  0.26247646828E+02  0.16128150227E+02  0.82258593617E+01  0.59301937904E+02  0.49999988832E+02 0.  0.
        -12    1    1    2    0    0 -0.26247646828E+02 -0.16128150227E+02 -0.82258593617E+01  0.31886062096E+02  0.00000000000E+00 0.  1.
         11    1    3    3    0    0  0.13495390432E+02 -0.12942277953E+02 -0.20445890202E+01  0.18809797076E+02  0.51100000000E-03 0. -1.
        -11    1    3    3    0    0 -0.33861915704E+01  0.21655914898E+01  0.81009969980E+01  0.90433529443E+01  0.51100000000E-03 0.  1.
        -12    1    3    3    0    0  0.16138447966E+02  0.26904836690E+02  0.21694513840E+01  0.31448787884E+02  0.00000000000E+00 0.  1.
</event>
<event>
 7    1  0.6489567E-013  0.5930198E+02  0.7816164E-02  0.1266605E+00
        -11   -1    0    0    0    0  0.00000000000E+00  0.00000000000E+00  0.45593999997E+02  0.45594000000E+02  0.51100000000E-03 0.  1.
         11   -1    0    0    0    0 -0.00000000000E+00 -0.00000000000E+00 -0.45593999997E+02  0.45594000000E+02  0.51100000000E-03 0. -1.
    9900012    2    1    2    0    0 -0.77039243850E+01  0.16512677086E+02 -0.26166764096E+02  0.59301976436E+02  0.50000059104E+02 0.  0.
        -12    1    1    2    0    0  0.77039243850E+01 -0.16512677086E+02  0.26166764096E+02  0.31886023564E+02  0.00000000000E+00 0.  1.
         11    1    3    3    0    0  0.31275496878E+01  0.60831681707E+01 -0.23873424542E+02  0.24833986826E+02  0.51100000000E-03 0. -1.
        -11    1    3    3    0    0  0.91149741861E+01  0.22993265476E+00 -0.70987880603E+01  0.11555449607E+02  0.51100000000E-03 0.  1.
        -12    1    3    3    0    0 -0.19946448259E+02  0.10199576261E+02  0.48054485061E+01  0.22912540003E+02  0.00000000000E+00 0.  1.
</event>
<event>
 7    1  0.6489567E-013  0.5930188E+02  0.7816164E-02  0.1266605E+00
        -11   -1    0    0    0    0  0.00000000000E+00  0.00000000000E+00  0.45593999997E+02  0.45594000000E+02  0.51100000000E-03 0.  1.
         11   -1    0    0    0    0 -0.00000000000E+00 -0.00000000000E+00 -0.45593999997E+02  0.45594000000E+02  0.51100000000E-03 0. -1.
    9900012    2    1    2    0    0 -0.16871839829E+02  0.25350664528E+02  0.94556697853E+01  0.59301876649E+02  0.49999877118E+02 0.  0.
        -12    1    1    2    0    0  0.16871839829E+02 -0.25350664528E+02 -0.94556697853E+01  0.31886123351E+02  0.00000000000E+00 0.  1.
         11    1    3    3    0    0 -0.35216567447E+01 -0.31028308217E+01  0.11857598390E+02  0.12752735596E+02  0.51100000000E-03 0. -1.
        -11    1    3    3    0    0 -0.11073331278E+02  0.16192614390E+02  0.15312429916E+02  0.24885536694E+02  0.51100000000E-03 0.  1.
         12    1    3    3    0    0 -0.22768518067E+01  0.12260880960E+02 -0.17714358520E+02  0.21663604360E+02  0.00000000000E+00 0. -1.
</event>
<event>
 7    1  0.6489567E-013  0.5930195E+02  0.7816164E-02  0.1266605E+00
        -11   -1    0    0    0    0  0.00000000000E+00  0.00000000000E+00  0.45593999997E+02  0.45594000000E+02  0.51100000000E-03 0.  1.
         11   -1    0    0    0    0 -0.00000000000E+00 -0.00000000000E+00 -0.45593999997E+02  0.45594000000E+02  0.51100000000E-03 0. -1.
    9900012    2    1    2    0    0  0.81352914843E+01 -0.23670685524E+02 -0.19754382933E+02  0.59301953432E+02  0.50000017151E+02 0.  0.
        -12    1    1    2    0    0 -0.81352914843E+01  0.23670685524E+02  0.19754382933E+02  0.31886046568E+02  0.00000000000E+00 0.  1.
         11    1    3    3    0    0  0.17549854648E+02  0.49593753224E+01 -0.16072377259E+02  0.24308725034E+02  0.51100000000E-03 0. -1.
        -11    1    3    3    0    0  0.36429006580E+01 -0.75257826799E+01  0.36391941826E+01  0.91187644289E+01  0.51100000000E-03 0.  1.
        -12    1    3    3    0    0 -0.13057463822E+02 -0.21104278166E+02 -0.73211998566E+01  0.25874463969E+02  0.00000000000E+00 0.  1.
</event>
<event>
 7    1  0.6489567E-013  0.5930194E+02  0.7816164E-02  0.1266605E+00
        -11   -1    0    0    0    0  0.00000000000E+00  0.00000000000E+00  0.45593999997E+02  0.45594000000E+02  0.51100000000E-03 0.  1.
         11   -1    0    0    0    0 -0.00000000000E+00 -0.00000000000E+00 -0.45593999997E+02  0.45594000000E+02  0.51100000000E-03 0. -1.
    9900012    2    1    2    0    0 -0.72726298674E+01  0.26069108233E+02 -0.16859162071E+02  0.59301938861E+02  0.49999990577E+02 0.  0.
        -12    1    1    2    0    0  0.72726298674E+01 -0.26069108233E+02  0.16859162071E+02  0.31886061139E+02  0.00000000000E+00 0.  1.
         11    1    3    3    0    0 -0.76482067802E+01 -0.20068636483E+00 -0.15265073273E+02  0.17075063814E+02  0.51100000000E-03 0. -1.
        -11    1    3    3    0    0 -0.98817605672E+01  0.11373600964E+02 -0.13780357956E+02  0.20418282407E+02  0.51100000000E-03 0.  1.
        -12    1    3    3    0    0  0.10257337480E+02  0.14896193633E+02  0.12186269158E+02  0.21808592640E+02  0.00000000000E+00 0.  1.
</event>
<event>
 7    1  0.6489567E-013  0.5930193E+02  0.7816164E-02  0.1266605E+00
        -11   -1    0    0    0    0  0.00000000000E+00  0.00000000000E+00  0.45593999997E+02  0.45594000000E+02  0.51100000000E-03 0.  1.
         11   -1    0    0    0    0 -0.00000000000E+00 -0.00000000000E+00 -0.45593999997E+02  0.45594000000E+02  0.51100000000E-03 0. -1.
    9900012    2    1    2    0    0 -0.16143389480E+02 -0.19026617240E+02  0.19851965605E+02  0.59301925832E+02  0.49999966815E+02 0.  0.
        -12    1    1    2    0    0  0.16143389480E+02  0.19026617240E+02 -0.19851965605E+02  0.31886074168E+02  0.00000000000E+00 0.  1.
         11    1    3    3    0    0 -0.73338974141E+01  0.17181212623E+01 -0.13729553403E+02  0.15660096707E+02  0.51100000000E-03 0. -1.
        -11    1    3    3    0    0  0.37978092939E+01 -0.33389458329E+01  0.12727427382E+02  0.13695229926E+02  0.51100000000E-03 0.  1.
        -12    1    3    3    0    0 -0.12607301359E+02 -0.17405792669E+02  0.20854091626E+02  0.29946599199E+02  0.00000000000E+00 0.  1.
</event>
<event>
 7    1  0.6489567E-013  0.5930191E+02  0.7816164E-02  0.1266605E+00
        -11   -1    0    0    0    0  0.00000000000E+00  0.00000000000E+00  0.45593999997E+02  0.45594000000E+02  0.51100000000E-03 0. -1.
         11   -1    0    0    0    0 -0.00000000000E+00 -0.00000000000E+00 -0.45593999997E+02  0.45594000000E+02  0.51100000000E-03 0.  1.
    9900012    2    1    2    0    0 -0.10243674081E+02  0.80785945845E+01  0.29095118804E+02  0.59301913891E+02  0.49999945038E+02 0.  0.
        -12    1    1    2    0    0  0.10243674081E+02 -0.80785945845E+01 -0.29095118804E+02  0.31886086109E+02  0.00000000000E+00 0.  1.
         11    1    3    3    0    0 -0.88052586349E+01 -0.18867470773E+01 -0.16116493484E+01  0.91482133799E+01  0.51100000000E-03 0. -1.
        -11    1    3    3    0    0 -0.11959587947E+02  0.10185335215E+02 -0.19627074908E+01  0.15831140776E+02  0.51100000000E-03 0.  1.
         12    1    3    3    0    0  0.10521172501E+02 -0.21999355373E+00  0.32669475643E+02  0.34322559735E+02  0.00000000000E+00 0. -1.
</event>
<event>
 7    1  0.6489567E-013  0.5930195E+02  0.7816164E-02  0.1266605E+00
        -11   -1    0    0    0    0  0.00000000000E+00  0.00000000000E+00  0.45593999997E+02  0.45594000000E+02  0.51100000000E-03 0.  1.
         11   -1    0    0    0    0 -0.00000000000E+00 -0.00000000000E+00 -0.45593999997E+02  0.45594000000E+02  0.51100000000E-03 0. -1.
    9900012    2    1    2    0    0 -0.26416682891E+02  0.45352617882E+01 -0.17271666717E+02  0.59301949670E+02  0.50000010291E+02 0.  0.
        -12    1    1    2    0    0  0.26416682891E+02 -0.45352617882E+01  0.17271666717E+02  0.31886050330E+02  0.00000000000E+00 0.  1.
         11    1    3    3    0    0 -0.44591544646E+01  0.77451149091E+01 -0.17745191660E+02  0.19868635856E+02  0.51100000000E-03 0. -1.
        -11    1    3    3    0    0  0.38310170975E+01 -0.78843616670E+00 -0.10573666398E+02  0.11273896618E+02  0.51100000000E-03 0.  1.
        -12    1    3    3    0    0 -0.25788545524E+02 -0.24214169542E+01  0.11047191341E+02  0.28159417196E+02  0.00000000000E+00 0.  1.
</event>
<event>
 7    1  0.6489567E-013  0.5930195E+02  0.7816164E-02  0.1266605E+00
        -11   -1    0    0    0    0  0.00000000000E+00  0.00000000000E+00  0.45593999997E+02  0.45594000000E+02  0.51100000000E-03 0.  1.
         11   -1    0    0    0    0 -0.00000000000E+00 -0.00000000000E+00 -0.45593999997E+02  0.45594000000E+02  0.51100000000E-03 0. -1.
    9900012    2    1    2    0    0  0.14524593398E+02  0.15946869340E+02 -0.23483050141E+02  0.59301951341E+02  0.50000013338E+02 0.  0.
        -12    1    1    2    0    0 -0.14524593398E+02 -0.15946869340E+02  0.23483050141E+02  0.31886048659E+02  0.00000000000E+00 0.  1.
         11    1    3    3    0    0 -0.96585485566E+01  0.18210551329E+02  0.65359273654E+00  0.20623746596E+02  0.51100000000E-03 0. -1.
        -11    1    3    3    0    0 -0.45019486826E+00 -0.52664060616E+01 -0.29782702788E+01  0.60669434099E+01  0.51100000000E-03 0.  1.
         12    1    3    3    0    0  0.24633336823E+02  0.30027240729E+01 -0.21158372599E+02  0.32611261336E+02  0.00000000000E+00 0. -1.
</event>
<event>
 7    1  0.6489567E-013  0.5930194E+02  0.7816164E-02  0.1266605E+00
        -11   -1    0    0    0    0  0.00000000000E+00  0.00000000000E+00  0.45593999997E+02  0.45594000000E+02  0.51100000000E-03 0. -1.
         11   -1    0    0    0    0 -0.00000000000E+00 -0.00000000000E+00 -0.45593999997E+02  0.45594000000E+02  0.51100000000E-03 0.  1.
    9900012    2    1    2    0    0 -0.56549574180E+01 -0.31297674883E+02 -0.22798790214E+01  0.59301939647E+02  0.49999992010E+02 0.  0.
        -12    1    1    2    0    0  0.56549574180E+01  0.31297674883E+02  0.22798790214E+01  0.31886060353E+02  0.00000000000E+00 0.  1.
         11    1    3    3    0    0  0.68618465277E+01 -0.10107164509E+02  0.42856287811E+01  0.12946286205E+02  0.51100000000E-03 0. -1.
        -11    1    3    3    0    0 -0.58314594000E+01  0.33995786595E+01  0.12718562885E+02  0.14398781057E+02  0.51100000000E-03 0.  1.
        -12    1    3    3    0    0 -0.66853445457E+01 -0.24590089033E+02 -0.19284070688E+02  0.31956872385E+02  0.00000000000E+00 0.  1.
</event>
<event>
 7    1  0.6489567E-013  0.5930194E+02  0.7816164E-02  0.1266605E+00
        -11   -1    0    0    0    0  0.00000000000E+00  0.00000000000E+00  0.45593999997E+02  0.45594000000E+02  0.51100000000E-03 0.  1.
         11   -1    0    0    0    0 -0.00000000000E+00 -0.00000000000E+00 -0.45593999997E+02  0.45594000000E+02  0.51100000000E-03 0. -1.
    9900012    2    1    2    0    0  0.19662456756E+02  0.10502121420E+02 -0.22799430525E+02  0.59301940471E+02  0.49999993514E+02 0.  0.
        -12    1    1    2    0    0 -0.19662456756E+02 -0.10502121420E+02  0.22799430525E+02  0.31886059529E+02  0.00000000000E+00 0.  1.
         11    1    3    3    0    0  0.13545869024E+02  0.58520446689E+00 -0.17164802200E+02  0.21873807778E+02  0.51100000000E-03 0. -1.
        -11    1    3    3    0    0  0.20232695849E+02  0.10417162393E+02 -0.20102335024E+01  0.22845574902E+02  0.51100000000E-03 0.  1.
        -12    1    3    3    0    0 -0.14116108117E+02 -0.50024543956E+00 -0.36243948227E+01  0.14582557790E+02  0.00000000000E+00 0.  1.
</event>
<event>
 7    1  0.6489567E-013  0.5930190E+02  0.7816164E-02  0.1266605E+00
        -11   -1    0    0    0    0  0.00000000000E+00  0.00000000000E+00  0.45593999997E+02  0.45594000000E+02  0.51100000000E-03 0.  1.
         11   -1    0    0    0    0 -0.00000000000E+00 -0.00000000000E+00 -0.45593999997E+02  0.45594000000E+02  0.51100000000E-03 0. -1.
    9900012    2    1    2    0    0  0.12683689088E+02  0.29239565159E+02 -0.94604874182E+00  0.59301903535E+02  0.49999926151E+02 0.  0.
        -12    1    1    2    0    0 -0.12683689088E+02 -0.29239565159E+02  0.94604874182E+00  0.31886096465E+02  0.00000000000E+00 0.  1.
         11    1    3    3    0    0 -0.31548679062E+01 -0.80621388929E+01  0.48525286771E+01  0.99246314721E+01  0.51100000000E-03 0.  1.
        -11    1    3    3    0    0  0.25271761362E+01  0.51748680904E+01 -0.12680952282E+02  0.13927398538E+02  0.51100000000E-03 0. -1.
         12    1    3    3    0    0  0.13311380858E+02  0.32126835961E+02  0.68823748635E+01  0.35449873525E+02  0.00000000000E+00 0. -1.
</event>
<event>
 7    1  0.6489567E-013  0.5930190E+02  0.7816164E-02  0.1266605E+00
        -11   -1    0    0    0    0  0.00000000000E+00  0.00000000000E+00  0.45593999997E+02  0.45594000000E+02  0.51100000000E-03 0.  1.
         11   -1    0    0    0    0 -0.00000000000E+00 -0.00000000000E+00 -0.45593999997E+02  0.45594000000E+02  0.51100000000E-03 0. -1.
    9900012    2    1    2    0    0  0.80754953577E+00 -0.31832455780E+02  0.16630588302E+01  0.59301903627E+02  0.49999926319E+02 0.  0.
        -12    1    1    2    0    0 -0.80754953577E+00  0.31832455780E+02 -0.16630588302E+01  0.31886096373E+02  0.00000000000E+00 0.  1.
         11    1    3    3    0    0  0.17775384834E+02 -0.11836598244E+02 -0.40674198819E+01  0.21739670391E+02  0.51100000000E-03 0. -1.
        -11    1    3    3    0    0 -0.68409725940E+01 -0.15277792052E+02  0.15430804123E+02  0.22766632429E+02  0.51100000000E-03 0.  1.
         12    1    3    3    0    0 -0.10126862704E+02 -0.47180654843E+01 -0.97003254114E+01  0.14795600806E+02  0.00000000000E+00 0. -1.
</event>
<event>
 7    1  0.6489567E-013  0.5930196E+02  0.7816164E-02  0.1266605E+00
        -11   -1    0    0    0    0  0.00000000000E+00  0.00000000000E+00  0.45593999997E+02  0.45594000000E+02  0.51100000000E-03 0.  1.
         11   -1    0    0    0    0 -0.00000000000E+00 -0.00000000000E+00 -0.45593999997E+02  0.45594000000E+02  0.51100000000E-03 0. -1.
    9900012    2    1    2    0    0  0.85982904363E+01 -0.21442800190E+02 -0.21977146881E+02  0.59301964445E+02  0.50000037235E+02 0.  0.
        -12    1    1    2    0    0 -0.85982904363E+01  0.21442800190E+02  0.21977146881E+02  0.31886035555E+02  0.00000000000E+00 0.  1.
         11    1    3    3    0    0  0.18835802704E+02 -0.16658694910E+01 -0.82971880976E+01  0.20649598428E+02  0.51100000000E-03 0. -1.
        -11    1    3    3    0    0  0.37292530405E+01  0.29462971411E+01  0.43620236742E+01  0.64509879770E+01  0.51100000000E-03 0.  1.
         12    1    3    3    0    0 -0.13966765308E+02 -0.22723227841E+02 -0.18041982457E+02  0.32201378040E+02  0.00000000000E+00 0. -1.
</event>
<event>
 7    1  0.6489567E-013  0.5930194E+02  0.7816164E-02  0.1266605E+00
        -11   -1    0    0    0    0  0.00000000000E+00  0.00000000000E+00  0.45593999997E+02  0.45594000000E+02  0.51100000000E-03 0.  1.
         11   -1    0    0    0    0 -0.00000000000E+00 -0.00000000000E+00 -0.45593999997E+02  0.45594000000E+02  0.51100000000E-03 0. -1.
    9900012    2    1    2    0    0  0.17098799247E+02  0.24681851991E+01 -0.26800369578E+02  0.59301942179E+02  0.49999996628E+02 0.  0.
        -12    1    1    2    0    0 -0.17098799247E+02 -0.24681851991E+01  0.26800369578E+02  0.31886057821E+02  0.00000000000E+00 0.  1.
         11    1    3    3    0    0  0.42859432814E+01  0.12003963585E+01 -0.16775877135E+02  0.17356275958E+02  0.51100000000E-03 0.  1.
        -11    1    3    3    0    0  0.11346983417E+02  0.18833820235E+02 -0.10380353365E+02  0.24314986193E+02  0.51100000000E-03 0. -1.
        -12    1    3    3    0    0  0.14658725485E+01 -0.17566031394E+02  0.35586092202E+00  0.17630680028E+02  0.00000000000E+00 0.  1.
</event>
<event>
 7    1  0.6489567E-013  0.5930194E+02  0.7816164E-02  0.1266605E+00
        -11   -1    0    0    0    0  0.00000000000E+00  0.00000000000E+00  0.45593999997E+02  0.45594000000E+02  0.51100000000E-03 0.  1.
         11   -1    0    0    0    0 -0.00000000000E+00 -0.00000000000E+00 -0.45593999997E+02  0.45594000000E+02  0.51100000000E-03 0. -1.
    9900012    2    1    2    0    0  0.14719306110E+02 -0.27303411184E+02 -0.73882697016E+01  0.59301940918E+02  0.49999994328E+02 0.  0.
        -12    1    1    2    0    0 -0.14719306110E+02  0.27303411184E+02  0.73882697016E+01  0.31886059082E+02  0.00000000000E+00 0.  1.
         11    1    3    3    0    0  0.50416367799E+01 -0.16416150447E+02 -0.73491405858E+01  0.18679345934E+02  0.51100000000E-03 0. -1.
        -11    1    3    3    0    0  0.50053271112E+01 -0.92023213878E+01 -0.18633528488E+02  0.21376257918E+02  0.51100000000E-03 0.  1.
        -12    1    3    3    0    0  0.46723422189E+01 -0.16849393486E+01  0.18594399372E+02  0.19246337065E+02  0.00000000000E+00 0.  1.
</event>
<event>
 7    1  0.6489567E-013  0.5930194E+02  0.7816164E-02  0.1266605E+00
        -11   -1    0    0    0    0  0.00000000000E+00  0.00000000000E+00  0.45593999997E+02  0.45594000000E+02  0.51100000000E-03 0. -1.
         11   -1    0    0    0    0 -0.00000000000E+00 -0.00000000000E+00 -0.45593999997E+02  0.45594000000E+02  0.51100000000E-03 0.  1.
    9900012    2    1    2    0    0 -0.27595821172E+02 -0.15054261801E+02  0.53442369074E+01  0.59301937015E+02  0.49999987211E+02 0.  0.
        -12    1    1    2    0    0  0.27595821172E+02  0.15054261801E+02 -0.53442369074E+01  0.31886062985E+02  0.00000000000E+00 0.  1.
         11    1    3    3    0    0  0.42713880384E+00  0.40312042623E+01 -0.30755109309E+01  0.50884008401E+01  0.51100000000E-03 0.  1.
        -11    1    3    3    0    0 -0.14740770414E+02 -0.34434339424E+01 -0.16194303637E+02  0.22167611966E+02  0.51100000000E-03 0. -1.
         12    1    3    3    0    0 -0.13282189562E+02 -0.15642032120E+02  0.24614051475E+02  0.32045924209E+02  0.00000000000E+00 0. -1.
</event>
<event>
 7    1  0.6489567E-013  0.5930194E+02  0.7816164E-02  0.1266605E+00
        -11   -1    0    0    0    0  0.00000000000E+00  0.00000000000E+00  0.45593999997E+02  0.45594000000E+02  0.51100000000E-03 0. -1.
         11   -1    0    0    0    0 -0.00000000000E+00 -0.00000000000E+00 -0.45593999997E+02  0.45594000000E+02  0.51100000000E-03 0.  1.
    9900012    2    1    2    0    0 -0.21285394614E+02  0.18546452344E+02 -0.14821675402E+02  0.59301937526E+02  0.49999988142E+02 0.  0.
        -12    1    1    2    0    0  0.21285394614E+02 -0.18546452344E+02  0.14821675402E+02  0.31886062474E+02  0.00000000000E+00 0.  1.
         11    1    3    3    0    0 -0.16662979461E+02  0.45379856651E+01  0.11705964958E+02  0.20863312639E+02  0.51100000000E-03 0. -1.
        -11    1    3    3    0    0  0.81426755656E+01 -0.89766174237E+00 -0.79158895068E+01  0.11391675422E+02  0.51100000000E-03 0.  1.
         12    1    3    3    0    0 -0.12765090718E+02  0.14906128421E+02 -0.18611750853E+02  0.27046949465E+02  0.00000000000E+00 0. -1.
</event>
<event>
 7    1  0.6489567E-013  0.5930195E+02  0.7816164E-02  0.1266605E+00
        -11   -1    0    0    0    0  0.00000000000E+00  0.00000000000E+00  0.45593999997E+02  0.45594000000E+02  0.51100000000E-03 0. -1.
         11   -1    0    0    0    0 -0.00000000000E+00 -0.00000000000E+00 -0.45593999997E+02  0.45594000000E+02  0.51100000000E-03 0.  1.
    9900012    2    1    2    0    0 -0.74147868972E+01 -0.30626460758E+02  0.48745442390E+01  0.59301947487E+02  0.50000006309E+02 0.  0.
        -12    1    1    2    0    0  0.74147868972E+01  0.30626460758E+02 -0.48745442390E+01  0.31886052513E+02  0.00000000000E+00 0.  1.
         11    1    3    3    0    0  0.12630387903E+01 -0.24270808371E+02  0.23297948200E+01  0.24415064000E+02  0.51100000000E-03 0. -1.
        -11    1    3    3    0    0 -0.15006102886E+02 -0.16209703828E+02 -0.23092940214E+01  0.22209692955E+02  0.51100000000E-03 0.  1.
         12    1    3    3    0    0  0.63282771983E+01  0.98540514401E+01  0.48540434404E+01  0.12677190533E+02  0.00000000000E+00 0. -1.
</event>
<event>
 7    1  0.6489567E-013  0.5930195E+02  0.7816164E-02  0.1266605E+00
        -11   -1    0    0    0    0  0.00000000000E+00  0.00000000000E+00  0.45593999997E+02  0.45594000000E+02  0.51100000000E-03 0.  1.
         11   -1    0    0    0    0 -0.00000000000E+00 -0.00000000000E+00 -0.45593999997E+02  0.45594000000E+02  0.51100000000E-03 0. -1.
    9900012    2    1    2    0    0 -0.37037837350E+01  0.31203125203E+02 -0.54191627560E+01  0.59301947228E+02  0.50000005837E+02 0.  0.
        -12    1    1    2    0    0  0.37037837350E+01 -0.31203125203E+02  0.54191627560E+01  0.31886052772E+02  0.00000000000E+00 0.  1.
         11    1    3    3    0    0  0.75098576954E+00  0.56404423231E+01  0.81255759301E+01  0.99198565354E+01  0.51100000000E-03 0. -1.
        -11    1    3    3    0    0 -0.14041328417E+02  0.11877302577E+02  0.96708280794E+01  0.20778694285E+02  0.51100000000E-03 0.  1.
         12    1    3    3    0    0  0.95865589122E+01  0.13685380303E+02 -0.23215566765E+02  0.28603396408E+02  0.00000000000E+00 0. -1.
</event>
<event>
 7    1  0.6489567E-013  0.5930205E+02  0.7816164E-02  0.1266604E+00
        -11   -1    0    0    0    0  0.00000000000E+00  0.00000000000E+00  0.45593999997E+02  0.45594000000E+02  0.51100000000E-03 0. -1.
         11   -1    0    0    0    0 -0.00000000000E+00 -0.00000000000E+00 -0.45593999997E+02  0.45594000000E+02  0.51100000000E-03 0.  1.
    9900012    2    1    2    0    0 -0.12827938008E+02  0.22121063096E+01  0.29107808485E+02  0.59302048193E+02  0.50000189972E+02 0.  0.
        -12    1    1    2    0    0  0.12827938008E+02 -0.22121063096E+01 -0.29107808485E+02  0.31885951807E+02  0.00000000000E+00 0.  1.
         11    1    3    3    0    0 -0.22099946263E+02 -0.12156668520E+02  0.28671403364E+02  0.38186929511E+02  0.51100000000E-03 0. -1.
        -11    1    3    3    0    0 -0.13189730936E+01 -0.10516773302E+01 -0.15651159917E+01  0.23011526584E+01  0.51100000000E-03 0.  1.
        -12    1    3    3    0    0  0.10590981349E+02  0.15420452160E+02  0.20015211125E+01  0.18813966023E+02  0.00000000000E+00 0.  1.
</event>
<event>
 7    1  0.6489567E-013  0.5930195E+02  0.7816164E-02  0.1266605E+00
        -11   -1    0    0    0    0  0.00000000000E+00  0.00000000000E+00  0.45593999997E+02  0.45594000000E+02  0.51100000000E-03 0. -1.
         11   -1    0    0    0    0 -0.00000000000E+00 -0.00000000000E+00 -0.45593999997E+02  0.45594000000E+02  0.51100000000E-03 0.  1.
    9900012    2    1    2    0    0 -0.31093060610E+02 -0.20948794038E+01 -0.67493227097E+01  0.59301948271E+02  0.50000007739E+02 0.  0.
        -12    1    1    2    0    0  0.31093060610E+02  0.20948794038E+01  0.67493227097E+01  0.31886051729E+02  0.00000000000E+00 0.  1.
         11    1    3    3    0    0 -0.13326239751E+02  0.61303907857E+01 -0.94162393696E+01  0.17430889857E+02  0.51100000000E-03 0. -1.
        -11    1    3    3    0    0 -0.45337186833E+01 -0.17146215073E+00 -0.16565535653E+02  0.17175592452E+02  0.51100000000E-03 0.  1.
         12    1    3    3    0    0 -0.13233102176E+02 -0.80538080388E+01  0.19232452313E+02  0.24695465962E+02  0.00000000000E+00 0. -1.
</event>
<event>
 7    1  0.6489567E-013  0.5930193E+02  0.7816164E-02  0.1266605E+00
        -11   -1    0    0    0    0  0.00000000000E+00  0.00000000000E+00  0.45593999997E+02  0.45594000000E+02  0.51100000000E-03 0.  1.
         11   -1    0    0    0    0 -0.00000000000E+00 -0.00000000000E+00 -0.45593999997E+02  0.45594000000E+02  0.51100000000E-03 0. -1.
    9900012    2    1    2    0    0  0.33118903723E+01  0.20007348845E+02 -0.24606073487E+02  0.59301929717E+02  0.49999973901E+02 0.  0.
        -12    1    1    2    0    0 -0.33118903723E+01 -0.20007348845E+02  0.24606073487E+02  0.31886070283E+02  0.00000000000E+00 0.  1.
         11    1    3    3    0    0 -0.66005576299E-01  0.21474682855E+02 -0.35786490543E+01  0.21770923035E+02  0.51100000000E-03 0. -1.
        -11    1    3    3    0    0  0.81554472884E+01  0.44380912892E+01  0.49107287966E+01  0.10503486675E+02  0.51100000000E-03 0.  1.
         12    1    3    3    0    0 -0.47775513399E+01 -0.59054252997E+01 -0.25938153229E+02  0.27027520007E+02  0.00000000000E+00 0. -1.
</event>
<event>
 7    1  0.6489567E-013  0.5930196E+02  0.7816164E-02  0.1266605E+00
        -11   -1    0    0    0    0  0.00000000000E+00  0.00000000000E+00  0.45593999997E+02  0.45594000000E+02  0.51100000000E-03 0.  1.
         11   -1    0    0    0    0 -0.00000000000E+00 -0.00000000000E+00 -0.45593999997E+02  0.45594000000E+02  0.51100000000E-03 0. -1.
    9900012    2    1    2    0    0  0.30366402470E+02  0.72300625061E+01 -0.65059343389E+01  0.59301962547E+02  0.50000033774E+02 0.  0.
        -12    1    1    2    0    0 -0.30366402470E+02 -0.72300625061E+01  0.65059343389E+01  0.31886037453E+02  0.00000000000E+00 0.  1.
         11    1    3    3    0    0  0.19956535561E+00 -0.95292192864E+01 -0.82041169494E+01  0.12575904807E+02  0.51100000000E-03 0. -1.
        -11    1    3    3    0    0 -0.24885478665E+01  0.13154065795E+02 -0.24555258088E+01  0.13610728294E+02  0.51100000000E-03 0.  1.
         12    1    3    3    0    0  0.32655384981E+02  0.36052159972E+01  0.41537084193E+01  0.33115329446E+02  0.00000000000E+00 0. -1.
</event>
<event>
 7    1  0.6489567E-013  0.5930193E+02  0.7816164E-02  0.1266605E+00
        -11   -1    0    0    0    0  0.00000000000E+00  0.00000000000E+00  0.45593999997E+02  0.45594000000E+02  0.51100000000E-03 0. -1.
         11   -1    0    0    0    0 -0.00000000000E+00 -0.00000000000E+00 -0.45593999997E+02  0.45594000000E+02  0.51100000000E-03 0.  1.
    9900012    2    1    2    0    0  0.51218372576E+01  0.14709627742E+02  0.27822921402E+02  0.59301932187E+02  0.49999978406E+02 0.  0.
        -12    1    1    2    0    0 -0.51218372576E+01 -0.14709627742E+02 -0.27822921402E+02  0.31886067813E+02  0.00000000000E+00 0.  1.
         11    1    3    3    0    0 -0.42625557667E+01  0.54816509911E+01  0.19308846673E+02  0.20519489257E+02  0.51100000000E-03 0. -1.
        -11    1    3    3    0    0 -0.49038742690E+01 -0.88645670876E+01  0.11736673487E+02  0.15504129685E+02  0.51100000000E-03 0.  1.
        -12    1    3    3    0    0  0.14288267293E+02  0.18092543838E+02 -0.32225987582E+01  0.23278313245E+02  0.00000000000E+00 0.  1.
</event>
<event>
 7    1  0.6489567E-013  0.5930196E+02  0.7816164E-02  0.1266605E+00
        -11   -1    0    0    0    0  0.00000000000E+00  0.00000000000E+00  0.45593999997E+02  0.45594000000E+02  0.51100000000E-03 0.  1.
         11   -1    0    0    0    0 -0.00000000000E+00 -0.00000000000E+00 -0.45593999997E+02  0.45594000000E+02  0.51100000000E-03 0. -1.
    9900012    2    1    2    0    0 -0.10069683094E+02 -0.28032174064E+02 -0.11380603152E+02  0.59301961857E+02  0.50000032516E+02 0.  0.
        -12    1    1    2    0    0  0.10069683094E+02  0.28032174064E+02  0.11380603152E+02  0.31886038143E+02  0.00000000000E+00 0.  1.
         11    1    3    3    0    0 -0.28338890553E+02 -0.13619714351E+02 -0.64666511302E+01  0.32099951929E+02  0.51100000000E-03 0.  1.
        -11    1    3    3    0    0  0.37481724594E+00 -0.23791986907E+01 -0.50967342288E+01  0.56371778788E+01  0.51100000000E-03 0. -1.
        -12    1    3    3    0    0  0.17894390213E+02 -0.12033261023E+02  0.18278220716E+00  0.21564832049E+02  0.00000000000E+00 0.  1.
</event>
<event>
 7    1  0.6489567E-013  0.5930196E+02  0.7816164E-02  0.1266605E+00
        -11   -1    0    0    0    0  0.00000000000E+00  0.00000000000E+00  0.45593999997E+02  0.45594000000E+02  0.51100000000E-03 0.  1.
         11   -1    0    0    0    0 -0.00000000000E+00 -0.00000000000E+00 -0.45593999997E+02  0.45594000000E+02  0.51100000000E-03 0. -1.
    9900012    2    1    2    0    0  0.19918398330E+02 -0.13920318769E+02 -0.20644656386E+02  0.59301957537E+02  0.50000024638E+02 0.  0.
        -12    1    1    2    0    0 -0.19918398330E+02  0.13920318769E+02  0.20644656386E+02  0.31886042463E+02  0.00000000000E+00 0.  1.
         11    1    3    3    0    0 -0.51556883787E+01 -0.77388565377E+01 -0.29348541359E+01  0.97511226138E+01  0.51100000000E-03 0. -1.
        -11    1    3    3    0    0 -0.39209512498E+00 -0.63228553757E+01 -0.22728157112E+02  0.23594519801E+02  0.51100000000E-03 0.  1.
         12    1    3    3    0    0  0.25466181833E+02  0.14139314398E+00  0.50183548619E+01  0.25956315122E+02  0.00000000000E+00 0. -1.
</event>
<event>
 7    1  0.6489567E-013  0.5930196E+02  0.7816164E-02  0.1266605E+00
        -11   -1    0    0    0    0  0.00000000000E+00  0.00000000000E+00  0.45593999997E+02  0.45594000000E+02  0.51100000000E-03 0. -1.
         11   -1    0    0    0    0 -0.00000000000E+00 -0.00000000000E+00 -0.45593999997E+02  0.45594000000E+02  0.51100000000E-03 0.  1.
    9900012    2    1    2    0    0 -0.49213174382E+01 -0.68257355723E+01  0.30755647132E+02  0.59301955060E+02  0.50000020120E+02 0.  0.
        -12    1    1    2    0    0  0.49213174382E+01  0.68257355723E+01 -0.30755647132E+02  0.31886044940E+02  0.00000000000E+00 0.  1.
         11    1    3    3    0    0  0.16623704256E+01 -0.22277580084E+01 -0.13114483647E+01  0.30734798275E+01  0.51100000000E-03 0.  1.
        -11    1    3    3    0    0 -0.21275116330E+02 -0.31234506664E+01  0.64805284632E+00  0.21512937774E+02  0.51100000000E-03 0. -1.
         12    1    3    3    0    0  0.14691428466E+02 -0.14745268975E+01  0.31419042650E+02  0.34715537458E+02  0.00000000000E+00 0. -1.
</event>
<event>
 7    1  0.6489567E-013  0.5930194E+02  0.7816164E-02  0.1266605E+00
        -11   -1    0    0    0    0  0.00000000000E+00  0.00000000000E+00  0.45593999997E+02  0.45594000000E+02  0.51100000000E-03 0.  1.
         11   -1    0    0    0    0 -0.00000000000E+00 -0.00000000000E+00 -0.45593999997E+02  0.45594000000E+02  0.51100000000E-03 0. -1.
    9900012    2    1    2    0    0 -0.25646022349E+02  0.18590482394E+02  0.36601032878E+01  0.59301939502E+02  0.49999991747E+02 0.  0.
        -12    1    1    2    0    0  0.25646022349E+02 -0.18590482394E+02 -0.36601032878E+01  0.31886060498E+02  0.00000000000E+00 0.  1.
         11    1    3    3    0    0 -0.17601141717E+01  0.81300020527E+01  0.11813475566E+02  0.14448291957E+02  0.51100000000E-03 0. -1.
        -11    1    3    3    0    0 -0.75175990003E+00 -0.85490778969E+01  0.72018112759E+01  0.11203479895E+02  0.51100000000E-03 0.  1.
         12    1    3    3    0    0 -0.23134148278E+02  0.19009558238E+02 -0.15355183554E+02  0.33650167651E+02  0.00000000000E+00 0. -1.
</event>
<event>
 7    1  0.6489567E-013  0.5930195E+02  0.7816164E-02  0.1266605E+00
        -11   -1    0    0    0    0  0.00000000000E+00  0.00000000000E+00  0.45593999997E+02  0.45594000000E+02  0.51100000000E-03 0.  1.
         11   -1    0    0    0    0 -0.00000000000E+00 -0.00000000000E+00 -0.45593999997E+02  0.45594000000E+02  0.51100000000E-03 0. -1.
    9900012    2    1    2    0    0 -0.12429821470E+02 -0.21383512128E+02 -0.20123739780E+02  0.59301953593E+02  0.50000017445E+02 0.  0.
        -12    1    1    2    0    0  0.12429821470E+02  0.21383512128E+02  0.20123739780E+02  0.31886046407E+02  0.00000000000E+00 0.  1.
         11    1    3    3    0    0 -0.12019804317E+02 -0.12133778609E+02  0.11816197320E+02  0.20768408666E+02  0.51100000000E-03 0.  1.
        -11    1    3    3    0    0  0.19080509440E+01 -0.44745616524E+01  0.11681122370E+01  0.50026839641E+01  0.51100000000E-03 0. -1.
         12    1    3    3    0    0 -0.23180680972E+01 -0.47751718665E+01 -0.33108049337E+02  0.33530860963E+02  0.00000000000E+00 0. -1.
</event>
<event>
 7    1  0.6489567E-013  0.5930190E+02  0.7816164E-02  0.1266605E+00
        -11   -1    0    0    0    0  0.00000000000E+00  0.00000000000E+00  0.45593999997E+02  0.45594000000E+02  0.51100000000E-03 0.  1.
         11   -1    0    0    0    0 -0.00000000000E+00 -0.00000000000E+00 -0.45593999997E+02  0.45594000000E+02  0.51100000000E-03 0. -1.
    9900012    2    1    2    0    0 -0.35688658788E+01 -0.17647804765E+02 -0.26316186228E+02  0.59301898415E+02  0.49999916814E+02 0.  0.
        -12    1    1    2    0    0  0.35688658788E+01  0.17647804765E+02  0.26316186228E+02  0.31886101585E+02  0.00000000000E+00 0.  1.
         11    1    3    3    0    0  0.98642772026E+00  0.32061461148E+01 -0.25687056130E+02  0.25905159051E+02  0.51100000000E-03 0. -1.
        -11    1    3    3    0    0 -0.27059363900E+01  0.92829687156E+00 -0.94124610803E+01  0.98375937442E+01  0.51100000000E-03 0.  1.
        -12    1    3    3    0    0 -0.18493572091E+01 -0.21782247751E+02  0.87833309828E+01  0.23559145620E+02  0.00000000000E+00 0.  1.
</event>
<event>
 7    1  0.6489567E-013  0.5930196E+02  0.7816164E-02  0.1266605E+00
        -11   -1    0    0    0    0  0.00000000000E+00  0.00000000000E+00  0.45593999997E+02  0.45594000000E+02  0.51100000000E-03 0. -1.
         11   -1    0    0    0    0 -0.00000000000E+00 -0.00000000000E+00 -0.45593999997E+02  0.45594000000E+02  0.51100000000E-03 0.  1.
    9900012    2    1    2    0    0  0.81822866138E+01  0.30409407403E+02 -0.50037498033E+01  0.59301962540E+02  0.50000033761E+02 0.  0.
        -12    1    1    2    0    0 -0.81822866138E+01 -0.30409407403E+02  0.50037498033E+01  0.31886037460E+02  0.00000000000E+00 0.  1.
         11    1    3    3    0    0 -0.36660408919E+01  0.28535319712E+00  0.91003178897E+01  0.98151448396E+01  0.51100000000E-03 0. -1.
        -11    1    3    3    0    0  0.22472844383E+02  0.15093608907E+02 -0.13717129087E+01  0.27105854738E+02  0.51100000000E-03 0.  1.
         12    1    3    3    0    0 -0.10624516878E+02  0.15030445299E+02 -0.12732354784E+02  0.22380962962E+02  0.00000000000E+00 0. -1.
</event>
<event>
 7    1  0.6489567E-013  0.5930196E+02  0.7816164E-02  0.1266605E+00
        -11   -1    0    0    0    0  0.00000000000E+00  0.00000000000E+00  0.45593999997E+02  0.45594000000E+02  0.51100000000E-03 0. -1.
         11   -1    0    0    0    0 -0.00000000000E+00 -0.00000000000E+00 -0.45593999997E+02  0.45594000000E+02  0.51100000000E-03 0.  1.
    9900012    2    1    2    0    0  0.29459996231E+02 -0.86110680008E+01  0.86416157537E+01  0.59301962415E+02  0.50000033534E+02 0.  0.
        -12    1    1    2    0    0 -0.29459996231E+02  0.86110680008E+01 -0.86416157537E+01  0.31886037585E+02  0.00000000000E+00 0.  1.
         11    1    3    3    0    0 -0.13705227950E+01  0.24261381166E+00  0.48529673353E+01  0.50486123253E+01  0.51100000000E-03 0. -1.
        -11    1    3    3    0    0  0.19146290542E+02  0.13221878093E+02 -0.10445556066E+02  0.25505061137E+02  0.51100000000E-03 0.  1.
         12    1    3    3    0    0  0.11684228484E+02 -0.22075559905E+02  0.14234204485E+02  0.28748288953E+02  0.00000000000E+00 0. -1.
</event>
<event>
 7    1  0.6489567E-013  0.5930158E+02  0.7816164E-02  0.1266606E+00
        -11   -1    0    0    0    0  0.00000000000E+00  0.00000000000E+00  0.45593999997E+02  0.45594000000E+02  0.51100000000E-03 0. -1.
         11   -1    0    0    0    0 -0.00000000000E+00 -0.00000000000E+00 -0.45593999997E+02  0.45594000000E+02  0.51100000000E-03 0.  1.
    9900012    2    1    2    0    0  0.30815146048E+02 -0.71206715706E+01 -0.40579225075E+01  0.59301577739E+02  0.49999331972E+02 0.  0.
        -12    1    1    2    0    0 -0.30815146048E+02  0.71206715706E+01  0.40579225075E+01  0.31886422261E+02  0.00000000000E+00 0.  1.
         11    1    3    3    0    0 -0.62829405185E+00 -0.21975466492E+02 -0.88426202375E+01  0.23696156099E+02  0.51100000000E-03 0.  1.
        -11    1    3    3    0    0  0.13780260014E+02  0.76078472275E+01  0.49880785975E+01  0.16512293416E+02  0.51100000000E-03 0. -1.
        -12    1    3    3    0    0  0.17663180085E+02  0.72469476935E+01 -0.20338086749E+00  0.19093128224E+02  0.00000000000E+00 0.  1.
</event>
<event>
 7    1  0.6489567E-013  0.5930193E+02  0.7816164E-02  0.1266605E+00
        -11   -1    0    0    0    0  0.00000000000E+00  0.00000000000E+00  0.45593999997E+02  0.45594000000E+02  0.51100000000E-03 0.  1.
         11   -1    0    0    0    0 -0.00000000000E+00 -0.00000000000E+00 -0.45593999997E+02  0.45594000000E+02  0.51100000000E-03 0. -1.
    9900012    2    1    2    0    0 -0.10142741683E+02 -0.27312224623E+02 -0.12957192957E+02  0.59301926675E+02  0.49999968353E+02 0.  0.
        -12    1    1    2    0    0  0.10142741683E+02  0.27312224623E+02  0.12957192957E+02  0.31886073325E+02  0.00000000000E+00 0.  1.
         11    1    3    3    0    0 -0.11194925003E+02 -0.10986864431E+02  0.96011420466E+01  0.18390743995E+02  0.51100000000E-03 0. -1.
        -11    1    3    3    0    0  0.73782519139E+01  0.32583289632E+01  0.25380056938E+01  0.84555769821E+01  0.51100000000E-03 0.  1.
         12    1    3    3    0    0 -0.63260685944E+01 -0.19583689156E+02 -0.25096340698E+02  0.32455605698E+02  0.00000000000E+00 0. -1.
</event>
<event>
 7    1  0.6489567E-013  0.5930208E+02  0.7816164E-02  0.1266604E+00
        -11   -1    0    0    0    0  0.00000000000E+00  0.00000000000E+00  0.45593999997E+02  0.45594000000E+02  0.51100000000E-03 0. -1.
         11   -1    0    0    0    0 -0.00000000000E+00 -0.00000000000E+00 -0.45593999997E+02  0.45594000000E+02  0.51100000000E-03 0.  1.
    9900012    2    1    2    0    0 -0.12962547196E+02  0.13733633942E+02  0.25691861119E+02  0.59302077419E+02  0.50000243274E+02 0.  0.
        -12    1    1    2    0    0  0.12962547196E+02 -0.13733633942E+02 -0.25691861119E+02  0.31885922581E+02  0.00000000000E+00 0.  1.
         11    1    3    3    0    0  0.10487294126E+02  0.22547937725E+01  0.98841142924E+01  0.14586402869E+02  0.51100000000E-03 0. -1.
        -11    1    3    3    0    0 -0.71055303433E+01  0.55216971343E+01  0.23893776592E+02  0.25532141720E+02  0.51100000000E-03 0.  1.
        -12    1    3    3    0    0 -0.16344310979E+02  0.59571430350E+01 -0.80860297654E+01  0.19183532831E+02  0.00000000000E+00 0.  1.
</event>
<event>
 7    1  0.6489567E-013  0.5930194E+02  0.7816164E-02  0.1266605E+00
        -11   -1    0    0    0    0  0.00000000000E+00  0.00000000000E+00  0.45593999997E+02  0.45594000000E+02  0.51100000000E-03 0.  1.
         11   -1    0    0    0    0 -0.00000000000E+00 -0.00000000000E+00 -0.45593999997E+02  0.45594000000E+02  0.51100000000E-03 0. -1.
    9900012    2    1    2    0    0  0.22833982916E+02 -0.36978409313E+01 -0.21946662399E+02  0.59301940447E+02  0.49999993470E+02 0.  0.
        -12    1    1    2    0    0 -0.22833982916E+02  0.36978409313E+01  0.21946662399E+02  0.31886059553E+02  0.00000000000E+00 0.  1.
         11    1    3    3    0    0 -0.11030521386E+02 -0.12366106823E-02 -0.12231871581E+02  0.16470916374E+02  0.51100000000E-03 0. -1.
        -11    1    3    3    0    0 -0.10481670291E+01  0.96235377762E+00  0.45970370795E+01  0.48122270401E+01  0.51100000000E-03 0.  1.
        -12    1    3    3    0    0  0.34912671331E+02 -0.46589580983E+01 -0.14311827897E+02  0.38018797033E+02  0.00000000000E+00 0.  1.
</event>
<event>
 7    1  0.6489567E-013  0.5930193E+02  0.7816164E-02  0.1266605E+00
        -11   -1    0    0    0    0  0.00000000000E+00  0.00000000000E+00  0.45593999997E+02  0.45594000000E+02  0.51100000000E-03 0.  1.
         11   -1    0    0    0    0 -0.00000000000E+00 -0.00000000000E+00 -0.45593999997E+02  0.45594000000E+02  0.51100000000E-03 0. -1.
    9900012    2    1    2    0    0  0.17251973057E+02 -0.16660562571E+02 -0.21012290500E+02  0.59301932955E+02  0.49999979806E+02 0.  0.
        -12    1    1    2    0    0 -0.17251973057E+02  0.16660562571E+02  0.21012290500E+02  0.31886067045E+02  0.00000000000E+00 0.  1.
         11    1    3    3    0    0  0.11921131519E+02 -0.13513831939E+02 -0.26820464786E+02  0.32312139545E+02  0.51100000000E-03 0. -1.
        -11    1    3    3    0    0 -0.83963980910E+01  0.55847169064E+01  0.24654286003E+01  0.10381083868E+02  0.51100000000E-03 0.  1.
        -12    1    3    3    0    0  0.13727239629E+02 -0.87314475380E+01  0.33427456852E+01  0.16608709542E+02  0.00000000000E+00 0.  1.
</event>
<event>
 7    1  0.6489567E-013  0.5930196E+02  0.7816164E-02  0.1266605E+00
        -11   -1    0    0    0    0  0.00000000000E+00  0.00000000000E+00  0.45593999997E+02  0.45594000000E+02  0.51100000000E-03 0.  1.
         11   -1    0    0    0    0 -0.00000000000E+00 -0.00000000000E+00 -0.45593999997E+02  0.45594000000E+02  0.51100000000E-03 0. -1.
    9900012    2    1    2    0    0 -0.19769791364E+02  0.11050270640E+02 -0.22444740023E+02  0.59301960947E+02  0.50000030857E+02 0.  0.
        -12    1    1    2    0    0  0.19769791364E+02 -0.11050270640E+02  0.22444740023E+02  0.31886039053E+02  0.00000000000E+00 0.  1.
         11    1    3    3    0    0 -0.19109481924E+02 -0.16702054303E+01 -0.25629980875E+02  0.32013400405E+02  0.51100000000E-03 0.  1.
        -11    1    3    3    0    0  0.45664179754E+01  0.82249649287E+01 -0.91716919697E+01  0.13138575077E+02  0.51100000000E-03 0. -1.
        -12    1    3    3    0    0 -0.52267274158E+01  0.44955111413E+01  0.12356932822E+02  0.14149985465E+02  0.00000000000E+00 0.  1.
</event>
<event>
 7    1  0.6489567E-013  0.5930192E+02  0.7816164E-02  0.1266605E+00
        -11   -1    0    0    0    0  0.00000000000E+00  0.00000000000E+00  0.45593999997E+02  0.45594000000E+02  0.51100000000E-03 0. -1.
         11   -1    0    0    0    0 -0.00000000000E+00 -0.00000000000E+00 -0.45593999997E+02  0.45594000000E+02  0.51100000000E-03 0.  1.
    9900012    2    1    2    0    0  0.27346016866E+02 -0.14107747021E+02  0.83599435252E+01  0.59301924353E+02  0.49999964118E+02 0.  0.
        -12    1    1    2    0    0 -0.27346016866E+02  0.14107747021E+02 -0.83599435252E+01  0.31886075647E+02  0.00000000000E+00 0.  1.
         11    1    3    3    0    0  0.17793915318E+02 -0.18042752833E+02  0.99484855131E+01  0.27223826263E+02  0.51100000000E-03 0. -1.
        -11    1    3    3    0    0  0.14633538383E+02  0.21486410332E+01  0.10969075369E+02  0.18414063067E+02  0.51100000000E-03 0.  1.
        -12    1    3    3    0    0 -0.50814368356E+01  0.17863647782E+01 -0.12557617357E+02  0.13664035024E+02  0.00000000000E+00 0.  1.
</event>
<event>
 7    1  0.6489567E-013  0.5930195E+02  0.7816164E-02  0.1266605E+00
        -11   -1    0    0    0    0  0.00000000000E+00  0.00000000000E+00  0.45593999997E+02  0.45594000000E+02  0.51100000000E-03 0.  1.
         11   -1    0    0    0    0 -0.00000000000E+00 -0.00000000000E+00 -0.45593999997E+02  0.45594000000E+02  0.51100000000E-03 0. -1.
    9900012    2    1    2    0    0  0.26700867466E+01 -0.31049131551E+02 -0.67484993882E+01  0.59301950115E+02  0.50000011101E+02 0.  0.
        -12    1    1    2    0    0 -0.26700867466E+01  0.31049131551E+02  0.67484993882E+01  0.31886049885E+02  0.00000000000E+00 0.  1.
         11    1    3    3    0    0  0.11482012201E+02 -0.17548395948E+02 -0.15868573673E+01  0.21030951503E+02  0.51100000000E-03 0. -1.
        -11    1    3    3    0    0  0.10168101101E+02 -0.10016632621E+02 -0.11099445697E+02  0.18080954182E+02  0.51100000000E-03 0.  1.
         12    1    3    3    0    0 -0.18980026555E+02 -0.34841029813E+01  0.59378036765E+01  0.20190044430E+02  0.00000000000E+00 0. -1.
</event>
<event>
 7    1  0.6489567E-013  0.5930197E+02  0.7816164E-02  0.1266605E+00
        -11   -1    0    0    0    0  0.00000000000E+00  0.00000000000E+00  0.45593999997E+02  0.45594000000E+02  0.51100000000E-03 0. -1.
         11   -1    0    0    0    0 -0.00000000000E+00 -0.00000000000E+00 -0.45593999997E+02  0.45594000000E+02  0.51100000000E-03 0.  1.
    9900012    2    1    2    0    0  0.29612055545E+02 -0.12939612896E+01  0.11754599148E+02  0.59301972173E+02  0.50000051330E+02 0.  0.
        -12    1    1    2    0    0 -0.29612055545E+02  0.12939612896E+01 -0.11754599148E+02  0.31886027827E+02  0.00000000000E+00 0.  1.
         11    1    3    3    0    0  0.12798136800E+02 -0.45356669216E+01  0.25861625134E+02  0.29209386074E+02  0.51100000000E-03 0. -1.
        -11    1    3    3    0    0 -0.37629901520E+01 -0.28562025792E+01 -0.46870488359E+01  0.66548039121E+01  0.51100000000E-03 0.  1.
         12    1    3    3    0    0  0.20576908897E+02  0.60979082112E+01 -0.94199771503E+01  0.23437782187E+02  0.00000000000E+00 0. -1.
</event>
<event>
 7    1  0.6489567E-013  0.5930191E+02  0.7816164E-02  0.1266605E+00
        -11   -1    0    0    0    0  0.00000000000E+00  0.00000000000E+00  0.45593999997E+02  0.45594000000E+02  0.51100000000E-03 0. -1.
         11   -1    0    0    0    0 -0.00000000000E+00 -0.00000000000E+00 -0.45593999997E+02  0.45594000000E+02  0.51100000000E-03 0.  1.
    9900012    2    1    2    0    0 -0.76979536632E+01  0.30647936355E+02 -0.42624173015E+01  0.59301910640E+02  0.49999939108E+02 0.  0.
        -12    1    1    2    0    0  0.76979536632E+01 -0.30647936355E+02  0.42624173015E+01  0.31886089360E+02  0.00000000000E+00 0.  1.
         11    1    3    3    0    0 -0.36602065084E+01  0.27440591920E+02  0.60433660094E+00  0.27690222455E+02  0.51100000000E-03 0. -1.
        -11    1    3    3    0    0 -0.13816897231E+02  0.81482073477E+01 -0.10619002995E+02  0.19237025678E+02  0.51100000000E-03 0.  1.
        -12    1    3    3    0    0  0.97791500761E+01 -0.49408629126E+01  0.57522490925E+01  0.12374662507E+02  0.00000000000E+00 0.  1.
</event>
<event>
 7    1  0.6489567E-013  0.5930194E+02  0.7816164E-02  0.1266605E+00
        -11   -1    0    0    0    0  0.00000000000E+00  0.00000000000E+00  0.45593999997E+02  0.45594000000E+02  0.51100000000E-03 0. -1.
         11   -1    0    0    0    0 -0.00000000000E+00 -0.00000000000E+00 -0.45593999997E+02  0.45594000000E+02  0.51100000000E-03 0.  1.
    9900012    2    1    2    0    0 -0.14069398940E+02  0.26219788484E+02 -0.11458434353E+02  0.59301937017E+02  0.49999987215E+02 0.  0.
        -12    1    1    2    0    0  0.14069398940E+02 -0.26219788484E+02  0.11458434353E+02  0.31886062983E+02  0.00000000000E+00 0.  1.
         11    1    3    3    0    0  0.68794412273E+01  0.12553093274E+02 -0.67791495455E+00  0.14330611686E+02  0.51100000000E-03 0. -1.
        -11    1    3    3    0    0  0.90240540607E+01 -0.22995373770E+01 -0.48412899897E+01  0.10495690204E+02  0.51100000000E-03 0.  1.
        -12    1    3    3    0    0 -0.29972894228E+02  0.15966232587E+02 -0.59392294088E+01  0.34475635127E+02  0.00000000000E+00 0.  1.
</event>
<event>
 7    1  0.6489567E-013  0.5930195E+02  0.7816164E-02  0.1266605E+00
        -11   -1    0    0    0    0  0.00000000000E+00  0.00000000000E+00  0.45593999997E+02  0.45594000000E+02  0.51100000000E-03 0.  1.
         11   -1    0    0    0    0 -0.00000000000E+00 -0.00000000000E+00 -0.45593999997E+02  0.45594000000E+02  0.51100000000E-03 0. -1.
    9900012    2    1    2    0    0 -0.17422959245E+01  0.30060550671E+02  0.10490374316E+02  0.59301948896E+02  0.50000008878E+02 0.  0.
        -12    1    1    2    0    0  0.17422959245E+01 -0.30060550671E+02 -0.10490374316E+02  0.31886051104E+02  0.00000000000E+00 0.  1.
         11    1    3    3    0    0 -0.67831553267E+01 -0.18941532657E+01  0.14125100348E+02  0.15783455670E+02  0.51100000000E-03 0.  1.
        -11    1    3    3    0    0  0.15169033369E+01  0.75705291248E+01  0.12050458479E+02  0.14311794324E+02  0.51100000000E-03 0. -1.
         12    1    3    3    0    0  0.35239560654E+01  0.24384174812E+02 -0.15685184511E+02  0.29206698902E+02  0.00000000000E+00 0. -1.
</event>
<event>
 7    1  0.6489567E-013  0.5930222E+02  0.7816164E-02  0.1266604E+00
        -11   -1    0    0    0    0  0.00000000000E+00  0.00000000000E+00  0.45593999997E+02  0.45594000000E+02  0.51100000000E-03 0.  1.
         11   -1    0    0    0    0 -0.00000000000E+00 -0.00000000000E+00 -0.45593999997E+02  0.45594000000E+02  0.51100000000E-03 0. -1.
    9900012    2    1    2    0    0  0.31625237894E+02 -0.51663418406E+00 -0.40349085114E+01  0.59302218381E+02  0.50000500352E+02 0.  0.
        -12    1    1    2    0    0 -0.31625237894E+02  0.51663418406E+00  0.40349085114E+01  0.31885781619E+02  0.00000000000E+00 0.  1.
         11    1    3    3    0    0  0.25841505493E+02 -0.18657677803E+02 -0.70207846102E+01  0.32637153123E+02  0.51100000000E-03 0. -1.
        -11    1    3    3    0    0  0.11152608914E+01 -0.11721518892E+01  0.63147359164E+01  0.65187143566E+01  0.51100000000E-03 0.  1.
         12    1    3    3    0    0  0.46684715097E+01  0.19313195508E+02 -0.33288598176E+01  0.20146350902E+02  0.00000000000E+00 0. -1.
</event>
<event>
 7    1  0.6489567E-013  0.5930191E+02  0.7816164E-02  0.1266605E+00
        -11   -1    0    0    0    0  0.00000000000E+00  0.00000000000E+00  0.45593999997E+02  0.45594000000E+02  0.51100000000E-03 0.  1.
         11   -1    0    0    0    0 -0.00000000000E+00 -0.00000000000E+00 -0.45593999997E+02  0.45594000000E+02  0.51100000000E-03 0. -1.
    9900012    2    1    2    0    0 -0.65035524843E+01  0.33341176879E+01 -0.31037236342E+02  0.59301912510E+02  0.49999942519E+02 0.  0.
        -12    1    1    2    0    0  0.65035524843E+01 -0.33341176879E+01  0.31037236342E+02  0.31886087490E+02  0.00000000000E+00 0.  1.
         11    1    3    3    0    0 -0.81356440023E+01 -0.11857239716E+02 -0.14744035872E+02  0.20595374021E+02  0.51100000000E-03 0. -1.
        -11    1    3    3    0    0  0.10864815597E+02 -0.54078049185E+01 -0.85349465238E+01  0.14836909531E+02  0.51100000000E-03 0.  1.
         12    1    3    3    0    0 -0.92327240793E+01  0.20599162322E+02 -0.77582539463E+01  0.23869628958E+02  0.00000000000E+00 0. -1.
</event>
<event>
 7    1  0.6489567E-013  0.5930191E+02  0.7816164E-02  0.1266605E+00
        -11   -1    0    0    0    0  0.00000000000E+00  0.00000000000E+00  0.45593999997E+02  0.45594000000E+02  0.51100000000E-03 0.  1.
         11   -1    0    0    0    0 -0.00000000000E+00 -0.00000000000E+00 -0.45593999997E+02  0.45594000000E+02  0.51100000000E-03 0. -1.
    9900012    2    1    2    0    0  0.28281865301E+02 -0.10450754170E+02 -0.10374994550E+02  0.59301910877E+02  0.49999939541E+02 0.  0.
        -12    1    1    2    0    0 -0.28281865301E+02  0.10450754170E+02  0.10374994550E+02  0.31886089123E+02  0.00000000000E+00 0.  1.
         11    1    3    3    0    0 -0.63756276671E+01  0.73737754726E+01 -0.89380439585E+01  0.13225347743E+02  0.51100000000E-03 0. -1.
        -11    1    3    3    0    0  0.47093016234E+01  0.13292759616E+01  0.79259764040E+01  0.93148053431E+01  0.51100000000E-03 0.  1.
         12    1    3    3    0    0  0.29948191345E+02 -0.19153805604E+02 -0.93629269957E+01  0.36761757791E+02  0.00000000000E+00 0. -1.
</event>
<event>
 7    1  0.6489567E-013  0.5930194E+02  0.7816164E-02  0.1266605E+00
        -11   -1    0    0    0    0  0.00000000000E+00  0.00000000000E+00  0.45593999997E+02  0.45594000000E+02  0.51100000000E-03 0.  1.
         11   -1    0    0    0    0 -0.00000000000E+00 -0.00000000000E+00 -0.45593999997E+02  0.45594000000E+02  0.51100000000E-03 0. -1.
    9900012    2    1    2    0    0  0.67200840306E+00 -0.30404359207E+02 -0.95835413989E+01  0.59301938471E+02  0.49999989866E+02 0.  0.
        -12    1    1    2    0    0 -0.67200840306E+00  0.30404359207E+02  0.95835413989E+01  0.31886061529E+02  0.00000000000E+00 0.  1.
         11    1    3    3    0    0 -0.92617793877E+01 -0.26825702469E+02 -0.87176032339E+01  0.29688305387E+02  0.51100000000E-03 0. -1.
        -11    1    3    3    0    0  0.10213049204E+02 -0.11209438010E+02 -0.96501443599E+01  0.17974514207E+02  0.51100000000E-03 0.  1.
        -12    1    3    3    0    0 -0.27926141341E+00  0.76307812715E+01  0.87842061949E+01  0.11639118877E+02  0.00000000000E+00 0.  1.
</event>
<event>
 7    1  0.6489567E-013  0.5930194E+02  0.7816164E-02  0.1266605E+00
        -11   -1    0    0    0    0  0.00000000000E+00  0.00000000000E+00  0.45593999997E+02  0.45594000000E+02  0.51100000000E-03 0. -1.
         11   -1    0    0    0    0 -0.00000000000E+00 -0.00000000000E+00 -0.45593999997E+02  0.45594000000E+02  0.51100000000E-03 0.  1.
    9900012    2    1    2    0    0 -0.13154025815E+02 -0.19820938166E+02  0.21232586613E+02  0.59301941617E+02  0.49999995604E+02 0.  0.
        -12    1    1    2    0    0  0.13154025815E+02  0.19820938166E+02 -0.21232586613E+02  0.31886058383E+02  0.00000000000E+00 0.  1.
         11    1    3    3    0    0 -0.18105412465E+02 -0.20879403928E+02  0.96397693844E+01  0.29269106973E+02  0.51100000000E-03 0. -1.
        -11    1    3    3    0    0 -0.58863494032E+01 -0.34385567694E+01 -0.58686340230E+01  0.89952013602E+01  0.51100000000E-03 0.  1.
        -12    1    3    3    0    0  0.10837736053E+02  0.44970225314E+01  0.17461451251E+02  0.21037633284E+02  0.00000000000E+00 0.  1.
</event>
<event>
 7    1  0.6489567E-013  0.5930196E+02  0.7816164E-02  0.1266605E+00
        -11   -1    0    0    0    0  0.00000000000E+00  0.00000000000E+00  0.45593999997E+02  0.45594000000E+02  0.51100000000E-03 0.  1.
         11   -1    0    0    0    0 -0.00000000000E+00 -0.00000000000E+00 -0.45593999997E+02  0.45594000000E+02  0.51100000000E-03 0. -1.
    9900012    2    1    2    0    0  0.76872547815E+01 -0.27403572184E+02 -0.14376018742E+02  0.59301959647E+02  0.50000028485E+02 0.  0.
        -12    1    1    2    0    0 -0.76872547815E+01  0.27403572184E+02  0.14376018742E+02  0.31886040353E+02  0.00000000000E+00 0.  1.
         11    1    3    3    0    0  0.38845022069E+01 -0.71136519658E+01 -0.51219593648E+01  0.95879022566E+01  0.51100000000E-03 0. -1.
        -11    1    3    3    0    0  0.23920746702E+02 -0.79403876842E+01 -0.38389450901E+01  0.25494889273E+02  0.51100000000E-03 0.  1.
        -12    1    3    3    0    0 -0.20117994128E+02 -0.12349532534E+02 -0.54151142874E+01  0.24219168117E+02  0.00000000000E+00 0.  1.
</event>
<event>
 7    1  0.6489567E-013  0.5930196E+02  0.7816164E-02  0.1266605E+00
        -11   -1    0    0    0    0  0.00000000000E+00  0.00000000000E+00  0.45593999997E+02  0.45594000000E+02  0.51100000000E-03 0.  1.
         11   -1    0    0    0    0 -0.00000000000E+00 -0.00000000000E+00 -0.45593999997E+02  0.45594000000E+02  0.51100000000E-03 0. -1.
    9900012    2    1    2    0    0 -0.12570603054E+02  0.79798384034E+01 -0.28196127791E+02  0.59301960665E+02  0.50000030342E+02 0.  0.
        -12    1    1    2    0    0  0.12570603054E+02 -0.79798384034E+01  0.28196127791E+02  0.31886039335E+02  0.00000000000E+00 0.  1.
         11    1    3    3    0    0  0.30379443770E+01  0.67583335975E+01  0.74272501178E+01  0.10491340411E+02  0.51100000000E-03 0. -1.
        -11    1    3    3    0    0 -0.19947900321E+02 -0.77049431327E+01 -0.15624135740E+02  0.26483928971E+02  0.51100000000E-03 0.  1.
         12    1    3    3    0    0  0.43393528896E+01  0.89264479386E+01 -0.19999242169E+02  0.22326691283E+02  0.00000000000E+00 0. -1.
</event>
<event>
 7    1  0.6489567E-013  0.5930192E+02  0.7816164E-02  0.1266605E+00
        -11   -1    0    0    0    0  0.00000000000E+00  0.00000000000E+00  0.45593999997E+02  0.45594000000E+02  0.51100000000E-03 0.  1.
         11   -1    0    0    0    0 -0.00000000000E+00 -0.00000000000E+00 -0.45593999997E+02  0.45594000000E+02  0.51100000000E-03 0. -1.
    9900012    2    1    2    0    0 -0.33960235121E+01  0.28242168690E+02  0.14407257740E+02  0.59301919281E+02  0.49999954869E+02 0.  0.
        -12    1    1    2    0    0  0.33960235121E+01 -0.28242168690E+02 -0.14407257740E+02  0.31886080719E+02  0.00000000000E+00 0.  1.
         11    1    3    3    0    0 -0.16566157291E+02  0.63145067917E+01  0.49271296420E+00  0.17735651376E+02  0.51100000000E-03 0. -1.
        -11    1    3    3    0    0 -0.12513544121E+01 -0.37112549733E+01  0.11386545987E+02  0.12041292751E+02  0.51100000000E-03 0.  1.
        -12    1    3    3    0    0  0.14421488191E+02  0.25638916871E+02  0.25279987895E+01  0.29524975154E+02  0.00000000000E+00 0.  1.
</event>
<event>
 7    1  0.6489567E-013  0.5930192E+02  0.7816164E-02  0.1266605E+00
        -11   -1    0    0    0    0  0.00000000000E+00  0.00000000000E+00  0.45593999997E+02  0.45594000000E+02  0.51100000000E-03 0.  1.
         11   -1    0    0    0    0 -0.00000000000E+00 -0.00000000000E+00 -0.45593999997E+02  0.45594000000E+02  0.51100000000E-03 0. -1.
    9900012    2    1    2    0    0 -0.11275331700E+02 -0.91852304300E+01 -0.28376406403E+02  0.59301921480E+02  0.49999958878E+02 0.  0.
        -12    1    1    2    0    0  0.11275331700E+02  0.91852304300E+01  0.28376406403E+02  0.31886078520E+02  0.00000000000E+00 0.  1.
         11    1    3    3    0    0 -0.85091580206E+01 -0.29949733417E+01 -0.37496369060E+01  0.97691050115E+01  0.51100000000E-03 0. -1.
        -11    1    3    3    0    0 -0.12092515699E+02  0.65380788644E+01  0.60626779881E+01  0.15024362743E+02  0.51100000000E-03 0.  1.
        -12    1    3    3    0    0  0.93263420196E+01 -0.12728335953E+02 -0.30689447486E+02  0.34508453726E+02  0.00000000000E+00 0.  1.
</event>
<event>
 7    1  0.6489567E-013  0.5930193E+02  0.7816164E-02  0.1266605E+00
        -11   -1    0    0    0    0  0.00000000000E+00  0.00000000000E+00  0.45593999997E+02  0.45594000000E+02  0.51100000000E-03 0. -1.
         11   -1    0    0    0    0 -0.00000000000E+00 -0.00000000000E+00 -0.45593999997E+02  0.45594000000E+02  0.51100000000E-03 0.  1.
    9900012    2    1    2    0    0 -0.22398058585E+02  0.13313844856E+02  0.18379058250E+02  0.59301932896E+02  0.49999979698E+02 0.  0.
        -12    1    1    2    0    0  0.22398058585E+02 -0.13313844856E+02 -0.18379058250E+02  0.31886067104E+02  0.00000000000E+00 0.  1.
         11    1    3    3    0    0  0.21730143390E+01 -0.69886336592E+01 -0.97731042871E+00  0.73836391891E+01  0.51100000000E-03 0. -1.
        -11    1    3    3    0    0 -0.10987205382E+02 -0.65737084488E+01 -0.44246584674E+01  0.13546583617E+02  0.51100000000E-03 0.  1.
         12    1    3    3    0    0 -0.13583867541E+02  0.26876186964E+02  0.23781027146E+02  0.38371710090E+02  0.00000000000E+00 0. -1.
</event>
<event>
 7    1  0.6489567E-013  0.5930192E+02  0.7816164E-02  0.1266605E+00
        -11   -1    0    0    0    0  0.00000000000E+00  0.00000000000E+00  0.45593999997E+02  0.45594000000E+02  0.51100000000E-03 0.  1.
         11   -1    0    0    0    0 -0.00000000000E+00 -0.00000000000E+00 -0.45593999997E+02  0.45594000000E+02  0.51100000000E-03 0. -1.
    9900012    2    1    2    0    0  0.11801681528E+02 -0.67162392823E+01 -0.28850211189E+02  0.59301917729E+02  0.49999952037E+02 0.  0.
        -12    1    1    2    0    0 -0.11801681528E+02  0.67162392823E+01  0.28850211189E+02  0.31886082271E+02  0.00000000000E+00 0.  1.
         11    1    3    3    0    0  0.66454570006E+01  0.26636993079E+01 -0.85438245624E+00  0.72102262373E+01  0.51100000000E-03 0. -1.
        -11    1    3    3    0    0  0.14625684577E+02 -0.21582268487E+02 -0.25457561269E+02  0.36438885664E+02  0.51100000000E-03 0.  1.
         12    1    3    3    0    0 -0.94694600502E+01  0.12202329897E+02 -0.25382674641E+01  0.15652805828E+02  0.00000000000E+00 0. -1.
</event>
<event>
 7    1  0.6489567E-013  0.5930199E+02  0.7816164E-02  0.1266605E+00
        -11   -1    0    0    0    0  0.00000000000E+00  0.00000000000E+00  0.45593999997E+02  0.45594000000E+02  0.51100000000E-03 0.  1.
         11   -1    0    0    0    0 -0.00000000000E+00 -0.00000000000E+00 -0.45593999997E+02  0.45594000000E+02  0.51100000000E-03 0. -1.
    9900012    2    1    2    0    0 -0.99006754570E+01  0.18537464604E+02 -0.23980332801E+02  0.59301994767E+02  0.50000092537E+02 0.  0.
        -12    1    1    2    0    0  0.99006754570E+01 -0.18537464604E+02  0.23980332801E+02  0.31886005233E+02  0.00000000000E+00 0.  1.
         11    1    3    3    0    0 -0.12247369216E+02  0.16899380098E+02 -0.21991078242E+01  0.20986261599E+02  0.51100000000E-03 0. -1.
        -11    1    3    3    0    0  0.11030266416E+01  0.16318466975E+02 -0.82799440910E+01  0.18332116806E+02  0.51100000000E-03 0.  1.
        -12    1    3    3    0    0  0.12436671170E+01 -0.14680382470E+02 -0.13501280886E+02  0.19983616362E+02  0.00000000000E+00 0.  1.
</event>
<event>
 7    1  0.6489567E-013  0.5930191E+02  0.7816164E-02  0.1266605E+00
        -11   -1    0    0    0    0  0.00000000000E+00  0.00000000000E+00  0.45593999997E+02  0.45594000000E+02  0.51100000000E-03 0.  1.
         11   -1    0    0    0    0 -0.00000000000E+00 -0.00000000000E+00 -0.45593999997E+02  0.45594000000E+02  0.51100000000E-03 0. -1.
    9900012    2    1    2    0    0 -0.35614334071E+01  0.31665207064E+02  0.11635353790E+01  0.59301906466E+02  0.49999931496E+02 0.  0.
        -12    1    1    2    0    0  0.35614334071E+01 -0.31665207064E+02 -0.11635353790E+01  0.31886093534E+02  0.00000000000E+00 0.  1.
         11    1    3    3    0    0 -0.15555823196E+02  0.26785486522E+01 -0.32732679980E+00  0.15788141160E+02  0.51100000000E-03 0. -1.
        -11    1    3    3    0    0 -0.14187464293E+01  0.84048747619E+00  0.10838982313E+02  0.10963703684E+02  0.51100000000E-03 0.  1.
         12    1    3    3    0    0  0.13413136218E+02  0.28146170935E+02 -0.93481201346E+01  0.32550061622E+02  0.00000000000E+00 0. -1.
</event>
<event>
 7    1  0.6489567E-013  0.5930195E+02  0.7816164E-02  0.1266605E+00
        -11   -1    0    0    0    0  0.00000000000E+00  0.00000000000E+00  0.45593999997E+02  0.45594000000E+02  0.51100000000E-03 0.  1.
         11   -1    0    0    0    0 -0.00000000000E+00 -0.00000000000E+00 -0.45593999997E+02  0.45594000000E+02  0.51100000000E-03 0. -1.
    9900012    2    1    2    0    0  0.12051019264E+02 -0.12910389944E+02 -0.26548356683E+02  0.59301945424E+02  0.50000002547E+02 0.  0.
        -12    1    1    2    0    0 -0.12051019264E+02  0.12910389944E+02  0.26548356683E+02  0.31886054576E+02  0.00000000000E+00 0.  1.
         11    1    3    3    0    0 -0.11391082313E+02 -0.65561320303E+01 -0.46115695049E+00  0.13151132630E+02  0.51100000000E-03 0. -1.
        -11    1    3    3    0    0  0.14295922846E+02  0.11109787555E+02 -0.15139261498E+02  0.23600805675E+02  0.51100000000E-03 0.  1.
         12    1    3    3    0    0  0.91461787311E+01 -0.17464045468E+02 -0.10947938235E+02  0.22550007120E+02  0.00000000000E+00 0. -1.
</event>
<event>
 7    1  0.6489567E-013  0.5930193E+02  0.7816164E-02  0.1266605E+00
        -11   -1    0    0    0    0  0.00000000000E+00  0.00000000000E+00  0.45593999997E+02  0.45594000000E+02  0.51100000000E-03 0. -1.
         11   -1    0    0    0    0 -0.00000000000E+00 -0.00000000000E+00 -0.45593999997E+02  0.45594000000E+02  0.51100000000E-03 0.  1.
    9900012    2    1    2    0    0 -0.24565714966E+02  0.17109566917E+02  0.10977698625E+02  0.59301929389E+02  0.49999973303E+02 0.  0.
        -12    1    1    2    0    0  0.24565714966E+02 -0.17109566917E+02 -0.10977698625E+02  0.31886070611E+02  0.00000000000E+00 0.  1.
         11    1    3    3    0    0 -0.98932893780E+01  0.28323549539E+01  0.24480971391E+02  0.26555929089E+02  0.51100000000E-03 0. -1.
        -11    1    3    3    0    0 -0.17090535753E+02  0.87535657876E+01 -0.14352224015E+01  0.19255419755E+02  0.51100000000E-03 0.  1.
        -12    1    3    3    0    0  0.24181101648E+01  0.55236461758E+01 -0.12068050365E+02  0.13490580545E+02  0.00000000000E+00 0.  1.
</event>
<event>
 7    1  0.6489567E-013  0.5930191E+02  0.7816164E-02  0.1266605E+00
        -11   -1    0    0    0    0  0.00000000000E+00  0.00000000000E+00  0.45593999997E+02  0.45594000000E+02  0.51100000000E-03 0.  1.
         11   -1    0    0    0    0 -0.00000000000E+00 -0.00000000000E+00 -0.45593999997E+02  0.45594000000E+02  0.51100000000E-03 0. -1.
    9900012    2    1    2    0    0  0.13268398148E+02  0.28147258903E+02 -0.69572933456E+01  0.59301913632E+02  0.49999944566E+02 0.  0.
        -12    1    1    2    0    0 -0.13268398148E+02 -0.28147258903E+02  0.69572933456E+01  0.31886086368E+02  0.00000000000E+00 0.  1.
         11    1    3    3    0    0 -0.13081288537E+01  0.62893541419E+01 -0.17400121594E+02  0.18548083685E+02  0.51100000000E-03 0. -1.
        -11    1    3    3    0    0 -0.34519488085E+01  0.17083563001E+02  0.13250368828E+02  0.21893751385E+02  0.51100000000E-03 0.  1.
        -12    1    3    3    0    0  0.18028475810E+02  0.47743417603E+01 -0.28075405798E+01  0.18860078562E+02  0.00000000000E+00 0.  1.
</event>
<event>
 7    1  0.6489567E-013  0.5930186E+02  0.7816164E-02  0.1266605E+00
        -11   -1    0    0    0    0  0.00000000000E+00  0.00000000000E+00  0.45593999997E+02  0.45594000000E+02  0.51100000000E-03 0.  1.
         11   -1    0    0    0    0 -0.00000000000E+00 -0.00000000000E+00 -0.45593999997E+02  0.45594000000E+02  0.51100000000E-03 0. -1.
    9900012    2    1    2    0    0  0.88403976782E+01  0.26073612249E+02 -0.16085405389E+02  0.59301856405E+02  0.49999840197E+02 0.  0.
        -12    1    1    2    0    0 -0.88403976782E+01 -0.26073612249E+02  0.16085405389E+02  0.31886143595E+02  0.00000000000E+00 0.  1.
         11    1    3    3    0    0 -0.30081555442E+01 -0.56368311792E+01 -0.58157396350E+01  0.86397739140E+01  0.51100000000E-03 0.  1.
        -11    1    3    3    0    0 -0.12124345659E+01  0.19723774208E+02 -0.21870763905E+02  0.29475881338E+02  0.51100000000E-03 0. -1.
        -12    1    3    3    0    0  0.13060987788E+02  0.11986669220E+02  0.11601098151E+02  0.21186201153E+02  0.00000000000E+00 0.  1.
</event>
<event>
 7    1  0.6489567E-013  0.5930191E+02  0.7816164E-02  0.1266605E+00
        -11   -1    0    0    0    0  0.00000000000E+00  0.00000000000E+00  0.45593999997E+02  0.45594000000E+02  0.51100000000E-03 0. -1.
         11   -1    0    0    0    0 -0.00000000000E+00 -0.00000000000E+00 -0.45593999997E+02  0.45594000000E+02  0.51100000000E-03 0.  1.
    9900012    2    1    2    0    0  0.14621039291E+02  0.16619357399E+02  0.22950927153E+02  0.59301907616E+02  0.49999933594E+02 0.  0.
        -12    1    1    2    0    0 -0.14621039291E+02 -0.16619357399E+02 -0.22950927153E+02  0.31886092384E+02  0.00000000000E+00 0.  1.
         11    1    3    3    0    0  0.19247271419E+02  0.11441653162E+02  0.15388563886E+02  0.27169408953E+02  0.51100000000E-03 0. -1.
        -11    1    3    3    0    0  0.54320509681E+01  0.13808996620E+02  0.10962682710E+02  0.18449281228E+02  0.51100000000E-03 0.  1.
        -12    1    3    3    0    0 -0.10058283096E+02 -0.86312923826E+01 -0.34003194426E+01  0.13683217434E+02  0.00000000000E+00 0.  1.
</event>
<event>
 7    1  0.6489567E-013  0.5930194E+02  0.7816164E-02  0.1266605E+00
        -11   -1    0    0    0    0  0.00000000000E+00  0.00000000000E+00  0.45593999997E+02  0.45594000000E+02  0.51100000000E-03 0.  1.
         11   -1    0    0    0    0 -0.00000000000E+00 -0.00000000000E+00 -0.45593999997E+02  0.45594000000E+02  0.51100000000E-03 0. -1.
    9900012    2    1    2    0    0 -0.28886090053E+02  0.10462034270E+02  0.85358362041E+01  0.59301939420E+02  0.49999991597E+02 0.  0.
        -12    1    1    2    0    0  0.28886090053E+02 -0.10462034270E+02 -0.85358362041E+01  0.31886060580E+02  0.00000000000E+00 0.  1.
         11    1    3    3    0    0 -0.23029687406E+02  0.25138367816E+02  0.13592811523E+02  0.36702432669E+02  0.51100000000E-03 0. -1.
        -11    1    3    3    0    0 -0.19719274427E+01  0.27126300262E+01 -0.32843076114E+01  0.46939893743E+01  0.51100000000E-03 0.  1.
        -12    1    3    3    0    0 -0.38844752045E+01 -0.17388963572E+02 -0.17726677076E+01  0.17905517377E+02  0.00000000000E+00 0.  1.
</event>
<event>
 7    1  0.6489567E-013  0.5930194E+02  0.7816164E-02  0.1266605E+00
        -11   -1    0    0    0    0  0.00000000000E+00  0.00000000000E+00  0.45593999997E+02  0.45594000000E+02  0.51100000000E-03 0.  1.
         11   -1    0    0    0    0 -0.00000000000E+00 -0.00000000000E+00 -0.45593999997E+02  0.45594000000E+02  0.51100000000E-03 0. -1.
    9900012    2    1    2    0    0 -0.31314463777E+02  0.38182848470E+01 -0.46417288387E+01  0.59301943683E+02  0.49999999372E+02 0.  0.
        -12    1    1    2    0    0  0.31314463777E+02 -0.38182848470E+01  0.46417288387E+01  0.31886056317E+02  0.00000000000E+00 0.  1.
         11    1    3    3    0    0 -0.19088254405E+02  0.11751747973E+02 -0.14349662912E+02  0.26615368917E+02  0.51100000000E-03 0. -1.
        -11    1    3    3    0    0  0.52208441664E+01  0.16794701708E+01 -0.53914257072E+01  0.76905984996E+01  0.51100000000E-03 0.  1.
        -12    1    3    3    0    0 -0.17447053538E+02 -0.96129332968E+01  0.15099359780E+02  0.24995976266E+02  0.00000000000E+00 0.  1.
</event>
<event>
 7    1  0.6489567E-013  0.5930201E+02  0.7816164E-02  0.1266605E+00
        -11   -1    0    0    0    0  0.00000000000E+00  0.00000000000E+00  0.45593999997E+02  0.45594000000E+02  0.51100000000E-03 0.  1.
         11   -1    0    0    0    0 -0.00000000000E+00 -0.00000000000E+00 -0.45593999997E+02  0.45594000000E+02  0.51100000000E-03 0. -1.
    9900012    2    1    2    0    0  0.36091510631E+00 -0.25743272366E+02 -0.18811440987E+02  0.59302005522E+02  0.50000112151E+02 0.  0.
        -12    1    1    2    0    0 -0.36091510631E+00  0.25743272366E+02  0.18811440987E+02  0.31885994478E+02  0.00000000000E+00 0.  1.
         11    1    3    3    0    0 -0.82034758593E+01 -0.91683125495E+01 -0.23675007797E+02  0.26680722735E+02  0.51100000000E-03 0. -1.
        -11    1    3    3    0    0 -0.89571687479E+01 -0.64717361054E+01 -0.20648297971E+01  0.11241786448E+02  0.51100000000E-03 0.  1.
        -12    1    3    3    0    0  0.17521559713E+02 -0.10103223711E+02  0.69283966076E+01  0.21379496339E+02  0.00000000000E+00 0.  1.
</event>
<event>
 7    1  0.6489567E-013  0.5930195E+02  0.7816164E-02  0.1266605E+00
        -11   -1    0    0    0    0  0.00000000000E+00  0.00000000000E+00  0.45593999997E+02  0.45594000000E+02  0.51100000000E-03 0.  1.
         11   -1    0    0    0    0 -0.00000000000E+00 -0.00000000000E+00 -0.45593999997E+02  0.45594000000E+02  0.51100000000E-03 0. -1.
    9900012    2    1    2    0    0  0.24504991458E+02  0.20220980868E+02  0.27087844778E+01  0.59301949962E+02  0.50000010823E+02 0.  0.
        -12    1    1    2    0    0 -0.24504991458E+02 -0.20220980868E+02 -0.27087844778E+01  0.31886050038E+02  0.00000000000E+00 0.  1.
         11    1    3    3    0    0  0.67041310207E+01  0.10210171213E+02 -0.13767162118E+00  0.12215233222E+02  0.51100000000E-03 0. -1.
        -11    1    3    3    0    0  0.18758505624E+02  0.24697591645E+02  0.69999622367E+01  0.31793899382E+02  0.51100000000E-03 0.  1.
        -12    1    3    3    0    0 -0.95764518693E+00 -0.14686781990E+02 -0.41535061377E+01  0.15292817358E+02  0.00000000000E+00 0.  1.
</event>
<event>
 7    1  0.6489567E-013  0.5930192E+02  0.7816164E-02  0.1266605E+00
        -11   -1    0    0    0    0  0.00000000000E+00  0.00000000000E+00  0.45593999997E+02  0.45594000000E+02  0.51100000000E-03 0. -1.
         11   -1    0    0    0    0 -0.00000000000E+00 -0.00000000000E+00 -0.45593999997E+02  0.45594000000E+02  0.51100000000E-03 0.  1.
    9900012    2    1    2    0    0 -0.27499588530E+02 -0.11693474754E+02  0.11124619655E+02  0.59301923358E+02  0.49999962304E+02 0.  0.
        -12    1    1    2    0    0  0.27499588530E+02  0.11693474754E+02 -0.11124619655E+02  0.31886076642E+02  0.00000000000E+00 0.  1.
         11    1    3    3    0    0 -0.18097544182E+02 -0.32896839347E+01 -0.43089398074E+01  0.18892064163E+02  0.51100000000E-03 0. -1.
        -11    1    3    3    0    0 -0.45127799123E+01 -0.22181601068E+02  0.79931302578E+01  0.24005806382E+02  0.51100000000E-03 0.  1.
         12    1    3    3    0    0 -0.48892644348E+01  0.13777810248E+02  0.74404292046E+01  0.16404052813E+02  0.00000000000E+00 0. -1.
</event>
<event>
 7    1  0.6489567E-013  0.5930185E+02  0.7816164E-02  0.1266605E+00
        -11   -1    0    0    0    0  0.00000000000E+00  0.00000000000E+00  0.45593999997E+02  0.45594000000E+02  0.51100000000E-03 0. -1.
         11   -1    0    0    0    0 -0.00000000000E+00 -0.00000000000E+00 -0.45593999997E+02  0.45594000000E+02  0.51100000000E-03 0.  1.
    9900012    2    1    2    0    0  0.17079304400E+02  0.26905493637E+02  0.10575062622E+01  0.59301850246E+02  0.49999828964E+02 0.  0.
        -12    1    1    2    0    0 -0.17079304400E+02 -0.26905493637E+02 -0.10575062622E+01  0.31886149754E+02  0.00000000000E+00 0.  1.
         11    1    3    3    0    0  0.50942909521E+01 -0.42811542747E+01 -0.62728716943E+01  0.91448893806E+01  0.51100000000E-03 0. -1.
        -11    1    3    3    0    0  0.20240658551E+02  0.34223827533E+01  0.47950319039E+01  0.21080543008E+02  0.51100000000E-03 0.  1.
         12    1    3    3    0    0 -0.82556451027E+01  0.27764265158E+02  0.25353460527E+01  0.29076417858E+02  0.00000000000E+00 0. -1.
</event>
<event>
 7    1  0.6489567E-013  0.5930194E+02  0.7816164E-02  0.1266605E+00
        -11   -1    0    0    0    0  0.00000000000E+00  0.00000000000E+00  0.45593999997E+02  0.45594000000E+02  0.51100000000E-03 0.  1.
         11   -1    0    0    0    0 -0.00000000000E+00 -0.00000000000E+00 -0.45593999997E+02  0.45594000000E+02  0.51100000000E-03 0. -1.
    9900012    2    1    2    0    0 -0.16764220748E+02 -0.17743636993E+02 -0.20514514968E+02  0.59301936031E+02  0.49999985417E+02 0.  0.
        -12    1    1    2    0    0  0.16764220748E+02  0.17743636993E+02  0.20514514968E+02  0.31886063969E+02  0.00000000000E+00 0.  1.
         11    1    3    3    0    0 -0.92838261335E+01 -0.19162506555E+02 -0.42551355105E+01  0.21713987741E+02  0.51100000000E-03 0. -1.
        -11    1    3    3    0    0 -0.10957996253E+02 -0.10189201168E+02 -0.19934117273E+02  0.24925218837E+02  0.51100000000E-03 0.  1.
        -12    1    3    3    0    0  0.34776016387E+01  0.11608070729E+02  0.36747378161E+01  0.12662729454E+02  0.00000000000E+00 0.  1.
</event>
<event>
 7    1  0.6489567E-013  0.5930195E+02  0.7816164E-02  0.1266605E+00
        -11   -1    0    0    0    0  0.00000000000E+00  0.00000000000E+00  0.45593999997E+02  0.45594000000E+02  0.51100000000E-03 0.  1.
         11   -1    0    0    0    0 -0.00000000000E+00 -0.00000000000E+00 -0.45593999997E+02  0.45594000000E+02  0.51100000000E-03 0. -1.
    9900012    2    1    2    0    0  0.18668315333E+02  0.55999010232E+00 -0.25843775701E+02  0.59301947739E+02  0.50000006768E+02 0.  0.
        -12    1    1    2    0    0 -0.18668315333E+02 -0.55999010232E+00  0.25843775701E+02  0.31886052261E+02  0.00000000000E+00 0.  1.
         11    1    3    3    0    0 -0.11408544953E+02 -0.28210766963E+00 -0.11223270264E+02  0.16006132524E+02  0.51100000000E-03 0. -1.
        -11    1    3    3    0    0  0.15467663591E-01  0.56608863543E+01  0.45973503047E+01  0.72925649568E+01  0.51100000000E-03 0.  1.
        -12    1    3    3    0    0  0.30061392623E+02 -0.48187885823E+01 -0.19217855742E+02  0.36003250258E+02  0.00000000000E+00 0.  1.
</event>
<event>
 7    1  0.6489567E-013  0.5930194E+02  0.7816164E-02  0.1266605E+00
        -11   -1    0    0    0    0  0.00000000000E+00  0.00000000000E+00  0.45593999997E+02  0.45594000000E+02  0.51100000000E-03 0. -1.
         11   -1    0    0    0    0 -0.00000000000E+00 -0.00000000000E+00 -0.45593999997E+02  0.45594000000E+02  0.51100000000E-03 0.  1.
    9900012    2    1    2    0    0  0.61303218785E+01  0.30699205906E+02  0.60579522813E+01  0.59301939167E+02  0.49999991135E+02 0.  0.
        -12    1    1    2    0    0 -0.61303218785E+01 -0.30699205906E+02 -0.60579522813E+01  0.31886060833E+02  0.00000000000E+00 0.  1.
         11    1    3    3    0    0 -0.28840125666E+01 -0.41554635294E+01  0.25134281913E+01  0.56482499203E+01  0.51100000000E-03 0. -1.
        -11    1    3    3    0    0  0.14419925752E+02 -0.25481860749E+01  0.59037650595E+01  0.15788665337E+02  0.51100000000E-03 0.  1.
        -12    1    3    3    0    0 -0.54055913072E+01  0.37402855511E+02 -0.23592409696E+01  0.37865023910E+02  0.00000000000E+00 0.  1.
</event>
<event>
 7    1  0.6489567E-013  0.5930187E+02  0.7816164E-02  0.1266605E+00
        -11   -1    0    0    0    0  0.00000000000E+00  0.00000000000E+00  0.45593999997E+02  0.45594000000E+02  0.51100000000E-03 0.  1.
         11   -1    0    0    0    0 -0.00000000000E+00 -0.00000000000E+00 -0.45593999997E+02  0.45594000000E+02  0.51100000000E-03 0. -1.
    9900012    2    1    2    0    0  0.23873104371E+01 -0.26953704595E+02 -0.16867835666E+02  0.59301869433E+02  0.49999863956E+02 0.  0.
        -12    1    1    2    0    0 -0.23873104371E+01  0.26953704595E+02  0.16867835666E+02  0.31886130567E+02  0.00000000000E+00 0.  1.
         11    1    3    3    0    0 -0.10308404630E+02 -0.27134013249E+01 -0.59664884988E+01  0.12215757776E+02  0.51100000000E-03 0. -1.
        -11    1    3    3    0    0  0.87759645820E+01  0.87960425002E+01 -0.15022093667E+01  0.12515772100E+02  0.51100000000E-03 0.  1.
         12    1    3    3    0    0  0.39197504851E+01 -0.33036345770E+02 -0.93991378005E+01  0.34570339557E+02  0.00000000000E+00 0. -1.
</event>
<event>
 7    1  0.6489567E-013  0.5930213E+02  0.7816164E-02  0.1266604E+00
        -11   -1    0    0    0    0  0.00000000000E+00  0.00000000000E+00  0.45593999997E+02  0.45594000000E+02  0.51100000000E-03 0.  1.
         11   -1    0    0    0    0 -0.00000000000E+00 -0.00000000000E+00 -0.45593999997E+02  0.45594000000E+02  0.51100000000E-03 0. -1.
    9900012    2    1    2    0    0  0.29333595525E+02 -0.10993678769E+02  0.59487790513E+01  0.59302128967E+02  0.50000337284E+02 0.  0.
        -12    1    1    2    0    0 -0.29333595525E+02  0.10993678769E+02 -0.59487790513E+01  0.31885871033E+02  0.00000000000E+00 0.  1.
         11    1    3    3    0    0  0.14962498660E+02 -0.19521656447E+02  0.10012996047E+02  0.26556195637E+02  0.51100000000E-03 0. -1.
        -11    1    3    3    0    0  0.10920994244E+02 -0.91670589947E+01 -0.36264190153E+01  0.14712375778E+02  0.51100000000E-03 0.  1.
        -12    1    3    3    0    0  0.34501026217E+01  0.17695036672E+02 -0.43779798081E+00  0.18033557553E+02  0.00000000000E+00 0.  1.
</event>
<event>
 7    1  0.6489567E-013  0.5930196E+02  0.7816164E-02  0.1266605E+00
        -11   -1    0    0    0    0  0.00000000000E+00  0.00000000000E+00  0.45593999997E+02  0.45594000000E+02  0.51100000000E-03 0. -1.
         11   -1    0    0    0    0 -0.00000000000E+00 -0.00000000000E+00 -0.45593999997E+02  0.45594000000E+02  0.51100000000E-03 0.  1.
    9900012    2    1    2    0    0 -0.16576108919E+02 -0.22050918255E+02  0.15990905200E+02  0.59301961803E+02  0.50000032418E+02 0.  0.
        -12    1    1    2    0    0  0.16576108919E+02  0.22050918255E+02 -0.15990905200E+02  0.31886038197E+02  0.00000000000E+00 0.  1.
         11    1    3    3    0    0 -0.24632246148E+02 -0.10950773235E+02  0.72338186964E+01  0.27910484014E+02  0.51100000000E-03 0. -1.
        -11    1    3    3    0    0 -0.84586112402E+01  0.23895866945E+01  0.19054622418E+01  0.89938320698E+01  0.51100000000E-03 0.  1.
         12    1    3    3    0    0  0.16514748469E+02 -0.13489731715E+02  0.68516242617E+01  0.22397645719E+02  0.00000000000E+00 0. -1.
</event>
<event>
 7    1  0.6489567E-013  0.5930196E+02  0.7816164E-02  0.1266605E+00
        -11   -1    0    0    0    0  0.00000000000E+00  0.00000000000E+00  0.45593999997E+02  0.45594000000E+02  0.51100000000E-03 0. -1.
         11   -1    0    0    0    0 -0.00000000000E+00 -0.00000000000E+00 -0.45593999997E+02  0.45594000000E+02  0.51100000000E-03 0.  1.
    9900012    2    1    2    0    0 -0.25433824555E+01 -0.32268923674E+00  0.31782800125E+02  0.59301963770E+02  0.50000036005E+02 0.  0.
        -12    1    1    2    0    0  0.25433824555E+01  0.32268923674E+00 -0.31782800125E+02  0.31886036230E+02  0.00000000000E+00 0.  1.
         11    1    3    3    0    0  0.12657276942E+02 -0.13400024149E+02  0.20181692002E+02  0.27332544688E+02  0.51100000000E-03 0. -1.
        -11    1    3    3    0    0  0.52958180980E+01  0.31121509354E+01 -0.50456872784E+00  0.61632590919E+01  0.51100000000E-03 0.  1.
        -12    1    3    3    0    0 -0.20496477495E+02  0.99651839772E+01  0.12105676851E+02  0.25806159990E+02  0.00000000000E+00 0.  1.
</event>
<event>
 7    1  0.6489567E-013  0.5930193E+02  0.7816164E-02  0.1266605E+00
        -11   -1    0    0    0    0  0.00000000000E+00  0.00000000000E+00  0.45593999997E+02  0.45594000000E+02  0.51100000000E-03 0.  1.
         11   -1    0    0    0    0 -0.00000000000E+00 -0.00000000000E+00 -0.45593999997E+02  0.45594000000E+02  0.51100000000E-03 0. -1.
    9900012    2    1    2    0    0  0.34776070457E+01 -0.14285624683E+01 -0.31663648798E+02  0.59301934130E+02  0.49999981948E+02 0.  0.
        -12    1    1    2    0    0 -0.34776070457E+01  0.14285624683E+01  0.31663648798E+02  0.31886065870E+02  0.00000000000E+00 0.  1.
         11    1    3    3    0    0  0.15568271056E+02 -0.25156449627E+01 -0.14051859121E+02  0.21122364410E+02  0.51100000000E-03 0. -1.
        -11    1    3    3    0    0  0.72383150852E+01  0.94509358014E+01 -0.10719886348E+02  0.16019655314E+02  0.51100000000E-03 0.  1.
        -12    1    3    3    0    0 -0.19328979095E+02 -0.83638533070E+01 -0.68919033291E+01  0.22159914406E+02  0.00000000000E+00 0.  1.
</event>
<event>
 7    1  0.6489567E-013  0.5930194E+02  0.7816164E-02  0.1266605E+00
        -11   -1    0    0    0    0  0.00000000000E+00  0.00000000000E+00  0.45593999997E+02  0.45594000000E+02  0.51100000000E-03 0.  1.
         11   -1    0    0    0    0 -0.00000000000E+00 -0.00000000000E+00 -0.45593999997E+02  0.45594000000E+02  0.51100000000E-03 0. -1.
    9900012    2    1    2    0    0  0.60183667522E+01 -0.20617753910E+02 -0.23567100517E+02  0.59301941269E+02  0.49999994969E+02 0.  0.
        -12    1    1    2    0    0 -0.60183667522E+01  0.20617753910E+02  0.23567100517E+02  0.31886058731E+02  0.00000000000E+00 0.  1.
         11    1    3    3    0    0 -0.93717273138E+01  0.68631440454E+01 -0.21232709709E+02  0.24202478817E+02  0.51100000000E-03 0. -1.
        -11    1    3    3    0    0  0.11091820102E+02 -0.50928281196E+01 -0.13748720200E+01  0.12282330592E+02  0.51100000000E-03 0.  1.
        -12    1    3    3    0    0  0.42982739639E+01 -0.22388069835E+02 -0.95951878753E+00  0.22817131860E+02  0.00000000000E+00 0.  1.
</event>
<event>
 7    1  0.6489567E-013  0.5930191E+02  0.7816164E-02  0.1266605E+00
        -11   -1    0    0    0    0  0.00000000000E+00  0.00000000000E+00  0.45593999997E+02  0.45594000000E+02  0.51100000000E-03 0. -1.
         11   -1    0    0    0    0 -0.00000000000E+00 -0.00000000000E+00 -0.45593999997E+02  0.45594000000E+02  0.51100000000E-03 0.  1.
    9900012    2    1    2    0    0 -0.29905190493E+02 -0.77880353703E+01  0.78580334743E+01  0.59301912071E+02  0.49999941719E+02 0.  0.
        -12    1    1    2    0    0  0.29905190493E+02  0.77880353703E+01 -0.78580334743E+01  0.31886087929E+02  0.00000000000E+00 0.  1.
         11    1    3    3    0    0 -0.16134944244E+01  0.96672882539E+01  0.12406181940E+02  0.15810540061E+02  0.51100000000E-03 0. -1.
        -11    1    3    3    0    0 -0.21142000038E+02  0.24593744865E+01  0.19058509778E+01  0.21369720557E+02  0.51100000000E-03 0.  1.
         12    1    3    3    0    0 -0.71496960299E+01 -0.19914698111E+02 -0.64539994437E+01  0.22121651452E+02  0.00000000000E+00 0. -1.
</event>
<event>
 7    1  0.6489567E-013  0.5930194E+02  0.7816164E-02  0.1266605E+00
        -11   -1    0    0    0    0  0.00000000000E+00  0.00000000000E+00  0.45593999997E+02  0.45594000000E+02  0.51100000000E-03 0.  1.
         11   -1    0    0    0    0 -0.00000000000E+00 -0.00000000000E+00 -0.45593999997E+02  0.45594000000E+02  0.51100000000E-03 0. -1.
    9900012    2    1    2    0    0  0.80074864192E+01 -0.27520790066E+01 -0.30741293662E+02  0.59301938568E+02  0.49999990043E+02 0.  0.
        -12    1    1    2    0    0 -0.80074864192E+01  0.27520790066E+01  0.30741293662E+02  0.31886061432E+02  0.00000000000E+00 0.  1.
         11    1    3    3    0    0  0.40189011834E+01 -0.87099811139E+01 -0.32240779840E+01  0.10119783438E+02  0.51100000000E-03 0. -1.
        -11    1    3    3    0    0  0.18875366727E+01 -0.81707125954E+01  0.75709912857E+01  0.11297931152E+02  0.51100000000E-03 0.  1.
         12    1    3    3    0    0  0.21010485632E+01  0.14128614703E+02 -0.35088206964E+02  0.37884223978E+02  0.00000000000E+00 0. -1.
</event>
<event>
 7    1  0.6489567E-013  0.5930180E+02  0.7816164E-02  0.1266605E+00
        -11   -1    0    0    0    0  0.00000000000E+00  0.00000000000E+00  0.45593999997E+02  0.45594000000E+02  0.51100000000E-03 0.  1.
         11   -1    0    0    0    0 -0.00000000000E+00 -0.00000000000E+00 -0.45593999997E+02  0.45594000000E+02  0.51100000000E-03 0. -1.
    9900012    2    1    2    0    0 -0.22971928597E+02  0.21618977691E+02  0.46518740238E+01  0.59301801861E+02  0.49999740721E+02 0.  0.
        -12    1    1    2    0    0  0.22971928597E+02 -0.21618977691E+02 -0.46518740238E+01  0.31886198139E+02  0.00000000000E+00 0.  1.
         11    1    3    3    0    0 -0.10681064110E+02  0.11135608953E+02 -0.19020273961E+01  0.15546852600E+02  0.51100000000E-03 0. -1.
        -11    1    3    3    0    0 -0.12850305996E+02  0.59370590717E+01  0.22821271978E+02  0.26854971413E+02  0.51100000000E-03 0.  1.
        -12    1    3    3    0    0  0.55944150926E+00  0.45463096657E+01 -0.16267370558E+02  0.16899977848E+02  0.00000000000E+00 0.  1.
</event>
<event>
 7    1  0.6489567E-013  0.5930195E+02  0.7816164E-02  0.1266605E+00
        -11   -1    0    0    0    0  0.00000000000E+00  0.00000000000E+00  0.45593999997E+02  0.45594000000E+02  0.51100000000E-03 0. -1.
         11   -1    0    0    0    0 -0.00000000000E+00 -0.00000000000E+00 -0.45593999997E+02  0.45594000000E+02  0.51100000000E-03 0.  1.
    9900012    2    1    2    0    0  0.13316994858E+02 -0.23437130053E+02  0.17031707478E+02  0.59301945418E+02  0.50000002536E+02 0.  0.
        -12    1    1    2    0    0 -0.13316994858E+02  0.23437130053E+02 -0.17031707478E+02  0.31886054582E+02  0.00000000000E+00 0.  1.
         11    1    3    3    0    0 -0.14804884988E+02 -0.28931399369E+01  0.87837987516E+01  0.17455944517E+02  0.51100000000E-03 0. -1.
        -11    1    3    3    0    0  0.53674038952E+00 -0.74543368187E+01 -0.45382939441E+01  0.87436456834E+01  0.51100000000E-03 0.  1.
        -12    1    3    3    0    0  0.27585139456E+02 -0.13089653298E+02  0.12786202670E+02  0.33102355218E+02  0.00000000000E+00 0.  1.
</event>
<event>
 7    1  0.6489567E-013  0.5930198E+02  0.7816164E-02  0.1266605E+00
        -11   -1    0    0    0    0  0.00000000000E+00  0.00000000000E+00  0.45593999997E+02  0.45594000000E+02  0.51100000000E-03 0.  1.
         11   -1    0    0    0    0 -0.00000000000E+00 -0.00000000000E+00 -0.45593999997E+02  0.45594000000E+02  0.51100000000E-03 0. -1.
    9900012    2    1    2    0    0 -0.25723509411E+02  0.83357206606E+01  0.16897775770E+02  0.59301984236E+02  0.50000073329E+02 0.  0.
        -12    1    1    2    0    0  0.25723509411E+02 -0.83357206606E+01 -0.16897775770E+02  0.31886015764E+02  0.00000000000E+00 0.  1.
         11    1    3    3    0    0 -0.24261096116E+02  0.35292186877E+01  0.18430544823E+02  0.30671503909E+02  0.51100000000E-03 0. -1.
        -11    1    3    3    0    0  0.58431026853E+00  0.11767528228E+02  0.96978690090E+01  0.15259908344E+02  0.51100000000E-03 0.  1.
        -12    1    3    3    0    0 -0.20467235639E+01 -0.69610262553E+01 -0.11230638062E+02  0.13370571983E+02  0.00000000000E+00 0.  1.
</event>
<event>
 7    1  0.6489567E-013  0.5930194E+02  0.7816164E-02  0.1266605E+00
        -11   -1    0    0    0    0  0.00000000000E+00  0.00000000000E+00  0.45593999997E+02  0.45594000000E+02  0.51100000000E-03 0.  1.
         11   -1    0    0    0    0 -0.00000000000E+00 -0.00000000000E+00 -0.45593999997E+02  0.45594000000E+02  0.51100000000E-03 0. -1.
    9900012    2    1    2    0    0 -0.31512734217E+02  0.45734670746E+01  0.16587746946E+01  0.59301944233E+02  0.50000000374E+02 0.  0.
        -12    1    1    2    0    0  0.31512734217E+02 -0.45734670746E+01 -0.16587746946E+01  0.31886055767E+02  0.00000000000E+00 0.  1.
         11    1    3    3    0    0 -0.19698552793E+02  0.13592053850E+02  0.11056404462E+02  0.26363250746E+02  0.51100000000E-03 0. -1.
        -11    1    3    3    0    0  0.10754360563E+01  0.80247639536E+01 -0.82197010057E+01  0.11537629050E+02  0.51100000000E-03 0.  1.
        -12    1    3    3    0    0 -0.12889617480E+02 -0.17043350729E+02 -0.11779287612E+01  0.21401064437E+02  0.00000000000E+00 0.  1.
</event>
<event>
 7    1  0.6489567E-013  0.5930192E+02  0.7816164E-02  0.1266605E+00
        -11   -1    0    0    0    0  0.00000000000E+00  0.00000000000E+00  0.45593999997E+02  0.45594000000E+02  0.51100000000E-03 0.  1.
         11   -1    0    0    0    0 -0.00000000000E+00 -0.00000000000E+00 -0.45593999997E+02  0.45594000000E+02  0.51100000000E-03 0. -1.
    9900012    2    1    2    0    0  0.19553321901E+02  0.17163406895E+02  0.18433854834E+02  0.59301922511E+02  0.49999960759E+02 0.  0.
        -12    1    1    2    0    0 -0.19553321901E+02 -0.17163406895E+02 -0.18433854834E+02  0.31886077489E+02  0.00000000000E+00 0.  1.
         11    1    3    3    0    0 -0.73555957456E+01  0.91015421590E+01 -0.76535920123E+01  0.13982858413E+02  0.51100000000E-03 0. -1.
        -11    1    3    3    0    0  0.95937480611E+01  0.14537449987E+02  0.18286244084E+02  0.25253993287E+02  0.51100000000E-03 0.  1.
        -12    1    3    3    0    0  0.17315169585E+02 -0.64755852512E+01  0.78012027617E+01  0.20065070811E+02  0.00000000000E+00 0.  1.
</event>
<event>
 7    1  0.6489567E-013  0.5930192E+02  0.7816164E-02  0.1266605E+00
        -11   -1    0    0    0    0  0.00000000000E+00  0.00000000000E+00  0.45593999997E+02  0.45594000000E+02  0.51100000000E-03 0.  1.
         11   -1    0    0    0    0 -0.00000000000E+00 -0.00000000000E+00 -0.45593999997E+02  0.45594000000E+02  0.51100000000E-03 0. -1.
    9900012    2    1    2    0    0  0.14458741345E+02  0.28115025245E+02 -0.41487914719E+01  0.59301916570E+02  0.49999949924E+02 0.  0.
        -12    1    1    2    0    0 -0.14458741345E+02 -0.28115025245E+02  0.41487914719E+01  0.31886083430E+02  0.00000000000E+00 0.  1.
         11    1    3    3    0    0  0.70297692044E+01  0.12398725951E+02  0.16100074554E+02  0.21502522205E+02  0.51100000000E-03 0.  1.
        -11    1    3    3    0    0  0.13581604101E+01  0.14627727156E+02  0.18952625890E+01  0.14812394202E+02  0.51100000000E-03 0. -1.
         12    1    3    3    0    0  0.60708117307E+01  0.10885721382E+01 -0.22144128615E+02  0.22987000163E+02  0.00000000000E+00 0. -1.
</event>
<event>
 7    1  0.6489567E-013  0.5930194E+02  0.7816164E-02  0.1266605E+00
        -11   -1    0    0    0    0  0.00000000000E+00  0.00000000000E+00  0.45593999997E+02  0.45594000000E+02  0.51100000000E-03 0. -1.
         11   -1    0    0    0    0 -0.00000000000E+00 -0.00000000000E+00 -0.45593999997E+02  0.45594000000E+02  0.51100000000E-03 0.  1.
    9900012    2    1    2    0    0  0.28487608216E+02  0.87715223738E+01  0.11324190526E+02  0.59301941640E+02  0.49999995646E+02 0.  0.
        -12    1    1    2    0    0 -0.28487608216E+02 -0.87715223738E+01 -0.11324190526E+02  0.31886058360E+02  0.00000000000E+00 0.  1.
         11    1    3    3    0    0  0.30016130176E+02  0.25477937999E+02  0.11320009441E+02  0.40966278931E+02  0.51100000000E-03 0. -1.
        -11    1    3    3    0    0 -0.64384571344E+00 -0.30207701702E+01  0.29915226043E+01  0.42998601695E+01  0.51100000000E-03 0.  1.
        -12    1    3    3    0    0 -0.88467624680E+00 -0.13685645455E+02 -0.29873415185E+01  0.14035802540E+02  0.00000000000E+00 0.  1.
</event>
<event>
 7    1  0.6489567E-013  0.5930194E+02  0.7816164E-02  0.1266605E+00
        -11   -1    0    0    0    0  0.00000000000E+00  0.00000000000E+00  0.45593999997E+02  0.45594000000E+02  0.51100000000E-03 0. -1.
         11   -1    0    0    0    0 -0.00000000000E+00 -0.00000000000E+00 -0.45593999997E+02  0.45594000000E+02  0.51100000000E-03 0.  1.
    9900012    2    1    2    0    0  0.14035534679E+02 -0.27793825401E+02  0.68722713527E+01  0.59301935995E+02  0.49999985351E+02 0.  0.
        -12    1    1    2    0    0 -0.14035534679E+02  0.27793825401E+02 -0.68722713527E+01  0.31886064005E+02  0.00000000000E+00 0.  1.
         11    1    3    3    0    0  0.15189624719E+02 -0.13354755591E+02 -0.75748421928E+01  0.21597509822E+02  0.51100000000E-03 0. -1.
        -11    1    3    3    0    0 -0.20082474802E+01 -0.22886878421E+02  0.17286046930E+02  0.28751516143E+02  0.51100000000E-03 0.  1.
        -12    1    3    3    0    0  0.85415744033E+00  0.84478086105E+01 -0.28389333843E+01  0.89529100305E+01  0.00000000000E+00 0.  1.
</event>
<event>
 7    1  0.6489567E-013  0.5930193E+02  0.7816164E-02  0.1266605E+00
        -11   -1    0    0    0    0  0.00000000000E+00  0.00000000000E+00  0.45593999997E+02  0.45594000000E+02  0.51100000000E-03 0.  1.
         11   -1    0    0    0    0 -0.00000000000E+00 -0.00000000000E+00 -0.45593999997E+02  0.45594000000E+02  0.51100000000E-03 0. -1.
    9900012    2    1    2    0    0 -0.13115597771E+02 -0.17043423252E+02 -0.23541973539E+02  0.59301926251E+02  0.49999967579E+02 0.  0.
        -12    1    1    2    0    0  0.13115597771E+02  0.17043423252E+02  0.23541973539E+02  0.31886073749E+02  0.00000000000E+00 0.  1.
         11    1    3    3    0    0 -0.18633453190E+01  0.51419590396E-01  0.40734115408E+01  0.44796631117E+01  0.51100000000E-03 0. -1.
        -11    1    3    3    0    0  0.55297775086E+01  0.66639572763E+01  0.58741645085E+01  0.10463869973E+02  0.51100000000E-03 0.  1.
         12    1    3    3    0    0 -0.16782029961E+02 -0.23758800119E+02 -0.33489549588E+02  0.44358393166E+02  0.00000000000E+00 0. -1.
</event>
<event>
 7    1  0.6489567E-013  0.5930197E+02  0.7816164E-02  0.1266605E+00
        -11   -1    0    0    0    0  0.00000000000E+00  0.00000000000E+00  0.45593999997E+02  0.45594000000E+02  0.51100000000E-03 0.  1.
         11   -1    0    0    0    0 -0.00000000000E+00 -0.00000000000E+00 -0.45593999997E+02  0.45594000000E+02  0.51100000000E-03 0. -1.
    9900012    2    1    2    0    0 -0.21638921340E+02  0.68404779301E+01 -0.22398305602E+02  0.59301966241E+02  0.50000040511E+02 0.  0.
        -12    1    1    2    0    0  0.21638921340E+02 -0.68404779301E+01  0.22398305602E+02  0.31886033759E+02  0.00000000000E+00 0.  1.
         11    1    3    3    0    0  0.23541402445E+01  0.16126267883E+02 -0.11111274905E+02  0.19724576609E+02  0.51100000000E-03 0. -1.
        -11    1    3    3    0    0 -0.64440935428E+01 -0.31929204185E+01 -0.18345679718E+02  0.19704949809E+02  0.51100000000E-03 0.  1.
        -12    1    3    3    0    0 -0.17548968042E+02 -0.60928695348E+01  0.70586490211E+01  0.19872439823E+02  0.00000000000E+00 0.  1.
</event>
<event>
 7    1  0.6489567E-013  0.5930195E+02  0.7816164E-02  0.1266605E+00
        -11   -1    0    0    0    0  0.00000000000E+00  0.00000000000E+00  0.45593999997E+02  0.45594000000E+02  0.51100000000E-03 0. -1.
         11   -1    0    0    0    0 -0.00000000000E+00 -0.00000000000E+00 -0.45593999997E+02  0.45594000000E+02  0.51100000000E-03 0.  1.
    9900012    2    1    2    0    0  0.99525163328E+01  0.27851136310E+02  0.11915618238E+02  0.59301947672E+02  0.50000006646E+02 0.  0.
        -12    1    1    2    0    0 -0.99525163328E+01 -0.27851136310E+02 -0.11915618238E+02  0.31886052328E+02  0.00000000000E+00 0.  1.
         11    1    3    3    0    0  0.11382458471E+02  0.84750571678E+00  0.13779352658E+02  0.17892713230E+02  0.51100000000E-03 0. -1.
        -11    1    3    3    0    0 -0.37435575086E+01 -0.53043180170E+01 -0.58941589554E+01  0.87687583213E+01  0.51100000000E-03 0.  1.
         12    1    3    3    0    0  0.23136153705E+01  0.32307948610E+02  0.40304245356E+01  0.32640476121E+02  0.00000000000E+00 0. -1.
</event>
<event>
 7    1  0.6799191E-013  0.5930193E+02  0.7816164E-02  0.1266605E+00
        -11   -1    0    0    0    0  0.00000000000E+00  0.00000000000E+00  0.45593999997E+02  0.45594000000E+02  0.51100000000E-03 0. -1.
         11   -1    0    0    0    0 -0.00000000000E+00 -0.00000000000E+00 -0.45593999997E+02  0.45594000000E+02  0.51100000000E-03 0.  1.
    9900012    2    1    2    0    0  0.67693454760E+01 -0.15833786758E+02  0.26836333995E+02  0.59301926809E+02  0.49999968597E+02 0.  0.
        -12    1    1    2    0    0 -0.67693454760E+01  0.15833786758E+02 -0.26836333995E+02  0.31886073191E+02  0.00000000000E+00 0.  1.
         11    1    3    3    0    0 -0.73291684867E+01 -0.97120983147E+01  0.26180672833E+02  0.28869866551E+02  0.51100000000E-03 0. -1.
        -11    1    3    3    0    0 -0.11979036025E+01 -0.12113992034E+02 -0.48530433332E+01  0.13104800872E+02  0.51100000000E-03 0.  1.
        -12    1    3    3    0    0  0.15296417565E+02  0.59923035907E+01  0.55087044947E+01  0.17327259387E+02  0.00000000000E+00 0.  1.
</event>
<event>
 7    1  0.6489567E-013  0.5930194E+02  0.7816164E-02  0.1266605E+00
        -11   -1    0    0    0    0  0.00000000000E+00  0.00000000000E+00  0.45593999997E+02  0.45594000000E+02  0.51100000000E-03 0. -1.
         11   -1    0    0    0    0 -0.00000000000E+00 -0.00000000000E+00 -0.45593999997E+02  0.45594000000E+02  0.51100000000E-03 0.  1.
    9900012    2    1    2    0    0 -0.85092634650E+01  0.29579640522E+02 -0.83281673813E+01  0.59301936115E+02  0.49999985569E+02 0.  0.
        -12    1    1    2    0    0  0.85092634650E+01 -0.29579640522E+02  0.83281673813E+01  0.31886063885E+02  0.00000000000E+00 0.  1.
         11    1    3    3    0    0 -0.84251502301E+01  0.15162121476E+01  0.12693049804E+02  0.15309982667E+02  0.51100000000E-03 0. -1.
        -11    1    3    3    0    0 -0.56784689031E+01 -0.33958376977E+01 -0.46695180545E+01  0.80982172035E+01  0.51100000000E-03 0.  1.
        -12    1    3    3    0    0  0.55943556681E+01  0.31459266073E+02 -0.16351699130E+02  0.35893736245E+02  0.00000000000E+00 0.  1.
</event>
<event>
 7    1  0.6489567E-013  0.5930201E+02  0.7816164E-02  0.1266605E+00
        -11   -1    0    0    0    0  0.00000000000E+00  0.00000000000E+00  0.45593999997E+02  0.45594000000E+02  0.51100000000E-03 0. -1.
         11   -1    0    0    0    0 -0.00000000000E+00 -0.00000000000E+00 -0.45593999997E+02  0.45594000000E+02  0.51100000000E-03 0.  1.
    9900012    2    1    2    0    0 -0.17371733329E+02  0.17893956079E+02  0.19868199443E+02  0.59302013547E+02  0.50000126786E+02 0.  0.
        -12    1    1    2    0    0  0.17371733329E+02 -0.17893956079E+02 -0.19868199443E+02  0.31885986453E+02  0.00000000000E+00 0.  1.
         11    1    3    3    0    0  0.29870492946E+01  0.84287429450E+00  0.59890961294E+01  0.67455298734E+01  0.51100000000E-03 0. -1.
        -11    1    3    3    0    0  0.70590485572E+01 -0.30637070994E+01  0.16747364820E+02  0.18430699835E+02  0.51100000000E-03 0.  1.
         12    1    3    3    0    0 -0.27417831181E+02  0.20114788884E+02 -0.28682615070E+01  0.34125783838E+02  0.00000000000E+00 0. -1.
</event>
<event>
 7    1  0.6489567E-013  0.5930194E+02  0.7816164E-02  0.1266605E+00
        -11   -1    0    0    0    0  0.00000000000E+00  0.00000000000E+00  0.45593999997E+02  0.45594000000E+02  0.51100000000E-03 0. -1.
         11   -1    0    0    0    0 -0.00000000000E+00 -0.00000000000E+00 -0.45593999997E+02  0.45594000000E+02  0.51100000000E-03 0.  1.
    9900012    2    1    2    0    0  0.18841469171E+02  0.23975506354E+02 -0.93217582149E+01  0.59301936560E+02  0.49999986381E+02 0.  0.
        -12    1    1    2    0    0 -0.18841469171E+02 -0.23975506354E+02  0.93217582149E+01  0.31886063440E+02  0.00000000000E+00 0.  1.
         11    1    3    3    0    0 -0.30048678074E+01  0.11925053362E+02 -0.13775057420E+02  0.18465869474E+02  0.51100000000E-03 0. -1.
        -11    1    3    3    0    0 -0.77780546564E+01 -0.12486093313E+01  0.26576487275E+01  0.83138593036E+01  0.51100000000E-03 0.  1.
         12    1    3    3    0    0  0.29624391635E+02  0.13299062323E+02  0.17956504777E+01  0.32522207783E+02  0.00000000000E+00 0. -1.
</event>
<event>
 7    1  0.6489567E-013  0.5930192E+02  0.7816164E-02  0.1266605E+00
        -11   -1    0    0    0    0  0.00000000000E+00  0.00000000000E+00  0.45593999997E+02  0.45594000000E+02  0.51100000000E-03 0.  1.
         11   -1    0    0    0    0 -0.00000000000E+00 -0.00000000000E+00 -0.45593999997E+02  0.45594000000E+02  0.51100000000E-03 0. -1.
    9900012    2    1    2    0    0  0.27811433532E+02 -0.15499727825E+02 -0.17333669856E+01  0.59301922178E+02  0.49999960151E+02 0.  0.
        -12    1    1    2    0    0 -0.27811433532E+02  0.15499727825E+02  0.17333669856E+01  0.31886077822E+02  0.00000000000E+00 0.  1.
         11    1    3    3    0    0  0.21770932907E+02 -0.10780005891E+02 -0.23205969745E+00  0.24294771014E+02  0.51100000000E-03 0. -1.
        -11    1    3    3    0    0 -0.46829063100E+01  0.12648304916E+02  0.36160255858E+01  0.13963698294E+02  0.51100000000E-03 0.  1.
         12    1    3    3    0    0  0.10723406935E+02 -0.17368026850E+02 -0.51173328740E+01  0.21043452870E+02  0.00000000000E+00 0. -1.
</event>
<event>
 7    1  0.6489567E-013  0.5930191E+02  0.7816164E-02  0.1266605E+00
        -11   -1    0    0    0    0  0.00000000000E+00  0.00000000000E+00  0.45593999997E+02  0.45594000000E+02  0.51100000000E-03 0.  1.
         11   -1    0    0    0    0 -0.00000000000E+00 -0.00000000000E+00 -0.45593999997E+02  0.45594000000E+02  0.51100000000E-03 0. -1.
    9900012    2    1    2    0    0  0.43840699161E+01  0.28074038360E+01 -0.31458249341E+02  0.59301905273E+02  0.49999929321E+02 0.  0.
        -12    1    1    2    0    0 -0.43840699161E+01 -0.28074038360E+01  0.31458249341E+02  0.31886094727E+02  0.00000000000E+00 0.  1.
         11    1    3    3    0    0 -0.11514738586E+02 -0.51959613113E+01 -0.23172792807E+02  0.26392528212E+02  0.51100000000E-03 0. -1.
        -11    1    3    3    0    0 -0.57366218733E+01  0.52913543911E+01 -0.78948031524E+01  0.11101134126E+02  0.51100000000E-03 0.  1.
        -12    1    3    3    0    0  0.21635430375E+02  0.27120107563E+01 -0.39065338155E+00  0.21808242936E+02  0.00000000000E+00 0.  1.
</event>
<event>
 7    1  0.6489567E-013  0.5930195E+02  0.7816164E-02  0.1266605E+00
        -11   -1    0    0    0    0  0.00000000000E+00  0.00000000000E+00  0.45593999997E+02  0.45594000000E+02  0.51100000000E-03 0.  1.
         11   -1    0    0    0    0 -0.00000000000E+00 -0.00000000000E+00 -0.45593999997E+02  0.45594000000E+02  0.51100000000E-03 0. -1.
    9900012    2    1    2    0    0 -0.86187606995E+01  0.64536649827E+01 -0.30013120549E+02  0.59301949245E+02  0.50000009514E+02 0.  0.
        -12    1    1    2    0    0  0.86187606995E+01 -0.64536649827E+01  0.30013120549E+02  0.31886050755E+02  0.00000000000E+00 0.  1.
         11    1    3    3    0    0 -0.10710482043E+01 -0.42128516103E+01  0.33589950304E+01  0.54934607327E+01  0.51100000000E-03 0.  1.
        -11    1    3    3    0    0 -0.20449787874E+02  0.26667730829E+00 -0.30897693049E+02  0.37053102122E+02  0.51100000000E-03 0. -1.
         12    1    3    3    0    0  0.12902075378E+02  0.10399839285E+02 -0.24744225302E+01  0.16755386390E+02  0.00000000000E+00 0. -1.
</event>
<event>
 7    1  0.6489567E-013  0.5930195E+02  0.7816164E-02  0.1266605E+00
        -11   -1    0    0    0    0  0.00000000000E+00  0.00000000000E+00  0.45593999997E+02  0.45594000000E+02  0.51100000000E-03 0. -1.
         11   -1    0    0    0    0 -0.00000000000E+00 -0.00000000000E+00 -0.45593999997E+02  0.45594000000E+02  0.51100000000E-03 0.  1.
    9900012    2    1    2    0    0  0.23430615344E+02  0.19934862780E+02  0.83861567037E+01  0.59301951111E+02  0.50000012919E+02 0.  0.
        -12    1    1    2    0    0 -0.23430615344E+02 -0.19934862780E+02 -0.83861567037E+01  0.31886048889E+02  0.00000000000E+00 0.  1.
         11    1    3    3    0    0 -0.27984476505E+01 -0.53320547999E+00 -0.46851890091E+01  0.54833031695E+01  0.51100000000E-03 0. -1.
        -11    1    3    3    0    0  0.80734727179E+01 -0.12177632302E+02  0.13734478480E+01  0.14675218890E+02  0.51100000000E-03 0.  1.
         12    1    3    3    0    0  0.18155590277E+02  0.32645700562E+02  0.11697897865E+02  0.39143429052E+02  0.00000000000E+00 0. -1.
</event>
<event>
 7    1  0.6489567E-013  0.5930192E+02  0.7816164E-02  0.1266605E+00
        -11   -1    0    0    0    0  0.00000000000E+00  0.00000000000E+00  0.45593999997E+02  0.45594000000E+02  0.51100000000E-03 0. -1.
         11   -1    0    0    0    0 -0.00000000000E+00 -0.00000000000E+00 -0.45593999997E+02  0.45594000000E+02  0.51100000000E-03 0.  1.
    9900012    2    1    2    0    0  0.17566634727E+02 -0.31674680298E+01  0.26421631463E+02  0.59301919675E+02  0.49999955586E+02 0.  0.
        -12    1    1    2    0    0 -0.17566634727E+02  0.31674680298E+01 -0.26421631463E+02  0.31886080325E+02  0.00000000000E+00 0.  1.
         11    1    3    3    0    0  0.47082697406E+01  0.21639058100E+01  0.18475647271E+02  0.19188533937E+02  0.51100000000E-03 0. -1.
        -11    1    3    3    0    0 -0.94531661299E+01 -0.92290716597E+01  0.11087231327E+02  0.17247168241E+02  0.51100000000E-03 0.  1.
        -12    1    3    3    0    0  0.22311531116E+02  0.38976978199E+01 -0.31412471351E+01  0.22866217497E+02  0.00000000000E+00 0.  1.
</event>
<event>
 7    1  0.6489567E-013  0.5930194E+02  0.7816164E-02  0.1266605E+00
        -11   -1    0    0    0    0  0.00000000000E+00  0.00000000000E+00  0.45593999997E+02  0.45594000000E+02  0.51100000000E-03 0. -1.
         11   -1    0    0    0    0 -0.00000000000E+00 -0.00000000000E+00 -0.45593999997E+02  0.45594000000E+02  0.51100000000E-03 0.  1.
    9900012    2    1    2    0    0 -0.84509772515E+01  0.26589917486E+02 -0.15436258656E+02  0.59301940197E+02  0.49999993015E+02 0.  0.
        -12    1    1    2    0    0  0.84509772515E+01 -0.26589917486E+02  0.15436258656E+02  0.31886059803E+02  0.00000000000E+00 0.  1.
         11    1    3    3    0    0  0.80455900093E+01  0.39107166041E+01  0.84002346328E+01  0.12271477707E+02  0.51100000000E-03 0. -1.
        -11    1    3    3    0    0 -0.37673318867E+01  0.33270792145E+01  0.69041485640E+01  0.85398778269E+01  0.51100000000E-03 0.  1.
        -12    1    3    3    0    0 -0.12729235374E+02  0.19352121668E+02 -0.30740641853E+02  0.38490584664E+02  0.00000000000E+00 0.  1.
</event>
<event>
 7    1  0.6489567E-013  0.5930195E+02  0.7816164E-02  0.1266605E+00
        -11   -1    0    0    0    0  0.00000000000E+00  0.00000000000E+00  0.45593999997E+02  0.45594000000E+02  0.51100000000E-03 0.  1.
         11   -1    0    0    0    0 -0.00000000000E+00 -0.00000000000E+00 -0.45593999997E+02  0.45594000000E+02  0.51100000000E-03 0. -1.
    9900012    2    1    2    0    0 -0.18155636866E+02 -0.17919376055E+02 -0.19130839380E+02  0.59301949703E+02  0.50000010349E+02 0.  0.
        -12    1    1    2    0    0  0.18155636866E+02  0.17919376055E+02  0.19130839380E+02  0.31886050297E+02  0.00000000000E+00 0.  1.
         11    1    3    3    0    0 -0.12692158335E+02 -0.16070761624E+02 -0.85213375802E-01  0.20478464882E+02  0.51100000000E-03 0. -1.
        -11    1    3    3    0    0  0.20807510829E+01 -0.12041308826E+02  0.37121580213E+01  0.12771169122E+02  0.51100000000E-03 0.  1.
         12    1    3    3    0    0 -0.75442296138E+01  0.10192694395E+02 -0.22757784025E+02  0.26052315698E+02  0.00000000000E+00 0. -1.
</event>
<event>
 7    1  0.6489567E-013  0.5930193E+02  0.7816164E-02  0.1266605E+00
        -11   -1    0    0    0    0  0.00000000000E+00  0.00000000000E+00  0.45593999997E+02  0.45594000000E+02  0.51100000000E-03 0. -1.
         11   -1    0    0    0    0 -0.00000000000E+00 -0.00000000000E+00 -0.45593999997E+02  0.45594000000E+02  0.51100000000E-03 0.  1.
    9900012    2    1    2    0    0  0.14982325996E+02 -0.32482171753E+01  0.27958910081E+02  0.59301926865E+02  0.49999968699E+02 0.  0.
        -12    1    1    2    0    0 -0.14982325996E+02  0.32482171753E+01 -0.27958910081E+02  0.31886073135E+02  0.00000000000E+00 0.  1.
         11    1    3    3    0    0  0.82755599494E+01 -0.24178295095E+01  0.59599818601E+01  0.10481038882E+02  0.51100000000E-03 0. -1.
        -11    1    3    3    0    0  0.85141814032E+01 -0.75315400839E+00  0.34829723459E+02  0.35863186730E+02  0.51100000000E-03 0.  1.
        -12    1    3    3    0    0 -0.18074153566E+01 -0.77233657411E-01 -0.12830795238E+02  0.12957701253E+02  0.00000000000E+00 0.  1.
</event>
<event>
 7    1  0.6489567E-013  0.5930195E+02  0.7816164E-02  0.1266605E+00
        -11   -1    0    0    0    0  0.00000000000E+00  0.00000000000E+00  0.45593999997E+02  0.45594000000E+02  0.51100000000E-03 0. -1.
         11   -1    0    0    0    0 -0.00000000000E+00 -0.00000000000E+00 -0.45593999997E+02  0.45594000000E+02  0.51100000000E-03 0.  1.
    9900012    2    1    2    0    0 -0.20257850819E+02  0.15449831531E+02  0.19173999170E+02  0.59301951981E+02  0.50000014504E+02 0.  0.
        -12    1    1    2    0    0  0.20257850819E+02 -0.15449831531E+02 -0.19173999170E+02  0.31886048019E+02  0.00000000000E+00 0.  1.
         11    1    3    3    0    0 -0.12057107244E+02 -0.99707815663E+00  0.62989380819E+01  0.13639817490E+02  0.51100000000E-03 0.  1.
        -11    1    3    3    0    0 -0.23901501764E+02  0.14320924599E+02  0.67028141118E+01  0.28658303949E+02  0.51100000000E-03 0. -1.
        -12    1    3    3    0    0  0.15700758190E+02  0.21259850887E+01  0.61722469760E+01  0.17003830541E+02  0.00000000000E+00 0.  1.
</event>
<event>
 7    1  0.6489567E-013  0.5930194E+02  0.7816164E-02  0.1266605E+00
        -11   -1    0    0    0    0  0.00000000000E+00  0.00000000000E+00  0.45593999997E+02  0.45594000000E+02  0.51100000000E-03 0. -1.
         11   -1    0    0    0    0 -0.00000000000E+00 -0.00000000000E+00 -0.45593999997E+02  0.45594000000E+02  0.51100000000E-03 0.  1.
    9900012    2    1    2    0    0  0.86582222472E+01 -0.28118582260E+02  0.12292329769E+02  0.59301939536E+02  0.49999991808E+02 0.  0.
        -12    1    1    2    0    0 -0.86582222472E+01  0.28118582260E+02 -0.12292329769E+02  0.31886060464E+02  0.00000000000E+00 0.  1.
         11    1    3    3    0    0  0.17484707205E+02  0.16898497743E+01  0.89394457206E+01  0.19710004271E+02  0.51100000000E-03 0. -1.
        -11    1    3    3    0    0  0.80714100902E+01 -0.73842823203E+01  0.35874611284E+01  0.11512826058E+02  0.51100000000E-03 0.  1.
        -12    1    3    3    0    0 -0.16897895048E+02 -0.22424149713E+02 -0.23457707988E+00  0.28079109207E+02  0.00000000000E+00 0.  1.
</event>
<event>
 7    1  0.6489567E-013  0.5930217E+02  0.7816164E-02  0.1266604E+00
        -11   -1    0    0    0    0  0.00000000000E+00  0.00000000000E+00  0.45593999997E+02  0.45594000000E+02  0.51100000000E-03 0. -1.
         11   -1    0    0    0    0 -0.00000000000E+00 -0.00000000000E+00 -0.45593999997E+02  0.45594000000E+02  0.51100000000E-03 0.  1.
    9900012    2    1    2    0    0 -0.46292656983E+01 -0.17600231507E+02  0.26182203617E+02  0.59302171859E+02  0.50000415508E+02 0.  0.
        -12    1    1    2    0    0  0.46292656983E+01  0.17600231507E+02 -0.26182203617E+02  0.31885828141E+02  0.00000000000E+00 0.  1.
         11    1    3    3    0    0  0.33029259880E+01 -0.13217019198E+02  0.11012129236E+02  0.17517588508E+02  0.51100000000E-03 0. -1.
        -11    1    3    3    0    0  0.20820746518E+01 -0.16833308093E+02 -0.33872872468E+01  0.17296502865E+02  0.51100000000E-03 0.  1.
        -12    1    3    3    0    0 -0.10014266338E+02  0.12450095784E+02  0.18557361628E+02  0.24488080487E+02  0.00000000000E+00 0.  1.
</event>
<event>
 7    1  0.6489567E-013  0.5930196E+02  0.7816164E-02  0.1266605E+00
        -11   -1    0    0    0    0  0.00000000000E+00  0.00000000000E+00  0.45593999997E+02  0.45594000000E+02  0.51100000000E-03 0. -1.
         11   -1    0    0    0    0 -0.00000000000E+00 -0.00000000000E+00 -0.45593999997E+02  0.45594000000E+02  0.51100000000E-03 0.  1.
    9900012    2    1    2    0    0  0.14787120628E+01 -0.15869586557E+02  0.27616826850E+02  0.59301960859E+02  0.50000030696E+02 0.  0.
        -12    1    1    2    0    0 -0.14787120628E+01  0.15869586557E+02 -0.27616826850E+02  0.31886039141E+02  0.00000000000E+00 0.  1.
         11    1    3    3    0    0 -0.14025292194E+01 -0.11904869010E+02  0.14504459968E+02  0.18816810399E+02  0.51100000000E-03 0. -1.
        -11    1    3    3    0    0  0.11127125583E+02 -0.18457704485E+02  0.61245244210E+01  0.22405570251E+02  0.51100000000E-03 0.  1.
        -12    1    3    3    0    0 -0.82458843013E+01  0.14492986938E+02  0.69878424605E+01  0.18079580209E+02  0.00000000000E+00 0.  1.
</event>
<event>
 7    1  0.6489567E-013  0.5930193E+02  0.7816164E-02  0.1266605E+00
        -11   -1    0    0    0    0  0.00000000000E+00  0.00000000000E+00  0.45593999997E+02  0.45594000000E+02  0.51100000000E-03 0.  1.
         11   -1    0    0    0    0 -0.00000000000E+00 -0.00000000000E+00 -0.45593999997E+02  0.45594000000E+02  0.51100000000E-03 0. -1.
    9900012    2    1    2    0    0  0.46754980671E+01 -0.26595664463E+02 -0.16956754720E+02  0.59301934375E+02  0.49999982396E+02 0.  0.
        -12    1    1    2    0    0 -0.46754980671E+01  0.26595664463E+02  0.16956754720E+02  0.31886065625E+02  0.00000000000E+00 0.  1.
         11    1    3    3    0    0  0.92218583954E+01 -0.25341100077E+02 -0.24985451209E+01  0.27082406713E+02  0.51100000000E-03 0. -1.
        -11    1    3    3    0    0 -0.61208250758E+01  0.60174287564E+01  0.59852991308E+01  0.10464117468E+02  0.51100000000E-03 0.  1.
         12    1    3    3    0    0  0.15744647476E+01 -0.72719931417E+01 -0.20443508730E+02  0.21755410193E+02  0.00000000000E+00 0. -1.
</event>
<event>
 7    1  0.6489567E-013  0.5930195E+02  0.7816164E-02  0.1266605E+00
        -11   -1    0    0    0    0  0.00000000000E+00  0.00000000000E+00  0.45593999997E+02  0.45594000000E+02  0.51100000000E-03 0.  1.
         11   -1    0    0    0    0 -0.00000000000E+00 -0.00000000000E+00 -0.45593999997E+02  0.45594000000E+02  0.51100000000E-03 0. -1.
    9900012    2    1    2    0    0 -0.77102450257E+01 -0.24064988730E+02 -0.19446038922E+02  0.59301953041E+02  0.50000016438E+02 0.  0.
        -12    1    1    2    0    0  0.77102450257E+01  0.24064988730E+02  0.19446038922E+02  0.31886046959E+02  0.00000000000E+00 0.  1.
         11    1    3    3    0    0 -0.12689283147E+01 -0.45704928433E+01 -0.80663194793E+01  0.93576222461E+01  0.51100000000E-03 0. -1.
        -11    1    3    3    0    0  0.52355800256E+01  0.13046545584E+02 -0.33343717339E+01  0.14447895521E+02  0.51100000000E-03 0.  1.
        -12    1    3    3    0    0 -0.11676896737E+02 -0.32541041471E+02 -0.80453477084E+01  0.35496435274E+02  0.00000000000E+00 0.  1.
</event>
<event>
 7    1  0.6489567E-013  0.5930195E+02  0.7816164E-02  0.1266605E+00
        -11   -1    0    0    0    0  0.00000000000E+00  0.00000000000E+00  0.45593999997E+02  0.45594000000E+02  0.51100000000E-03 0.  1.
         11   -1    0    0    0    0 -0.00000000000E+00 -0.00000000000E+00 -0.45593999997E+02  0.45594000000E+02  0.51100000000E-03 0. -1.
    9900012    2    1    2    0    0  0.10068768355E+02  0.29858168717E+02  0.48816102050E+01  0.59301945783E+02  0.50000003202E+02 0.  0.
        -12    1    1    2    0    0 -0.10068768355E+02 -0.29858168717E+02 -0.48816102050E+01  0.31886054217E+02  0.00000000000E+00 0.  1.
         11    1    3    3    0    0  0.52863937584E+01  0.23486482260E+02  0.31147214886E+01  0.24274725500E+02  0.51100000000E-03 0. -1.
        -11    1    3    3    0    0  0.25476410280E+01  0.12788737384E+02  0.15167434837E+02  0.20002333826E+02  0.51100000000E-03 0.  1.
        -12    1    3    3    0    0  0.22347335689E+01 -0.64170509274E+01 -0.13400546120E+02  0.15024886457E+02  0.00000000000E+00 0.  1.
</event>
<event>
 7    1  0.6489567E-013  0.5930194E+02  0.7816164E-02  0.1266605E+00
        -11   -1    0    0    0    0  0.00000000000E+00  0.00000000000E+00  0.45593999997E+02  0.45594000000E+02  0.51100000000E-03 0.  1.
         11   -1    0    0    0    0 -0.00000000000E+00 -0.00000000000E+00 -0.45593999997E+02  0.45594000000E+02  0.51100000000E-03 0. -1.
    9900012    2    1    2    0    0 -0.15514152033E+02 -0.10121223486E+02 -0.25953661136E+02  0.59301943415E+02  0.49999998883E+02 0.  0.
        -12    1    1    2    0    0  0.15514152033E+02  0.10121223486E+02  0.25953661136E+02  0.31886056585E+02  0.00000000000E+00 0.  1.
         11    1    3    3    0    0 -0.20976306061E+02 -0.15394352714E+02 -0.18159650358E+00  0.26019694252E+02  0.51100000000E-03 0. -1.
        -11    1    3    3    0    0  0.24532389547E+01  0.25613734681E+00  0.30214750961E+01  0.39004230190E+01  0.51100000000E-03 0.  1.
         12    1    3    3    0    0  0.30089150732E+01  0.50169918803E+01 -0.28793539729E+02  0.29381826144E+02  0.00000000000E+00 0. -1.
</event>
<event>
 7    1  0.6489567E-013  0.5930194E+02  0.7816164E-02  0.1266605E+00
        -11   -1    0    0    0    0  0.00000000000E+00  0.00000000000E+00  0.45593999997E+02  0.45594000000E+02  0.51100000000E-03 0. -1.
         11   -1    0    0    0    0 -0.00000000000E+00 -0.00000000000E+00 -0.45593999997E+02  0.45594000000E+02  0.51100000000E-03 0.  1.
    9900012    2    1    2    0    0  0.27523932937E+02  0.11847195819E+01  0.16054603343E+02  0.59301941396E+02  0.49999995201E+02 0.  0.
        -12    1    1    2    0    0 -0.27523932937E+02 -0.11847195819E+01 -0.16054603343E+02  0.31886058604E+02  0.00000000000E+00 0.  1.
         11    1    3    3    0    0  0.74044936238E+01 -0.85251238347E+00 -0.32962746455E+01  0.81497687076E+01  0.51100000000E-03 0. -1.
        -11    1    3    3    0    0  0.32995933236E+02  0.16728019292E+01  0.80236485073E+01  0.33998658974E+02  0.51100000000E-03 0.  1.
         12    1    3    3    0    0 -0.12876493924E+02  0.36443003612E+00  0.11327229481E+02  0.17153513714E+02  0.00000000000E+00 0. -1.
</event>
<event>
 7    1  0.6489567E-013  0.5930195E+02  0.7816164E-02  0.1266605E+00
        -11   -1    0    0    0    0  0.00000000000E+00  0.00000000000E+00  0.45593999997E+02  0.45594000000E+02  0.51100000000E-03 0. -1.
         11   -1    0    0    0    0 -0.00000000000E+00 -0.00000000000E+00 -0.45593999997E+02  0.45594000000E+02  0.51100000000E-03 0.  1.
    9900012    2    1    2    0    0 -0.25182337214E+02 -0.14113765286E+02  0.13541487805E+02  0.59301947091E+02  0.50000005587E+02 0.  0.
        -12    1    1    2    0    0  0.25182337214E+02  0.14113765286E+02 -0.13541487805E+02  0.31886052909E+02  0.00000000000E+00 0.  1.
         11    1    3    3    0    0 -0.19828193168E+02 -0.61687781560E+00  0.19986460886E+02  0.28160191789E+02  0.51100000000E-03 0. -1.
        -11    1    3    3    0    0 -0.92934681286E+01 -0.13549012596E+02  0.64558210249E+01  0.17652816137E+02  0.51100000000E-03 0.  1.
        -12    1    3    3    0    0  0.39393240825E+01  0.52125126077E-01 -0.12900794106E+02  0.13488939166E+02  0.00000000000E+00 0.  1.
</event>
<event>
 7    1  0.6489567E-013  0.5930192E+02  0.7816164E-02  0.1266605E+00
        -11   -1    0    0    0    0  0.00000000000E+00  0.00000000000E+00  0.45593999997E+02  0.45594000000E+02  0.51100000000E-03 0.  1.
         11   -1    0    0    0    0 -0.00000000000E+00 -0.00000000000E+00 -0.45593999997E+02  0.45594000000E+02  0.51100000000E-03 0. -1.
    9900012    2    1    2    0    0  0.25569565026E+02  0.21520535938E+01 -0.18928506868E+02  0.59301915848E+02  0.49999948607E+02 0.  0.
        -12    1    1    2    0    0 -0.25569565026E+02 -0.21520535938E+01  0.18928506868E+02  0.31886084152E+02  0.00000000000E+00 0.  1.
         11    1    3    3    0    0  0.12677290037E+01 -0.69582111602E+01  0.96335372570E+01  0.11951103703E+02  0.51100000000E-03 0. -1.
        -11    1    3    3    0    0  0.32541729018E+01  0.50732098228E+01  0.47953671694E+01  0.77021195610E+01  0.51100000000E-03 0.  1.
         12    1    3    3    0    0  0.21047663120E+02  0.40370549312E+01 -0.33357411295E+02  0.39648692584E+02  0.00000000000E+00 0. -1.
</event>
<event>
 7    1  0.6489567E-013  0.5930198E+02  0.7816164E-02  0.1266605E+00
        -11   -1    0    0    0    0  0.00000000000E+00  0.00000000000E+00  0.45593999997E+02  0.45594000000E+02  0.51100000000E-03 0.  1.
         11   -1    0    0    0    0 -0.00000000000E+00 -0.00000000000E+00 -0.45593999997E+02  0.45594000000E+02  0.51100000000E-03 0. -1.
    9900012    2    1    2    0    0  0.77667624420E+00  0.29204181344E+01 -0.31742500391E+02  0.59301977998E+02  0.50000061953E+02 0.  0.
        -12    1    1    2    0    0 -0.77667624420E+00 -0.29204181344E+01  0.31742500391E+02  0.31886022002E+02  0.00000000000E+00 0.  1.
         11    1    3    3    0    0  0.14293939765E+02  0.94774719313E+01 -0.21446956275E+02  0.27461083772E+02  0.51100000000E-03 0. -1.
        -11    1    3    3    0    0  0.60798242878E+01  0.35906043819E+01  0.85987404904E+00  0.71130926353E+01  0.51100000000E-03 0.  1.
         12    1    3    3    0    0 -0.19597087808E+02 -0.10147658179E+02 -0.11155418165E+02  0.24727801591E+02  0.00000000000E+00 0. -1.
</event>
<event>
 7    1  0.6489567E-013  0.5930194E+02  0.7816164E-02  0.1266605E+00
        -11   -1    0    0    0    0  0.00000000000E+00  0.00000000000E+00  0.45593999997E+02  0.45594000000E+02  0.51100000000E-03 0.  1.
         11   -1    0    0    0    0 -0.00000000000E+00 -0.00000000000E+00 -0.45593999997E+02  0.45594000000E+02  0.51100000000E-03 0. -1.
    9900012    2    1    2    0    0  0.40953157738E+00 -0.21709740723E+02 -0.23350381563E+02  0.59301939135E+02  0.49999991077E+02 0.  0.
        -12    1    1    2    0    0 -0.40953157738E+00  0.21709740723E+02  0.23350381563E+02  0.31886060865E+02  0.00000000000E+00 0.  1.
         11    1    3    3    0    0 -0.36941115451E+01 -0.41923851360E+01 -0.20471643222E+02  0.21220526141E+02  0.51100000000E-03 0. -1.
        -11    1    3    3    0    0 -0.14070170113E+02 -0.27039219291E+01  0.79240941648E+00  0.14349522423E+02  0.51100000000E-03 0.  1.
        -12    1    3    3    0    0  0.18173813236E+02 -0.14813433657E+02 -0.36711477576E+01  0.23731890572E+02  0.00000000000E+00 0.  1.
</event>
<event>
 7    1  0.6489567E-013  0.5930196E+02  0.7816164E-02  0.1266605E+00
        -11   -1    0    0    0    0  0.00000000000E+00  0.00000000000E+00  0.45593999997E+02  0.45594000000E+02  0.51100000000E-03 0.  1.
         11   -1    0    0    0    0 -0.00000000000E+00 -0.00000000000E+00 -0.45593999997E+02  0.45594000000E+02  0.51100000000E-03 0. -1.
    9900012    2    1    2    0    0  0.21120407057E+02 -0.51755823571E+01 -0.23320833286E+02  0.59301960544E+02  0.50000030122E+02 0.  0.
        -12    1    1    2    0    0 -0.21120407057E+02  0.51755823571E+01  0.23320833286E+02  0.31886039456E+02  0.00000000000E+00 0.  1.
         11    1    3    3    0    0 -0.35011007332E+01 -0.57370336308E+01  0.31414453331E+01  0.74188907706E+01  0.51100000000E-03 0. -1.
        -11    1    3    3    0    0 -0.95568997768E+01  0.28477791241E+01 -0.31874198093E+01  0.10469184523E+02  0.51100000000E-03 0.  1.
         12    1    3    3    0    0  0.34178407567E+02 -0.22863278505E+01 -0.23274858810E+02  0.41413885250E+02  0.00000000000E+00 0. -1.
</event>
<event>
 7    1  0.6489567E-013  0.5930195E+02  0.7816164E-02  0.1266605E+00
        -11   -1    0    0    0    0  0.00000000000E+00  0.00000000000E+00  0.45593999997E+02  0.45594000000E+02  0.51100000000E-03 0.  1.
         11   -1    0    0    0    0 -0.00000000000E+00 -0.00000000000E+00 -0.45593999997E+02  0.45594000000E+02  0.51100000000E-03 0. -1.
    9900012    2    1    2    0    0 -0.20606068262E+02 -0.43905187327E+01 -0.23933935054E+02  0.59301953661E+02  0.50000017569E+02 0.  0.
        -12    1    1    2    0    0  0.20606068262E+02  0.43905187327E+01  0.23933935054E+02  0.31886046339E+02  0.00000000000E+00 0.  1.
         11    1    3    3    0    0 -0.23994292929E+02 -0.50351837591E+01 -0.21298606154E+02  0.32476295864E+02  0.51100000000E-03 0. -1.
        -11    1    3    3    0    0 -0.17461094193E+01 -0.86699496466E+01 -0.10403704172E+02  0.13654815478E+02  0.51100000000E-03 0.  1.
        -12    1    3    3    0    0  0.51343340869E+01  0.93146146729E+01  0.77683752722E+01  0.13170842319E+02  0.00000000000E+00 0.  1.
</event>
<event>
 7    1  0.6489567E-013  0.5930188E+02  0.7816164E-02  0.1266605E+00
        -11   -1    0    0    0    0  0.00000000000E+00  0.00000000000E+00  0.45593999997E+02  0.45594000000E+02  0.51100000000E-03 0. -1.
         11   -1    0    0    0    0 -0.00000000000E+00 -0.00000000000E+00 -0.45593999997E+02  0.45594000000E+02  0.51100000000E-03 0.  1.
    9900012    2    1    2    0    0  0.30846589688E+02  0.73946313803E+01  0.32452841036E+01  0.59301881742E+02  0.49999886406E+02 0.  0.
        -12    1    1    2    0    0 -0.30846589688E+02 -0.73946313803E+01 -0.32452841036E+01  0.31886118258E+02  0.00000000000E+00 0.  1.
         11    1    3    3    0    0 -0.86862620591E+00 -0.22472487462E+01  0.11670128989E+02  0.11916230499E+02  0.51100000000E-03 0. -1.
        -11    1    3    3    0    0  0.21393618071E+01 -0.45561248265E+01  0.89449649818E+01  0.10263895029E+02  0.51100000000E-03 0.  1.
        -12    1    3    3    0    0  0.29575854087E+02  0.14198004953E+02 -0.17369809867E+02  0.37121756215E+02  0.00000000000E+00 0.  1.
</event>
<event>
 7    1  0.6489567E-013  0.5930197E+02  0.7816164E-02  0.1266605E+00
        -11   -1    0    0    0    0  0.00000000000E+00  0.00000000000E+00  0.45593999997E+02  0.45594000000E+02  0.51100000000E-03 0.  1.
         11   -1    0    0    0    0 -0.00000000000E+00 -0.00000000000E+00 -0.45593999997E+02  0.45594000000E+02  0.51100000000E-03 0. -1.
    9900012    2    1    2    0    0 -0.16689764928E+02  0.24718930494E+02 -0.11275872126E+02  0.59301967473E+02  0.50000042758E+02 0.  0.
        -12    1    1    2    0    0  0.16689764928E+02 -0.24718930494E+02  0.11275872126E+02  0.31886032527E+02  0.00000000000E+00 0.  1.
         11    1    3    3    0    0  0.33500534339E+01 -0.79640008830E+00  0.57217735151E+01  0.66780089495E+01  0.51100000000E-03 0.  1.
        -11    1    3    3    0    0 -0.15598034018E+02 -0.62236498792E+01 -0.10842926677E+02  0.19990036074E+02  0.51100000000E-03 0. -1.
         12    1    3    3    0    0 -0.44417843437E+01  0.31738980462E+02 -0.61547189639E+01  0.32633922449E+02  0.00000000000E+00 0. -1.
</event>
<event>
 7    1  0.6489567E-013  0.5930198E+02  0.7816164E-02  0.1266605E+00
        -11   -1    0    0    0    0  0.00000000000E+00  0.00000000000E+00  0.45593999997E+02  0.45594000000E+02  0.51100000000E-03 0.  1.
         11   -1    0    0    0    0 -0.00000000000E+00 -0.00000000000E+00 -0.45593999997E+02  0.45594000000E+02  0.51100000000E-03 0. -1.
    9900012    2    1    2    0    0 -0.27620811346E+01  0.17959282144E+02 -0.26202166821E+02  0.59301977146E+02  0.50000060401E+02 0.  0.
        -12    1    1    2    0    0  0.27620811346E+01 -0.17959282144E+02  0.26202166821E+02  0.31886022854E+02  0.00000000000E+00 0.  1.
         11    1    3    3    0    0  0.15902472554E+02  0.80644683341E+01 -0.19241857835E+02  0.26233058839E+02  0.51100000000E-03 0. -1.
        -11    1    3    3    0    0 -0.10284463308E+02  0.14630563118E+02 -0.12633450382E+02  0.21895835939E+02  0.51100000000E-03 0.  1.
        -12    1    3    3    0    0 -0.83800903813E+01 -0.47357493080E+01  0.56731413959E+01  0.11173082368E+02  0.00000000000E+00 0.  1.
</event>
<event>
 7    1  0.6489567E-013  0.5930197E+02  0.7816164E-02  0.1266605E+00
        -11   -1    0    0    0    0  0.00000000000E+00  0.00000000000E+00  0.45593999997E+02  0.45594000000E+02  0.51100000000E-03 0. -1.
         11   -1    0    0    0    0 -0.00000000000E+00 -0.00000000000E+00 -0.45593999997E+02  0.45594000000E+02  0.51100000000E-03 0.  1.
    9900012    2    1    2    0    0  0.21983424730E+02  0.18110927079E+02  0.14333258749E+02  0.59301969377E+02  0.50000046231E+02 0.  0.
        -12    1    1    2    0    0 -0.21983424730E+02 -0.18110927079E+02 -0.14333258749E+02  0.31886030623E+02  0.00000000000E+00 0.  1.
         11    1    3    3    0    0 -0.96919813376E+01 -0.58972175277E+01 -0.14000530197E+00  0.11345980723E+02  0.51100000000E-03 0. -1.
        -11    1    3    3    0    0  0.85294134785E+01 -0.32353698331E+01 -0.63855261398E+00  0.91447395778E+01  0.51100000000E-03 0.  1.
         12    1    3    3    0    0  0.23145992589E+02  0.27243514440E+02  0.15111816665E+02  0.38811249076E+02  0.00000000000E+00 0. -1.
</event>
<event>
 7    1  0.6489567E-013  0.5930188E+02  0.7816164E-02  0.1266605E+00
        -11   -1    0    0    0    0  0.00000000000E+00  0.00000000000E+00  0.45593999997E+02  0.45594000000E+02  0.51100000000E-03 0. -1.
         11   -1    0    0    0    0 -0.00000000000E+00 -0.00000000000E+00 -0.45593999997E+02  0.45594000000E+02  0.51100000000E-03 0.  1.
    9900012    2    1    2    0    0  0.16303358231E+02 -0.18351850324E+02  0.20350293551E+02  0.59301884721E+02  0.49999891839E+02 0.  0.
        -12    1    1    2    0    0 -0.16303358231E+02  0.18351850324E+02 -0.20350293551E+02  0.31886115279E+02  0.00000000000E+00 0.  1.
         11    1    3    3    0    0  0.66074438514E+01  0.10084073949E+02  0.66932250137E+01  0.13789348172E+02  0.51100000000E-03 0. -1.
        -11    1    3    3    0    0  0.98521513749E+01 -0.14298397488E+02 -0.84188195502E+01  0.19297294637E+02  0.51100000000E-03 0.  1.
         12    1    3    3    0    0 -0.15623699505E+00 -0.14137526786E+02  0.22075888088E+02  0.26215241912E+02  0.00000000000E+00 0. -1.
</event>
<event>
 7    1  0.6489567E-013  0.5930201E+02  0.7816164E-02  0.1266605E+00
        -11   -1    0    0    0    0  0.00000000000E+00  0.00000000000E+00  0.45593999997E+02  0.45594000000E+02  0.51100000000E-03 0. -1.
         11   -1    0    0    0    0 -0.00000000000E+00 -0.00000000000E+00 -0.45593999997E+02  0.45594000000E+02  0.51100000000E-03 0.  1.
    9900012    2    1    2    0    0  0.25117645075E+01  0.31775875341E+02  0.83729717602E+00  0.59302011209E+02  0.50000122522E+02 0.  0.
        -12    1    1    2    0    0 -0.25117645075E+01 -0.31775875341E+02 -0.83729717602E+00  0.31885988791E+02  0.00000000000E+00 0.  1.
         11    1    3    3    0    0  0.13060351652E+02  0.16631068629E+02 -0.40586055236E+01  0.21532243452E+02  0.51100000000E-03 0. -1.
        -11    1    3    3    0    0 -0.98222256452E+01  0.22358948911E+02 -0.55596888472E+01  0.25046134499E+02  0.51100000000E-03 0.  1.
        -12    1    3    3    0    0 -0.72636149922E+00 -0.72141421987E+01  0.10455591547E+02  0.12723633258E+02  0.00000000000E+00 0.  1.
</event>
<event>
 7    1  0.6489567E-013  0.5930195E+02  0.7816164E-02  0.1266605E+00
        -11   -1    0    0    0    0  0.00000000000E+00  0.00000000000E+00  0.45593999997E+02  0.45594000000E+02  0.51100000000E-03 0. -1.
         11   -1    0    0    0    0 -0.00000000000E+00 -0.00000000000E+00 -0.45593999997E+02  0.45594000000E+02  0.51100000000E-03 0.  1.
    9900012    2    1    2    0    0  0.73792393280E+01  0.27534447276E+02  0.14287089862E+02  0.59301954517E+02  0.50000019130E+02 0.  0.
        -12    1    1    2    0    0 -0.73792393280E+01 -0.27534447276E+02 -0.14287089862E+02  0.31886045483E+02  0.00000000000E+00 0.  1.
         11    1    3    3    0    0  0.94022975529E+01  0.18138305013E+02  0.16140289932E+02  0.26036709995E+02  0.51100000000E-03 0. -1.
        -11    1    3    3    0    0  0.11758668733E+02  0.13700644125E+02  0.23998893257E+01  0.18213550144E+02  0.51100000000E-03 0.  1.
         12    1    3    3    0    0 -0.13781726958E+02 -0.43045018624E+01 -0.42530893959E+01  0.15051694378E+02  0.00000000000E+00 0. -1.
</event>
<event>
 7    1  0.6489567E-013  0.5930190E+02  0.7816164E-02  0.1266605E+00
        -11   -1    0    0    0    0  0.00000000000E+00  0.00000000000E+00  0.45593999997E+02  0.45594000000E+02  0.51100000000E-03 0.  1.
         11   -1    0    0    0    0 -0.00000000000E+00 -0.00000000000E+00 -0.45593999997E+02  0.45594000000E+02  0.51100000000E-03 0. -1.
    9900012    2    1    2    0    0 -0.26393791103E+02 -0.67996032123E+01 -0.16548608465E+02  0.59301901857E+02  0.49999923092E+02 0.  0.
        -12    1    1    2    0    0  0.26393791103E+02  0.67996032123E+01  0.16548608465E+02  0.31886098143E+02  0.00000000000E+00 0.  1.
         11    1    3    3    0    0 -0.16072613860E+02  0.33066339505E+01 -0.96078768724E+01  0.19015100384E+02  0.51100000000E-03 0. -1.
        -11    1    3    3    0    0  0.65939239542E+01  0.10879321957E+02 -0.18285437546E+01  0.12852355888E+02  0.51100000000E-03 0.  1.
        -12    1    3    3    0    0 -0.16915101197E+02 -0.20985559119E+02 -0.51121878379E+01  0.27434445585E+02  0.00000000000E+00 0.  1.
</event>
<event>
 7    1  0.6489567E-013  0.5930188E+02  0.7816164E-02  0.1266605E+00
        -11   -1    0    0    0    0  0.00000000000E+00  0.00000000000E+00  0.45593999997E+02  0.45594000000E+02  0.51100000000E-03 0. -1.
         11   -1    0    0    0    0 -0.00000000000E+00 -0.00000000000E+00 -0.45593999997E+02  0.45594000000E+02  0.51100000000E-03 0.  1.
    9900012    2    1    2    0    0 -0.17759515720E+02 -0.15163516783E+02  0.21711558642E+02  0.59301883609E+02  0.49999889811E+02 0.  0.
        -12    1    1    2    0    0  0.17759515720E+02  0.15163516783E+02 -0.21711558642E+02  0.31886116391E+02  0.00000000000E+00 0.  1.
         11    1    3    3    0    0  0.10070047651E+01 -0.16514770007E+01  0.10725408175E+02  0.10898431798E+02  0.51100000000E-03 0. -1.
        -11    1    3    3    0    0 -0.26483291624E+02 -0.32600894313E+01  0.19460679447E+02  0.33025913509E+02  0.51100000000E-03 0.  1.
         12    1    3    3    0    0  0.77167711386E+01 -0.10251950351E+02 -0.84745289795E+01  0.15377538302E+02  0.00000000000E+00 0. -1.
</event>
<event>
 7    1  0.6489567E-013  0.5930194E+02  0.7816164E-02  0.1266605E+00
        -11   -1    0    0    0    0  0.00000000000E+00  0.00000000000E+00  0.45593999997E+02  0.45594000000E+02  0.51100000000E-03 0. -1.
         11   -1    0    0    0    0 -0.00000000000E+00 -0.00000000000E+00 -0.45593999997E+02  0.45594000000E+02  0.51100000000E-03 0.  1.
    9900012    2    1    2    0    0 -0.13363463090E+02 -0.27586381814E+02  0.87823857116E+01  0.59301938686E+02  0.49999990258E+02 0.  0.
        -12    1    1    2    0    0  0.13363463090E+02  0.27586381814E+02 -0.87823857116E+01  0.31886061314E+02  0.00000000000E+00 0.  1.
         11    1    3    3    0    0  0.94619293087E+01 -0.14790588688E+02  0.52779950313E+00  0.17566109203E+02  0.51100000000E-03 0. -1.
        -11    1    3    3    0    0  0.78735283369E+01 -0.35236324492E+01  0.16814544310E-01  0.86260487536E+01  0.51100000000E-03 0.  1.
         12    1    3    3    0    0 -0.30698920735E+02 -0.92721606769E+01  0.82377716642E+01  0.33109780729E+02  0.00000000000E+00 0. -1.
</event>
<event>
 7    1  0.6489567E-013  0.5930212E+02  0.7816164E-02  0.1266604E+00
        -11   -1    0    0    0    0  0.00000000000E+00  0.00000000000E+00  0.45593999997E+02  0.45594000000E+02  0.51100000000E-03 0.  1.
         11   -1    0    0    0    0 -0.00000000000E+00 -0.00000000000E+00 -0.45593999997E+02  0.45594000000E+02  0.51100000000E-03 0. -1.
    9900012    2    1    2    0    0  0.12212530858E+02  0.17134322341E+02 -0.23957847605E+02  0.59302119521E+02  0.50000320057E+02 0.  0.
        -12    1    1    2    0    0 -0.12212530858E+02 -0.17134322341E+02  0.23957847605E+02  0.31885880479E+02  0.00000000000E+00 0.  1.
         11    1    3    3    0    0  0.81002164918E+01 -0.16777297756E+00 -0.54523412045E+01  0.97657401080E+01  0.51100000000E-03 0. -1.
        -11    1    3    3    0    0  0.29638390830E+01  0.31460859771E+02 -0.14561356654E+02  0.34793722817E+02  0.51100000000E-03 0.  1.
        -12    1    3    3    0    0  0.11484752832E+01 -0.14158764452E+02 -0.39441497466E+01  0.14742656596E+02  0.00000000000E+00 0.  1.
</event>
<event>
 7    1  0.6489567E-013  0.5930189E+02  0.7816164E-02  0.1266605E+00
        -11   -1    0    0    0    0  0.00000000000E+00  0.00000000000E+00  0.45593999997E+02  0.45594000000E+02  0.51100000000E-03 0.  1.
         11   -1    0    0    0    0 -0.00000000000E+00 -0.00000000000E+00 -0.45593999997E+02  0.45594000000E+02  0.51100000000E-03 0. -1.
    9900012    2    1    2    0    0 -0.11517323960E+02  0.10794219906E+01 -0.29713804562E+02  0.59301888845E+02  0.49999899361E+02 0.  0.
        -12    1    1    2    0    0  0.11517323960E+02 -0.10794219906E+01  0.29713804562E+02  0.31886111155E+02  0.00000000000E+00 0.  1.
         11    1    3    3    0    0  0.86362757791E+01 -0.10236980977E+02 -0.21638223399E+02  0.25447863388E+02  0.51100000000E-03 0. -1.
        -11    1    3    3    0    0  0.52222421825E+01  0.13150702371E+01 -0.28117040080E+01  0.60751051703E+01  0.51100000000E-03 0.  1.
        -12    1    3    3    0    0 -0.25375841922E+02  0.10001332731E+02 -0.52638771543E+01  0.27778920287E+02  0.00000000000E+00 0.  1.
</event>
<event>
 7    1  0.6489567E-013  0.5930194E+02  0.7816164E-02  0.1266605E+00
        -11   -1    0    0    0    0  0.00000000000E+00  0.00000000000E+00  0.45593999997E+02  0.45594000000E+02  0.51100000000E-03 0. -1.
         11   -1    0    0    0    0 -0.00000000000E+00 -0.00000000000E+00 -0.45593999997E+02  0.45594000000E+02  0.51100000000E-03 0.  1.
    9900012    2    1    2    0    0 -0.17845674501E+02 -0.24845249361E+02  0.89981268564E+01  0.59301940333E+02  0.49999993261E+02 0.  0.
        -12    1    1    2    0    0  0.17845674501E+02  0.24845249361E+02 -0.89981268564E+01  0.31886059667E+02  0.00000000000E+00 0.  1.
         11    1    3    3    0    0 -0.45595004498E+01  0.67106072035E+01 -0.89531773779E+01  0.12082246431E+02  0.51100000000E-03 0. -1.
        -11    1    3    3    0    0  0.41908539671E+01  0.24583410806E+01  0.46656821482E+01  0.67361181708E+01  0.51100000000E-03 0.  1.
         12    1    3    3    0    0 -0.17477028018E+02 -0.34014197645E+02  0.13285622086E+02  0.40483575731E+02  0.00000000000E+00 0. -1.
</event>
<event>
 7    1  0.6489567E-013  0.5930194E+02  0.7816164E-02  0.1266605E+00
        -11   -1    0    0    0    0  0.00000000000E+00  0.00000000000E+00  0.45593999997E+02  0.45594000000E+02  0.51100000000E-03 0. -1.
         11   -1    0    0    0    0 -0.00000000000E+00 -0.00000000000E+00 -0.45593999997E+02  0.45594000000E+02  0.51100000000E-03 0.  1.
    9900012    2    1    2    0    0 -0.56787984986E+01  0.82162512541E+01  0.30281430088E+02  0.59301944345E+02  0.50000000579E+02 0.  0.
        -12    1    1    2    0    0  0.56787984986E+01 -0.82162512541E+01 -0.30281430088E+02  0.31886055655E+02  0.00000000000E+00 0.  1.
         11    1    3    3    0    0  0.32268498271E+01  0.47890458304E+01  0.11954649284E+02  0.13276338333E+02  0.51100000000E-03 0. -1.
        -11    1    3    3    0    0  0.15021673512E+02  0.87783997647E+01  0.49186877531E+01  0.18080499634E+02  0.51100000000E-03 0.  1.
         12    1    3    3    0    0 -0.23927321838E+02 -0.53511943410E+01  0.13408093051E+02  0.27945106378E+02  0.00000000000E+00 0. -1.
</event>
<event>
 7    1  0.6489567E-013  0.5930191E+02  0.7816164E-02  0.1266605E+00
        -11   -1    0    0    0    0  0.00000000000E+00  0.00000000000E+00  0.45593999997E+02  0.45594000000E+02  0.51100000000E-03 0.  1.
         11   -1    0    0    0    0 -0.00000000000E+00 -0.00000000000E+00 -0.45593999997E+02  0.45594000000E+02  0.51100000000E-03 0. -1.
    9900012    2    1    2    0    0  0.53055625965E+01 -0.44226316098E+01 -0.31128986798E+02  0.59301913946E+02  0.49999945138E+02 0.  0.
        -12    1    1    2    0    0 -0.53055625965E+01  0.44226316098E+01  0.31128986798E+02  0.31886086054E+02  0.00000000000E+00 0.  1.
         11    1    3    3    0    0 -0.96078088552E+01  0.50223666284E+01 -0.18744057895E+02  0.21653495426E+02  0.51100000000E-03 0. -1.
        -11    1    3    3    0    0 -0.73871557114E+01  0.24835750509E+01  0.26436811353E+01  0.82296576322E+01  0.51100000000E-03 0.  1.
        -12    1    3    3    0    0  0.22300527163E+02 -0.11928573289E+02 -0.15028610038E+02  0.29418760887E+02  0.00000000000E+00 0.  1.
</event>
<event>
 7    1  0.6489567E-013  0.5930194E+02  0.7816164E-02  0.1266605E+00
        -11   -1    0    0    0    0  0.00000000000E+00  0.00000000000E+00  0.45593999997E+02  0.45594000000E+02  0.51100000000E-03 0. -1.
         11   -1    0    0    0    0 -0.00000000000E+00 -0.00000000000E+00 -0.45593999997E+02  0.45594000000E+02  0.51100000000E-03 0.  1.
    9900012    2    1    2    0    0 -0.87597166962E+01  0.29883418013E+02 -0.68534204488E+01  0.59301942222E+02  0.49999996708E+02 0.  0.
        -12    1    1    2    0    0  0.87597166962E+01 -0.29883418013E+02  0.68534204488E+01  0.31886057778E+02  0.00000000000E+00 0.  1.
         11    1    3    3    0    0 -0.19385243650E+01 -0.36269586782E+00  0.10474218110E+02  0.10658267696E+02  0.51100000000E-03 0. -1.
        -11    1    3    3    0    0 -0.28226808545E+00 -0.71637138890E+01 -0.49045519499E+01  0.86863745052E+01  0.51100000000E-03 0.  1.
         12    1    3    3    0    0 -0.65389242458E+01  0.37409827770E+02 -0.12423086609E+02  0.39957300021E+02  0.00000000000E+00 0. -1.
</event>
<event>
 7    1  0.6489567E-013  0.5930195E+02  0.7816164E-02  0.1266605E+00
        -11   -1    0    0    0    0  0.00000000000E+00  0.00000000000E+00  0.45593999997E+02  0.45594000000E+02  0.51100000000E-03 0.  1.
         11   -1    0    0    0    0 -0.00000000000E+00 -0.00000000000E+00 -0.45593999997E+02  0.45594000000E+02  0.51100000000E-03 0. -1.
    9900012    2    1    2    0    0  0.23054284689E+02 -0.20178069413E+02 -0.88354615441E+01  0.59301954330E+02  0.50000018790E+02 0.  0.
        -12    1    1    2    0    0 -0.23054284689E+02  0.20178069413E+02  0.88354615441E+01  0.31886045670E+02  0.00000000000E+00 0.  1.
         11    1    3    3    0    0  0.10174533628E+02 -0.25830771274E+01  0.89259500773E+01  0.13779187459E+02  0.51100000000E-03 0. -1.
        -11    1    3    3    0    0 -0.96763005974E+01 -0.72844026108E+01  0.37642668053E+01  0.12683178604E+02  0.51100000000E-03 0.  1.
         12    1    3    3    0    0  0.22556051658E+02 -0.10310589675E+02 -0.21525678427E+02  0.32839588268E+02  0.00000000000E+00 0. -1.
</event>
<event>
 7    1  0.6489567E-013  0.5930197E+02  0.7816164E-02  0.1266605E+00
        -11   -1    0    0    0    0  0.00000000000E+00  0.00000000000E+00  0.45593999997E+02  0.45594000000E+02  0.51100000000E-03 0. -1.
         11   -1    0    0    0    0 -0.00000000000E+00 -0.00000000000E+00 -0.45593999997E+02  0.45594000000E+02  0.51100000000E-03 0.  1.
    9900012    2    1    2    0    0 -0.41716669251E+01 -0.90512462447E+01  0.30288465713E+02  0.59301968281E+02  0.50000044233E+02 0.  0.
        -12    1    1    2    0    0  0.41716669251E+01  0.90512462447E+01 -0.30288465713E+02  0.31886031719E+02  0.00000000000E+00 0.  1.
         11    1    3    3    0    0  0.10719823945E+02 -0.28772547484E+01  0.64325380566E+01  0.12828513804E+02  0.51100000000E-03 0. -1.
        -11    1    3    3    0    0  0.79809683074E+01 -0.70663915964E+01 -0.31083948393E+01  0.11103686958E+02  0.51100000000E-03 0.  1.
         12    1    3    3    0    0 -0.22872459177E+02  0.89240010016E+00  0.26964322496E+02  0.35369767520E+02  0.00000000000E+00 0. -1.
</event>
<event>
 7    1  0.6489567E-013  0.5930200E+02  0.7816164E-02  0.1266605E+00
        -11   -1    0    0    0    0  0.00000000000E+00  0.00000000000E+00  0.45593999997E+02  0.45594000000E+02  0.51100000000E-03 0. -1.
         11   -1    0    0    0    0 -0.00000000000E+00 -0.00000000000E+00 -0.45593999997E+02  0.45594000000E+02  0.51100000000E-03 0.  1.
    9900012    2    1    2    0    0  0.15737697600E+02 -0.27711814556E+02 -0.10474344172E+01  0.59302001339E+02  0.50000104523E+02 0.  0.
        -12    1    1    2    0    0 -0.15737697600E+02  0.27711814556E+02  0.10474344172E+01  0.31885998661E+02  0.00000000000E+00 0.  1.
         11    1    3    3    0    0  0.13992776833E+02  0.17549146974E+01  0.16742974451E+01  0.14201436592E+02  0.51100000000E-03 0. -1.
        -11    1    3    3    0    0 -0.92682497762E+01  0.18459148940E+00 -0.89242139076E+01  0.12867638558E+02  0.51100000000E-03 0.  1.
         12    1    3    3    0    0  0.11013170544E+02 -0.29651320742E+02  0.62024820453E+01  0.32232926189E+02  0.00000000000E+00 0. -1.
</event>
<event>
 7    1  0.6489567E-013  0.5930177E+02  0.7816164E-02  0.1266605E+00
        -11   -1    0    0    0    0  0.00000000000E+00  0.00000000000E+00  0.45593999997E+02  0.45594000000E+02  0.51100000000E-03 0.  1.
         11   -1    0    0    0    0 -0.00000000000E+00 -0.00000000000E+00 -0.45593999997E+02  0.45594000000E+02  0.51100000000E-03 0. -1.
    9900012    2    1    2    0    0  0.86057338341E+01  0.29892062934E+02 -0.70098184265E+01  0.59301770438E+02  0.49999683414E+02 0.  0.
        -12    1    1    2    0    0 -0.86057338341E+01 -0.29892062934E+02  0.70098184265E+01  0.31886229562E+02  0.00000000000E+00 0.  1.
         11    1    3    3    0    0  0.73530256993E+01 -0.39354514597E+01 -0.28360293737E+01  0.88089629353E+01  0.51100000000E-03 0.  1.
        -11    1    3    3    0    0 -0.16870428379E+02  0.80572474253E+01  0.12419970721E+00  0.18696149753E+02  0.51100000000E-03 0. -1.
         12    1    3    3    0    0  0.18123136513E+02  0.25770266968E+02 -0.42979887600E+01  0.31796657750E+02  0.00000000000E+00 0. -1.
</event>
<event>
 7    1  0.6489567E-013  0.5930202E+02  0.7816164E-02  0.1266604E+00
        -11   -1    0    0    0    0  0.00000000000E+00  0.00000000000E+00  0.45593999997E+02  0.45594000000E+02  0.51100000000E-03 0. -1.
         11   -1    0    0    0    0 -0.00000000000E+00 -0.00000000000E+00 -0.45593999997E+02  0.45594000000E+02  0.51100000000E-03 0.  1.
    9900012    2    1    2    0    0  0.69283491735E+01  0.25025303199E+02 -0.18505348853E+02  0.59302019403E+02  0.50000137466E+02 0.  0.
        -12    1    1    2    0    0 -0.69283491735E+01 -0.25025303199E+02  0.18505348853E+02  0.31885980597E+02  0.00000000000E+00 0.  1.
         11    1    3    3    0    0  0.43758947805E+01  0.14778214224E+02  0.40293973771E+01  0.15930477528E+02  0.51100000000E-03 0. -1.
        -11    1    3    3    0    0  0.18655574208E+02  0.62119658606E+01 -0.16628396506E+02  0.25751165790E+02  0.51100000000E-03 0.  1.
        -12    1    3    3    0    0 -0.16103119815E+02  0.40351231146E+01 -0.59063497236E+01  0.17620376086E+02  0.00000000000E+00 0.  1.
</event>
<event>
 7    1  0.6489567E-013  0.5930198E+02  0.7816164E-02  0.1266605E+00
        -11   -1    0    0    0    0  0.00000000000E+00  0.00000000000E+00  0.45593999997E+02  0.45594000000E+02  0.51100000000E-03 0.  1.
         11   -1    0    0    0    0 -0.00000000000E+00 -0.00000000000E+00 -0.45593999997E+02  0.45594000000E+02  0.51100000000E-03 0. -1.
    9900012    2    1    2    0    0  0.46924895089E-01  0.12551867468E+02 -0.29311550766E+02  0.59301975049E+02  0.50000056575E+02 0.  0.
        -12    1    1    2    0    0 -0.46924895089E-01 -0.12551867468E+02  0.29311550766E+02  0.31886024951E+02  0.00000000000E+00 0.  1.
         11    1    3    3    0    0  0.17108846113E+02  0.10518686072E+02 -0.29523803764E+02  0.35707287225E+02  0.51100000000E-03 0. -1.
        -11    1    3    3    0    0  0.16367710253E+01 -0.32181207158E+01  0.19351195729E+01  0.40963408493E+01  0.51100000000E-03 0.  1.
        -12    1    3    3    0    0 -0.18698692244E+02  0.52513021123E+01 -0.17228665747E+01  0.19498346974E+02  0.00000000000E+00 0.  1.
</event>
<event>
 7    1  0.6489567E-013  0.5930189E+02  0.7816164E-02  0.1266605E+00
        -11   -1    0    0    0    0  0.00000000000E+00  0.00000000000E+00  0.45593999997E+02  0.45594000000E+02  0.51100000000E-03 0.  1.
         11   -1    0    0    0    0 -0.00000000000E+00 -0.00000000000E+00 -0.45593999997E+02  0.45594000000E+02  0.51100000000E-03 0. -1.
    9900012    2    1    2    0    0 -0.43622564620E+01  0.23607081244E+02 -0.20985713146E+02  0.59301894522E+02  0.49999909713E+02 0.  0.
        -12    1    1    2    0    0  0.43622564620E+01 -0.23607081244E+02  0.20985713146E+02  0.31886105478E+02  0.00000000000E+00 0.  1.
         11    1    3    3    0    0 -0.16337810723E+02  0.10625342439E+02 -0.91317409140E+01  0.21522329185E+02  0.51100000000E-03 0. -1.
        -11    1    3    3    0    0  0.45962339611E+01  0.97360440888E+01  0.98713118992E+01  0.14606803894E+02  0.51100000000E-03 0.  1.
        -12    1    3    3    0    0  0.73793203003E+01  0.32456947160E+01 -0.21725284132E+02  0.23172761443E+02  0.00000000000E+00 0.  1.
</event>
<event>
 7    1  0.6489567E-013  0.5930197E+02  0.7816164E-02  0.1266605E+00
        -11   -1    0    0    0    0  0.00000000000E+00  0.00000000000E+00  0.45593999997E+02  0.45594000000E+02  0.51100000000E-03 0.  1.
         11   -1    0    0    0    0 -0.00000000000E+00 -0.00000000000E+00 -0.45593999997E+02  0.45594000000E+02  0.51100000000E-03 0. -1.
    9900012    2    1    2    0    0 -0.24866742449E+02 -0.55218328186E+01  0.19180033422E+02  0.59301965443E+02  0.50000039056E+02 0.  0.
        -12    1    1    2    0    0  0.24866742449E+02  0.55218328186E+01 -0.19180033422E+02  0.31886034557E+02  0.00000000000E+00 0.  1.
         11    1    3    3    0    0  0.88599535353E+01  0.28700958069E+01  0.20875959530E+01  0.95443325441E+01  0.51100000000E-03 0. -1.
        -11    1    3    3    0    0  0.49637455871E+01  0.15457713839E+01  0.67021196886E+01  0.84821334584E+01  0.51100000000E-03 0.  1.
         12    1    3    3    0    0 -0.38690441572E+02 -0.99377000094E+01  0.10390317780E+02  0.41275499440E+02  0.00000000000E+00 0. -1.
</event>
<event>
 7    1  0.6489567E-013  0.5930197E+02  0.7816164E-02  0.1266605E+00
        -11   -1    0    0    0    0  0.00000000000E+00  0.00000000000E+00  0.45593999997E+02  0.45594000000E+02  0.51100000000E-03 0. -1.
         11   -1    0    0    0    0 -0.00000000000E+00 -0.00000000000E+00 -0.45593999997E+02  0.45594000000E+02  0.51100000000E-03 0.  1.
    9900012    2    1    2    0    0 -0.29168846213E+02 -0.84134721469E+01  0.97524831998E+01  0.59301968081E+02  0.50000043868E+02 0.  0.
        -12    1    1    2    0    0  0.29168846213E+02  0.84134721469E+01 -0.97524831998E+01  0.31886031919E+02  0.00000000000E+00 0.  1.
         11    1    3    3    0    0 -0.14212249679E+02  0.36496236112E+01  0.18349918180E+02  0.23495261031E+02  0.51100000000E-03 0. -1.
        -11    1    3    3    0    0  0.26164730180E+01  0.65930926860E+01 -0.72485907887E+01  0.10141837649E+02  0.51100000000E-03 0.  1.
         12    1    3    3    0    0 -0.17573069552E+02 -0.18656188444E+02 -0.13488441914E+01  0.25664869401E+02  0.00000000000E+00 0. -1.
</event>
<event>
 7    1  0.6489567E-013  0.5930194E+02  0.7816164E-02  0.1266605E+00
        -11   -1    0    0    0    0  0.00000000000E+00  0.00000000000E+00  0.45593999997E+02  0.45594000000E+02  0.51100000000E-03 0.  1.
         11   -1    0    0    0    0 -0.00000000000E+00 -0.00000000000E+00 -0.45593999997E+02  0.45594000000E+02  0.51100000000E-03 0. -1.
    9900012    2    1    2    0    0 -0.12106289706E+02  0.19146753136E+02 -0.22440152636E+02  0.59301939465E+02  0.49999991679E+02 0.  0.
        -12    1    1    2    0    0  0.12106289706E+02 -0.19146753136E+02  0.22440152636E+02  0.31886060535E+02  0.00000000000E+00 0.  1.
         11    1    3    3    0    0  0.53171820893E+01  0.14351332582E+02  0.42817265233E+01  0.15892336346E+02  0.51100000000E-03 0. -1.
        -11    1    3    3    0    0 -0.58335098651E+01 -0.60973222111E+01  0.35961463316E+01  0.91727555397E+01  0.51100000000E-03 0.  1.
         12    1    3    3    0    0 -0.11589961930E+02  0.10892742765E+02 -0.30318025491E+02  0.34236847579E+02  0.00000000000E+00 0. -1.
</event>
<event>
 7    1  0.6489567E-013  0.5930202E+02  0.7816164E-02  0.1266605E+00
        -11   -1    0    0    0    0  0.00000000000E+00  0.00000000000E+00  0.45593999997E+02  0.45594000000E+02  0.51100000000E-03 0. -1.
         11   -1    0    0    0    0 -0.00000000000E+00 -0.00000000000E+00 -0.45593999997E+02  0.45594000000E+02  0.51100000000E-03 0.  1.
    9900012    2    1    2    0    0 -0.94084161361E+01  0.24709340167E+02  0.17822626004E+02  0.59302019015E+02  0.50000136759E+02 0.  0.
        -12    1    1    2    0    0  0.94084161361E+01 -0.24709340167E+02 -0.17822626004E+02  0.31885980985E+02  0.00000000000E+00 0.  1.
         11    1    3    3    0    0  0.52660412366E+01  0.25136364376E+02  0.94908384775E+01  0.27379627821E+02  0.51100000000E-03 0. -1.
        -11    1    3    3    0    0 -0.10164903833E+02  0.51015157932E+01 -0.81305361706E+01  0.13980570518E+02  0.51100000000E-03 0.  1.
         12    1    3    3    0    0 -0.45095535399E+01 -0.55285400018E+01  0.16462323697E+02  0.17941820676E+02  0.00000000000E+00 0. -1.
</event>
<event>
 7    1  0.6489567E-013  0.5930200E+02  0.7816164E-02  0.1266605E+00
        -11   -1    0    0    0    0  0.00000000000E+00  0.00000000000E+00  0.45593999997E+02  0.45594000000E+02  0.51100000000E-03 0.  1.
         11   -1    0    0    0    0 -0.00000000000E+00 -0.00000000000E+00 -0.45593999997E+02  0.45594000000E+02  0.51100000000E-03 0. -1.
    9900012    2    1    2    0    0 -0.13206788751E+02 -0.24930768560E+02 -0.14857811935E+02  0.59301998909E+02  0.50000100089E+02 0.  0.
        -12    1    1    2    0    0  0.13206788751E+02  0.24930768560E+02  0.14857811935E+02  0.31886001091E+02  0.00000000000E+00 0.  1.
         11    1    3    3    0    0 -0.30228555502E+01 -0.29408993235E+02 -0.83516695439E+01  0.30720952511E+02  0.51100000000E-03 0. -1.
        -11    1    3    3    0    0 -0.10673166982E+02 -0.57435685774E+01  0.50629476679E+01  0.13135391611E+02  0.51100000000E-03 0.  1.
        -12    1    3    3    0    0  0.48923378141E+00  0.10221793252E+02 -0.11569090059E+02  0.15445654786E+02  0.00000000000E+00 0.  1.
</event>
<event>
 7    1  0.6489567E-013  0.5930195E+02  0.7816164E-02  0.1266605E+00
        -11   -1    0    0    0    0  0.00000000000E+00  0.00000000000E+00  0.45593999997E+02  0.45594000000E+02  0.51100000000E-03 0. -1.
         11   -1    0    0    0    0 -0.00000000000E+00 -0.00000000000E+00 -0.45593999997E+02  0.45594000000E+02  0.51100000000E-03 0.  1.
    9900012    2    1    2    0    0  0.47314034409E+01  0.27150398703E+02  0.16037141112E+02  0.59301949393E+02  0.50000009785E+02 0.  0.
        -12    1    1    2    0    0 -0.47314034409E+01 -0.27150398703E+02 -0.16037141112E+02  0.31886050607E+02  0.00000000000E+00 0.  1.
         11    1    3    3    0    0  0.81899338803E+01  0.35332161374E+01  0.13715434237E+02  0.16360677547E+02  0.51100000000E-03 0. -1.
        -11    1    3    3    0    0  0.33311451713E+01 -0.71503404603E+01  0.76472958633E+01  0.10986584143E+02  0.51100000000E-03 0.  1.
        -12    1    3    3    0    0 -0.67896756108E+01  0.30767523026E+02 -0.53255889885E+01  0.31954687702E+02  0.00000000000E+00 0.  1.
</event>
<event>
 7    1  0.6489567E-013  0.5930196E+02  0.7816164E-02  0.1266605E+00
        -11   -1    0    0    0    0  0.00000000000E+00  0.00000000000E+00  0.45593999997E+02  0.45594000000E+02  0.51100000000E-03 0.  1.
         11   -1    0    0    0    0 -0.00000000000E+00 -0.00000000000E+00 -0.45593999997E+02  0.45594000000E+02  0.51100000000E-03 0. -1.
    9900012    2    1    2    0    0 -0.13604885978E+02  0.22410121431E+02 -0.18149736910E+02  0.59301962069E+02  0.50000032903E+02 0.  0.
        -12    1    1    2    0    0  0.13604885978E+02 -0.22410121431E+02  0.18149736910E+02  0.31886037931E+02  0.00000000000E+00 0.  1.
         11    1    3    3    0    0 -0.22274339339E+02  0.92788240093E+01 -0.19478995302E+02  0.31010869485E+02  0.51100000000E-03 0. -1.
        -11    1    3    3    0    0 -0.69225028977E+01  0.93080607506E+01  0.34392971214E+01  0.12099165519E+02  0.51100000000E-03 0.  1.
        -12    1    3    3    0    0  0.15591956260E+02  0.38232366709E+01 -0.21100387300E+01  0.16191927065E+02  0.00000000000E+00 0.  1.
</event>
<event>
 7    1  0.6489567E-013  0.5930194E+02  0.7816164E-02  0.1266605E+00
        -11   -1    0    0    0    0  0.00000000000E+00  0.00000000000E+00  0.45593999997E+02  0.45594000000E+02  0.51100000000E-03 0. -1.
         11   -1    0    0    0    0 -0.00000000000E+00 -0.00000000000E+00 -0.45593999997E+02  0.45594000000E+02  0.51100000000E-03 0.  1.
    9900012    2    1    2    0    0  0.28980582579E+02 -0.17061540146E+00 -0.13297270254E+02  0.59301942350E+02  0.49999996941E+02 0.  0.
        -12    1    1    2    0    0 -0.28980582579E+02  0.17061540146E+00  0.13297270254E+02  0.31886057650E+02  0.00000000000E+00 0.  1.
         11    1    3    3    0    0  0.67399844990E+01  0.19249422572E+00 -0.17314494484E+01  0.69614914011E+01  0.51100000000E-03 0. -1.
        -11    1    3    3    0    0 -0.80304485046E+01  0.97737368340E+01 -0.15687542861E+02  0.20152246429E+02  0.51100000000E-03 0.  1.
         12    1    3    3    0    0  0.30271046585E+02 -0.10136846461E+02  0.41217220552E+01  0.32188204520E+02  0.00000000000E+00 0. -1.
</event>
<event>
 7    1  0.6489567E-013  0.5930195E+02  0.7816164E-02  0.1266605E+00
        -11   -1    0    0    0    0  0.00000000000E+00  0.00000000000E+00  0.45593999997E+02  0.45594000000E+02  0.51100000000E-03 0. -1.
         11   -1    0    0    0    0 -0.00000000000E+00 -0.00000000000E+00 -0.45593999997E+02  0.45594000000E+02  0.51100000000E-03 0.  1.
    9900012    2    1    2    0    0 -0.12445828898E+01  0.27487582559E+02 -0.16112230410E+02  0.59301950538E+02  0.50000011873E+02 0.  0.
        -12    1    1    2    0    0  0.12445828898E+01 -0.27487582559E+02  0.16112230410E+02  0.31886049462E+02  0.00000000000E+00 0.  1.
         11    1    3    3    0    0 -0.52577169209E+01 -0.82343937349E+01 -0.21724946612E+01  0.10008424487E+02  0.51100000000E-03 0. -1.
        -11    1    3    3    0    0 -0.11334559929E+02  0.53495860049E+01 -0.76602646832E+01  0.14689110745E+02  0.51100000000E-03 0.  1.
        -12    1    3    3    0    0  0.15347693960E+02  0.30372390289E+02 -0.62794710653E+01  0.34604415305E+02  0.00000000000E+00 0.  1.
</event>
<event>
 7    1  0.6489567E-013  0.5930198E+02  0.7816164E-02  0.1266605E+00
        -11   -1    0    0    0    0  0.00000000000E+00  0.00000000000E+00  0.45593999997E+02  0.45594000000E+02  0.51100000000E-03 0.  1.
         11   -1    0    0    0    0 -0.00000000000E+00 -0.00000000000E+00 -0.45593999997E+02  0.45594000000E+02  0.51100000000E-03 0. -1.
    9900012    2    1    2    0    0  0.16461840150E+02 -0.26998759465E+02 -0.40979742547E+01  0.59301975055E+02  0.50000056587E+02 0.  0.
        -12    1    1    2    0    0 -0.16461840150E+02  0.26998759465E+02  0.40979742547E+01  0.31886024945E+02  0.00000000000E+00 0.  1.
         11    1    3    3    0    0 -0.34101310949E+01  0.89449365727E+01 -0.94417245192E+01  0.13445707364E+02  0.51100000000E-03 0. -1.
        -11    1    3    3    0    0  0.29088899413E+01 -0.72841327031E+01  0.94720512197E+01  0.12297966681E+02  0.51100000000E-03 0.  1.
         12    1    3    3    0    0  0.16963081304E+02 -0.28659563335E+02 -0.41283009552E+01  0.33558301009E+02  0.00000000000E+00 0. -1.
</event>
<event>
 7    1  0.6489567E-013  0.5930193E+02  0.7816164E-02  0.1266605E+00
        -11   -1    0    0    0    0  0.00000000000E+00  0.00000000000E+00  0.45593999997E+02  0.45594000000E+02  0.51100000000E-03 0. -1.
         11   -1    0    0    0    0 -0.00000000000E+00 -0.00000000000E+00 -0.45593999997E+02  0.45594000000E+02  0.51100000000E-03 0.  1.
    9900012    2    1    2    0    0 -0.23412982460E+02  0.20535572912E+02  0.68442599639E+01  0.59301930990E+02  0.49999976222E+02 0.  0.
        -12    1    1    2    0    0  0.23412982460E+02 -0.20535572912E+02 -0.68442599639E+01  0.31886069010E+02  0.00000000000E+00 0.  1.
         11    1    3    3    0    0 -0.11686448785E+02  0.14327864341E+02 -0.77032934359E+01  0.20030015272E+02  0.51100000000E-03 0. -1.
        -11    1    3    3    0    0 -0.81739119302E+01 -0.15245774693E+01 -0.10166621096E+02  0.13133824937E+02  0.51100000000E-03 0.  1.
        -12    1    3    3    0    0 -0.35526217447E+01  0.77322860406E+01  0.24714174496E+02  0.26138090781E+02  0.00000000000E+00 0.  1.
</event>
<event>
 7    1  0.6489567E-013  0.5930195E+02  0.7816164E-02  0.1266605E+00
        -11   -1    0    0    0    0  0.00000000000E+00  0.00000000000E+00  0.45593999997E+02  0.45594000000E+02  0.51100000000E-03 0.  1.
         11   -1    0    0    0    0 -0.00000000000E+00 -0.00000000000E+00 -0.45593999997E+02  0.45594000000E+02  0.51100000000E-03 0. -1.
    9900012    2    1    2    0    0 -0.12355303939E+01  0.28097495362E+02 -0.15024128722E+02  0.59301949369E+02  0.50000009741E+02 0.  0.
        -12    1    1    2    0    0  0.12355303939E+01 -0.28097495362E+02  0.15024128722E+02  0.31886050631E+02  0.00000000000E+00 0.  1.
         11    1    3    3    0    0  0.55515788771E+01  0.22334729094E+02 -0.53478625744E+01  0.23627521794E+02  0.51100000000E-03 0. -1.
        -11    1    3    3    0    0 -0.33298018155E+01  0.65328374363E+01  0.11808380706E+02  0.13899762598E+02  0.51100000000E-03 0.  1.
        -12    1    3    3    0    0 -0.34573074555E+01 -0.77007116822E+00 -0.21484646854E+02  0.21774664978E+02  0.00000000000E+00 0.  1.
</event>
<event>
 7    1  0.6489567E-013  0.5930195E+02  0.7816164E-02  0.1266605E+00
        -11   -1    0    0    0    0  0.00000000000E+00  0.00000000000E+00  0.45593999997E+02  0.45594000000E+02  0.51100000000E-03 0.  1.
         11   -1    0    0    0    0 -0.00000000000E+00 -0.00000000000E+00 -0.45593999997E+02  0.45594000000E+02  0.51100000000E-03 0. -1.
    9900012    2    1    2    0    0  0.20587063710E+02  0.19651226490E+02  0.14377844475E+02  0.59301948089E+02  0.50000007407E+02 0.  0.
        -12    1    1    2    0    0 -0.20587063710E+02 -0.19651226490E+02 -0.14377844475E+02  0.31886051911E+02  0.00000000000E+00 0.  1.
         11    1    3    3    0    0  0.14808388634E+02 -0.57396825631E+01 -0.11548474269E+01  0.15923755923E+02  0.51100000000E-03 0. -1.
        -11    1    3    3    0    0 -0.52989747776E+01 -0.30619402572E+01  0.10892952893E+02  0.12494440156E+02  0.51100000000E-03 0.  1.
        -12    1    3    3    0    0  0.11077649854E+02  0.28452849310E+02  0.46397390091E+01  0.30883752010E+02  0.00000000000E+00 0.  1.
</event>
<event>
 7    1  0.6489567E-013  0.5930192E+02  0.7816164E-02  0.1266605E+00
        -11   -1    0    0    0    0  0.00000000000E+00  0.00000000000E+00  0.45593999997E+02  0.45594000000E+02  0.51100000000E-03 0.  1.
         11   -1    0    0    0    0 -0.00000000000E+00 -0.00000000000E+00 -0.45593999997E+02  0.45594000000E+02  0.51100000000E-03 0. -1.
    9900012    2    1    2    0    0 -0.44018417240E+01  0.19742725218E+02 -0.24648946885E+02  0.59301921656E+02  0.49999959200E+02 0.  0.
        -12    1    1    2    0    0  0.44018417240E+01 -0.19742725218E+02  0.24648946885E+02  0.31886078344E+02  0.00000000000E+00 0.  1.
         11    1    3    3    0    0  0.99232548909E+01 -0.56485683297E+00  0.50061971542E+01  0.11128884090E+02  0.51100000000E-03 0. -1.
        -11    1    3    3    0    0  0.74072256802E+01  0.10138656728E+02 -0.16735097798E+02  0.20921827145E+02  0.51100000000E-03 0.  1.
         12    1    3    3    0    0 -0.21732322295E+02  0.10168925323E+02 -0.12920046241E+02  0.27251210422E+02  0.00000000000E+00 0. -1.
</event>
<event>
 7    1  0.6489567E-013  0.5930195E+02  0.7816164E-02  0.1266605E+00
        -11   -1    0    0    0    0  0.00000000000E+00  0.00000000000E+00  0.45593999997E+02  0.45594000000E+02  0.51100000000E-03 0. -1.
         11   -1    0    0    0    0 -0.00000000000E+00 -0.00000000000E+00 -0.45593999997E+02  0.45594000000E+02  0.51100000000E-03 0.  1.
    9900012    2    1    2    0    0 -0.18438083273E+02 -0.25920944244E+02 -0.22050365660E+01  0.59301945814E+02  0.50000003258E+02 0.  0.
        -12    1    1    2    0    0  0.18438083273E+02  0.25920944244E+02  0.22050365660E+01  0.31886054186E+02  0.00000000000E+00 0.  1.
         11    1    3    3    0    0 -0.40342349397E+01  0.19752081486E+01  0.87612577605E+01  0.98456150943E+01  0.51100000000E-03 0. -1.
        -11    1    3    3    0    0 -0.15692471422E+02 -0.12280585754E+02  0.10778159185E+02  0.22654694028E+02  0.51100000000E-03 0.  1.
         12    1    3    3    0    0  0.12886230894E+01 -0.15615566638E+02 -0.21744453511E+02  0.26801636692E+02  0.00000000000E+00 0. -1.
</event>
<event>
 7    1  0.6489567E-013  0.5930194E+02  0.7816164E-02  0.1266605E+00
        -11   -1    0    0    0    0  0.00000000000E+00  0.00000000000E+00  0.45593999997E+02  0.45594000000E+02  0.51100000000E-03 0. -1.
         11   -1    0    0    0    0 -0.00000000000E+00 -0.00000000000E+00 -0.45593999997E+02  0.45594000000E+02  0.51100000000E-03 0.  1.
    9900012    2    1    2    0    0  0.20213923792E+02  0.17514675129E+02  0.17359562249E+02  0.59301937819E+02  0.49999988677E+02 0.  0.
        -12    1    1    2    0    0 -0.20213923792E+02 -0.17514675129E+02 -0.17359562249E+02  0.31886062181E+02  0.00000000000E+00 0.  1.
         11    1    3    3    0    0 -0.53215151197E+00  0.19736662935E+01 -0.28307473562E+01  0.34916578763E+01  0.51100000000E-03 0. -1.
        -11    1    3    3    0    0  0.26689390755E+01  0.27794289401E+02  0.31283989120E+01  0.28096843935E+02  0.51100000000E-03 0.  1.
         12    1    3    3    0    0  0.18077136228E+02 -0.12253280566E+02  0.17061910693E+02  0.27713436007E+02  0.00000000000E+00 0. -1.
</event>
<event>
 7    1  0.6489567E-013  0.5930191E+02  0.7816164E-02  0.1266605E+00
        -11   -1    0    0    0    0  0.00000000000E+00  0.00000000000E+00  0.45593999997E+02  0.45594000000E+02  0.51100000000E-03 0. -1.
         11   -1    0    0    0    0 -0.00000000000E+00 -0.00000000000E+00 -0.45593999997E+02  0.45594000000E+02  0.51100000000E-03 0.  1.
    9900012    2    1    2    0    0  0.85750468129E+01  0.16915974749E+02  0.25632817155E+02  0.59301906717E+02  0.49999931954E+02 0.  0.
        -12    1    1    2    0    0 -0.85750468129E+01 -0.16915974749E+02 -0.25632817155E+02  0.31886093283E+02  0.00000000000E+00 0.  1.
         11    1    3    3    0    0  0.20198602040E+01  0.10989682811E+02  0.30477286484E+02  0.32461022091E+02  0.51100000000E-03 0. -1.
        -11    1    3    3    0    0 -0.36924648560E+01  0.12359644525E+02  0.18200466287E+01  0.13027190008E+02  0.51100000000E-03 0.  1.
        -12    1    3    3    0    0  0.10247651465E+02 -0.64333525869E+01 -0.66645159574E+01  0.13813694618E+02  0.00000000000E+00 0.  1.
</event>
<event>
 7    1  0.6489567E-013  0.5930195E+02  0.7816164E-02  0.1266605E+00
        -11   -1    0    0    0    0  0.00000000000E+00  0.00000000000E+00  0.45593999997E+02  0.45594000000E+02  0.51100000000E-03 0.  1.
         11   -1    0    0    0    0 -0.00000000000E+00 -0.00000000000E+00 -0.45593999997E+02  0.45594000000E+02  0.51100000000E-03 0. -1.
    9900012    2    1    2    0    0  0.60827666944E+01  0.25880505625E+02 -0.17604527447E+02  0.59301952758E+02  0.50000015923E+02 0.  0.
        -12    1    1    2    0    0 -0.60827666944E+01 -0.25880505625E+02  0.17604527447E+02  0.31886047242E+02  0.00000000000E+00 0.  1.
         11    1    3    3    0    0  0.22669078514E+01  0.16116056132E+02 -0.98711350575E+01  0.19034322789E+02  0.51100000000E-03 0. -1.
        -11    1    3    3    0    0  0.10837089748E+02  0.21006058572E+02  0.21498394193E+01  0.23734338430E+02  0.51100000000E-03 0.  1.
        -12    1    3    3    0    0 -0.70212309052E+01 -0.11241609079E+02 -0.98832318087E+01  0.16533291539E+02  0.00000000000E+00 0.  1.
</event>
<event>
 7    1  0.6489567E-013  0.5930191E+02  0.7816164E-02  0.1266605E+00
        -11   -1    0    0    0    0  0.00000000000E+00  0.00000000000E+00  0.45593999997E+02  0.45594000000E+02  0.51100000000E-03 0. -1.
         11   -1    0    0    0    0 -0.00000000000E+00 -0.00000000000E+00 -0.45593999997E+02  0.45594000000E+02  0.51100000000E-03 0.  1.
    9900012    2    1    2    0    0  0.21906357385E+02  0.18502861384E+02  0.13945546492E+02  0.59301911494E+02  0.49999940666E+02 0.  0.
        -12    1    1    2    0    0 -0.21906357385E+02 -0.18502861384E+02 -0.13945546492E+02  0.31886088506E+02  0.00000000000E+00 0.  1.
         11    1    3    3    0    0  0.87120333575E+01  0.24184025711E+01  0.53028030760E+01  0.10481789778E+02  0.51100000000E-03 0. -1.
        -11    1    3    3    0    0  0.11315564922E+01 -0.10209493572E+02 -0.10055404628E+02  0.14374468393E+02  0.51100000000E-03 0.  1.
         12    1    3    3    0    0  0.12062767535E+02  0.26293952385E+02  0.18698148043E+02  0.34445653323E+02  0.00000000000E+00 0. -1.
</event>
<event>
 7    1  0.6489567E-013  0.5930195E+02  0.7816164E-02  0.1266605E+00
        -11   -1    0    0    0    0  0.00000000000E+00  0.00000000000E+00  0.45593999997E+02  0.45594000000E+02  0.51100000000E-03 0.  1.
         11   -1    0    0    0    0 -0.00000000000E+00 -0.00000000000E+00 -0.45593999997E+02  0.45594000000E+02  0.51100000000E-03 0. -1.
    9900012    2    1    2    0    0  0.28691001130E+02 -0.48871021637E+01 -0.13025470971E+02  0.59301949642E+02  0.50000010239E+02 0.  0.
        -12    1    1    2    0    0 -0.28691001130E+02  0.48871021637E+01  0.13025470971E+02  0.31886050358E+02  0.00000000000E+00 0.  1.
         11    1    3    3    0    0  0.18562108747E+02 -0.11263755512E+02 -0.10677015861E+02  0.24195510686E+02  0.51100000000E-03 0. -1.
        -11    1    3    3    0    0  0.68903752566E+01 -0.13190673574E+02  0.13058293057E+01  0.14939087353E+02  0.51100000000E-03 0.  1.
        -12    1    3    3    0    0  0.32385171264E+01  0.19567326923E+02 -0.36542844158E+01  0.20167351603E+02  0.00000000000E+00 0.  1.
</event>
<event>
 7    1  0.6489567E-013  0.5930196E+02  0.7816164E-02  0.1266605E+00
        -11   -1    0    0    0    0  0.00000000000E+00  0.00000000000E+00  0.45593999997E+02  0.45594000000E+02  0.51100000000E-03 0.  1.
         11   -1    0    0    0    0 -0.00000000000E+00 -0.00000000000E+00 -0.45593999997E+02  0.45594000000E+02  0.51100000000E-03 0. -1.
    9900012    2    1    2    0    0 -0.16845769718E+02 -0.35541763004E+01 -0.26838538101E+02  0.59301964593E+02  0.50000037506E+02 0.  0.
        -12    1    1    2    0    0  0.16845769718E+02  0.35541763004E+01  0.26838538101E+02  0.31886035407E+02  0.00000000000E+00 0.  1.
         11    1    3    3    0    0 -0.74799520737E+01 -0.78221802277E+01 -0.36103774132E+02  0.37691095677E+02  0.51100000000E-03 0. -1.
        -11    1    3    3    0    0  0.32477357324E+01 -0.16697572902E+01 -0.15492182214E+01  0.39668569617E+01  0.51100000000E-03 0.  1.
         12    1    3    3    0    0 -0.12613553377E+02  0.59377612175E+01  0.10814454252E+02  0.17644011954E+02  0.00000000000E+00 0. -1.
</event>
<event>
 7    1  0.6489567E-013  0.5930194E+02  0.7816164E-02  0.1266605E+00
        -11   -1    0    0    0    0  0.00000000000E+00  0.00000000000E+00  0.45593999997E+02  0.45594000000E+02  0.51100000000E-03 0.  1.
         11   -1    0    0    0    0 -0.00000000000E+00 -0.00000000000E+00 -0.45593999997E+02  0.45594000000E+02  0.51100000000E-03 0. -1.
    9900012    2    1    2    0    0  0.16694142765E+02 -0.92321178311E+01 -0.25549840971E+02  0.59301940727E+02  0.49999993980E+02 0.  0.
        -12    1    1    2    0    0 -0.16694142765E+02  0.92321178311E+01  0.25549840971E+02  0.31886059273E+02  0.00000000000E+00 0.  1.
         11    1    3    3    0    0 -0.75482475077E+01 -0.10723336596E+00  0.69927143257E+00  0.75813270758E+01  0.51100000000E-03 0. -1.
        -11    1    3    3    0    0  0.83734174568E+01  0.55698201464E+01  0.68599464195E+01  0.12173573079E+02  0.51100000000E-03 0.  1.
         12    1    3    3    0    0  0.15868972816E+02 -0.14694704612E+02 -0.33109058823E+02  0.39547040572E+02  0.00000000000E+00 0. -1.
</event>
<event>
 7    1  0.6489567E-013  0.5930190E+02  0.7816164E-02  0.1266605E+00
        -11   -1    0    0    0    0  0.00000000000E+00  0.00000000000E+00  0.45593999997E+02  0.45594000000E+02  0.51100000000E-03 0.  1.
         11   -1    0    0    0    0 -0.00000000000E+00 -0.00000000000E+00 -0.45593999997E+02  0.45594000000E+02  0.51100000000E-03 0. -1.
    9900012    2    1    2    0    0 -0.24944013814E+02 -0.90174176737E+01 -0.17697617691E+02  0.59301900856E+02  0.49999921266E+02 0.  0.
        -12    1    1    2    0    0  0.24944013814E+02  0.90174176737E+01  0.17697617691E+02  0.31886099144E+02  0.00000000000E+00 0.  1.
         11    1    3    3    0    0  0.47797213528E+01 -0.17498989161E+01  0.11018471864E+02  0.12137322806E+02  0.51100000000E-03 0.  1.
        -11    1    3    3    0    0 -0.15099572918E+02  0.46286720464E+01 -0.43957632208E+01  0.16393426785E+02  0.51100000000E-03 0. -1.
         12    1    3    3    0    0 -0.14624162249E+02 -0.11896190804E+02 -0.24320326335E+02  0.30771151265E+02  0.00000000000E+00 0. -1.
</event>
<event>
 7    1  0.6489567E-013  0.5930196E+02  0.7816164E-02  0.1266605E+00
        -11   -1    0    0    0    0  0.00000000000E+00  0.00000000000E+00  0.45593999997E+02  0.45594000000E+02  0.51100000000E-03 0.  1.
         11   -1    0    0    0    0 -0.00000000000E+00 -0.00000000000E+00 -0.45593999997E+02  0.45594000000E+02  0.51100000000E-03 0. -1.
    9900012    2    1    2    0    0 -0.25465335110E+02  0.78408209388E+01 -0.17514496879E+02  0.59301962833E+02  0.50000034297E+02 0.  0.
        -12    1    1    2    0    0  0.25465335110E+02 -0.78408209388E+01  0.17514496879E+02  0.31886037167E+02  0.00000000000E+00 0.  1.
         11    1    3    3    0    0 -0.92661456294E+01  0.21272593314E+02 -0.95926536290E+01  0.25107841107E+02  0.51100000000E-03 0. -1.
        -11    1    3    3    0    0  0.69453263304E+01 -0.46398599915E+01 -0.34416286569E+01  0.90338622222E+01  0.51100000000E-03 0.  1.
        -12    1    3    3    0    0 -0.23144515812E+02 -0.87919123839E+01 -0.44802145931E+01  0.25160259504E+02  0.00000000000E+00 0.  1.
</event>
<event>
 7    1  0.6489567E-013  0.5930196E+02  0.7816164E-02  0.1266605E+00
        -11   -1    0    0    0    0  0.00000000000E+00  0.00000000000E+00  0.45593999997E+02  0.45594000000E+02  0.51100000000E-03 0. -1.
         11   -1    0    0    0    0 -0.00000000000E+00 -0.00000000000E+00 -0.45593999997E+02  0.45594000000E+02  0.51100000000E-03 0.  1.
    9900012    2    1    2    0    0 -0.80372018718E+01 -0.77324393045E+01  0.29871928191E+02  0.59301963474E+02  0.50000035465E+02 0.  0.
        -12    1    1    2    0    0  0.80372018718E+01  0.77324393045E+01 -0.29871928191E+02  0.31886036526E+02  0.00000000000E+00 0.  1.
         11    1    3    3    0    0 -0.94558470235E+01  0.84022533177E+01 -0.63683400450E+01  0.14162155872E+02  0.51100000000E-03 0. -1.
        -11    1    3    3    0    0 -0.90221078373E+01 -0.12012353083E+02  0.15683228669E+02  0.21717705177E+02  0.51100000000E-03 0.  1.
        -12    1    3    3    0    0  0.10440752989E+02 -0.41223395392E+01  0.20557039566E+02  0.23422102425E+02  0.00000000000E+00 0.  1.
</event>
<event>
 7    1  0.6489567E-013  0.5930196E+02  0.7816164E-02  0.1266605E+00
        -11   -1    0    0    0    0  0.00000000000E+00  0.00000000000E+00  0.45593999997E+02  0.45594000000E+02  0.51100000000E-03 0.  1.
         11   -1    0    0    0    0 -0.00000000000E+00 -0.00000000000E+00 -0.45593999997E+02  0.45594000000E+02  0.51100000000E-03 0. -1.
    9900012    2    1    2    0    0 -0.22556979037E+02 -0.10936582032E+02 -0.19705163413E+02  0.59301959246E+02  0.50000027755E+02 0.  0.
        -12    1    1    2    0    0  0.22556979037E+02  0.10936582032E+02  0.19705163413E+02  0.31886040754E+02  0.00000000000E+00 0.  1.
         11    1    3    3    0    0 -0.11254488204E+02  0.15971716058E+01 -0.10778387761E+02  0.15664868492E+02  0.51100000000E-03 0. -1.
        -11    1    3    3    0    0 -0.25872171494E+02 -0.85155234608E+01 -0.84415872337E+01  0.28515676266E+02  0.51100000000E-03 0.  1.
        -12    1    3    3    0    0  0.14569680661E+02 -0.40182301769E+01 -0.48518841832E+00  0.15121414488E+02  0.00000000000E+00 0.  1.
</event>
<event>
 7    1  0.6489567E-013  0.5930198E+02  0.7816164E-02  0.1266605E+00
        -11   -1    0    0    0    0  0.00000000000E+00  0.00000000000E+00  0.45593999997E+02  0.45594000000E+02  0.51100000000E-03 0.  1.
         11   -1    0    0    0    0 -0.00000000000E+00 -0.00000000000E+00 -0.45593999997E+02  0.45594000000E+02  0.51100000000E-03 0. -1.
    9900012    2    1    2    0    0  0.17741050583E+01  0.31672731285E+02  0.32262458971E+01  0.59301983968E+02  0.50000072841E+02 0.  0.
        -12    1    1    2    0    0 -0.17741050583E+01 -0.31672731285E+02 -0.32262458971E+01  0.31886016032E+02  0.00000000000E+00 0.  1.
         11    1    3    3    0    0  0.13560908694E+02  0.74749950730E+01 -0.47890125037E+01  0.16208282974E+02  0.51100000000E-03 0. -1.
        -11    1    3    3    0    0 -0.54527801616E+00  0.29632318014E+02  0.76197661537E+01  0.30601183563E+02  0.51100000000E-03 0.  1.
         12    1    3    3    0    0 -0.11241525620E+02 -0.54345818012E+01  0.39549224706E+00  0.12492517430E+02  0.00000000000E+00 0. -1.
</event>
<event>
 7    1  0.6489567E-013  0.5930195E+02  0.7816164E-02  0.1266605E+00
        -11   -1    0    0    0    0  0.00000000000E+00  0.00000000000E+00  0.45593999997E+02  0.45594000000E+02  0.51100000000E-03 0.  1.
         11   -1    0    0    0    0 -0.00000000000E+00 -0.00000000000E+00 -0.45593999997E+02  0.45594000000E+02  0.51100000000E-03 0. -1.
    9900012    2    1    2    0    0  0.22224312130E+02 -0.84899357706E+01 -0.21230200704E+02  0.59301945353E+02  0.50000002417E+02 0.  0.
        -12    1    1    2    0    0 -0.22224312130E+02  0.84899357706E+01  0.21230200704E+02  0.31886054647E+02  0.00000000000E+00 0.  1.
         11    1    3    3    0    0 -0.80218041910E+01 -0.45275371930E+01 -0.14118198411E+02  0.16857385982E+02  0.51100000000E-03 0. -1.
        -11    1    3    3    0    0 -0.17030418410E+01  0.61870058993E+01  0.34651975857E+01  0.72929409760E+01  0.51100000000E-03 0.  1.
        -12    1    3    3    0    0  0.31949158162E+02 -0.10149404477E+02 -0.10577199878E+02  0.35151618395E+02  0.00000000000E+00 0.  1.
</event>
<event>
 7    1  0.6489567E-013  0.5930193E+02  0.7816164E-02  0.1266605E+00
        -11   -1    0    0    0    0  0.00000000000E+00  0.00000000000E+00  0.45593999997E+02  0.45594000000E+02  0.51100000000E-03 0.  1.
         11   -1    0    0    0    0 -0.00000000000E+00 -0.00000000000E+00 -0.45593999997E+02  0.45594000000E+02  0.51100000000E-03 0. -1.
    9900012    2    1    2    0    0  0.25545354610E+02  0.19082656805E+02 -0.92874220585E-01  0.59301928456E+02  0.49999971600E+02 0.  0.
        -12    1    1    2    0    0 -0.25545354610E+02 -0.19082656805E+02  0.92874220585E-01  0.31886071544E+02  0.00000000000E+00 0.  1.
         11    1    3    3    0    0  0.15241334501E+02  0.99046286676E+01 -0.10801324935E+02  0.21143996004E+02  0.51100000000E-03 0. -1.
        -11    1    3    3    0    0 -0.92062061826E+01  0.13058920264E+02  0.86238070408E+01  0.18156532678E+02  0.51100000000E-03 0.  1.
         12    1    3    3    0    0  0.19510226292E+02 -0.38808921265E+01  0.20846436735E+01  0.20001399774E+02  0.00000000000E+00 0. -1.
</event>
<event>
 7    1  0.6489567E-013  0.5930194E+02  0.7816164E-02  0.1266605E+00
        -11   -1    0    0    0    0  0.00000000000E+00  0.00000000000E+00  0.45593999997E+02  0.45594000000E+02  0.51100000000E-03 0.  1.
         11   -1    0    0    0    0 -0.00000000000E+00 -0.00000000000E+00 -0.45593999997E+02  0.45594000000E+02  0.51100000000E-03 0. -1.
    9900012    2    1    2    0    0  0.57645012921E+01 -0.70782663867E+01 -0.30551419271E+02  0.59301944275E+02  0.50000000452E+02 0.  0.
        -12    1    1    2    0    0 -0.57645012921E+01  0.70782663867E+01  0.30551419271E+02  0.31886055725E+02  0.00000000000E+00 0.  1.
         11    1    3    3    0    0 -0.15631737952E+01 -0.59291755368E+01 -0.11816483228E+00  0.61329110583E+01  0.51100000000E-03 0. -1.
        -11    1    3    3    0    0 -0.45961400653E+01 -0.18782828075E+02 -0.24223301739E+02  0.30994958967E+02  0.51100000000E-03 0.  1.
         12    1    3    3    0    0  0.11923815153E+02  0.17633737225E+02 -0.62099526996E+01  0.22174074250E+02  0.00000000000E+00 0. -1.
</event>
<event>
 7    1  0.6489567E-013  0.5930191E+02  0.7816164E-02  0.1266605E+00
        -11   -1    0    0    0    0  0.00000000000E+00  0.00000000000E+00  0.45593999997E+02  0.45594000000E+02  0.51100000000E-03 0.  1.
         11   -1    0    0    0    0 -0.00000000000E+00 -0.00000000000E+00 -0.45593999997E+02  0.45594000000E+02  0.51100000000E-03 0. -1.
    9900012    2    1    2    0    0  0.22191786055E+02  0.22585342094E+02 -0.37615745308E+01  0.59301913869E+02  0.49999944998E+02 0.  0.
        -12    1    1    2    0    0 -0.22191786055E+02 -0.22585342094E+02  0.37615745308E+01  0.31886086131E+02  0.00000000000E+00 0.  1.
         11    1    3    3    0    0  0.57478501825E+01  0.11671142738E+02  0.11576179182E+02  0.17414398618E+02  0.51100000000E-03 0. -1.
        -11    1    3    3    0    0 -0.90576771761E+01 -0.32120395137E+01 -0.19430883478E+01  0.98048103629E+01  0.51100000000E-03 0.  1.
         12    1    3    3    0    0  0.25501613048E+02  0.14126238870E+02 -0.13394665365E+02  0.32082704888E+02  0.00000000000E+00 0. -1.
</event>
<event>
 7    1  0.6489567E-013  0.5930194E+02  0.7816164E-02  0.1266605E+00
        -11   -1    0    0    0    0  0.00000000000E+00  0.00000000000E+00  0.45593999997E+02  0.45594000000E+02  0.51100000000E-03 0. -1.
         11   -1    0    0    0    0 -0.00000000000E+00 -0.00000000000E+00 -0.45593999997E+02  0.45594000000E+02  0.51100000000E-03 0.  1.
    9900012    2    1    2    0    0  0.33681187575E+00 -0.22152604093E+02  0.22931851036E+02  0.59301935609E+02  0.49999984647E+02 0.  0.
        -12    1    1    2    0    0 -0.33681187575E+00  0.22152604093E+02 -0.22931851036E+02  0.31886064391E+02  0.00000000000E+00 0.  1.
         11    1    3    3    0    0 -0.31179374065E+00  0.60508422746E+01  0.63067686333E+01  0.87455839384E+01  0.51100000000E-03 0. -1.
        -11    1    3    3    0    0 -0.86477057494E+01  0.32257816677E+01 -0.57477050363E+01  0.10873113424E+02  0.51100000000E-03 0.  1.
         12    1    3    3    0    0  0.92963113658E+01 -0.31429228036E+02  0.22372787439E+02  0.39683238247E+02  0.00000000000E+00 0. -1.
</event>
<event>
 7    1  0.6489567E-013  0.5930193E+02  0.7816164E-02  0.1266605E+00
        -11   -1    0    0    0    0  0.00000000000E+00  0.00000000000E+00  0.45593999997E+02  0.45594000000E+02  0.51100000000E-03 0.  1.
         11   -1    0    0    0    0 -0.00000000000E+00 -0.00000000000E+00 -0.45593999997E+02  0.45594000000E+02  0.51100000000E-03 0. -1.
    9900012    2    1    2    0    0 -0.18744549577E+02  0.25438245986E+02 -0.42730600578E+01  0.59301928747E+02  0.49999972132E+02 0.  0.
        -12    1    1    2    0    0  0.18744549577E+02 -0.25438245986E+02  0.42730600578E+01  0.31886071253E+02  0.00000000000E+00 0.  1.
         11    1    3    3    0    0  0.67773892265E+01  0.88297844572E+01 -0.28587994332E+01  0.11492207479E+02  0.51100000000E-03 0. -1.
        -11    1    3    3    0    0 -0.12451802787E+02  0.48766444979E+01  0.17483042053E+02  0.22011038456E+02  0.51100000000E-03 0.  1.
         12    1    3    3    0    0 -0.13070136017E+02  0.11731817031E+02 -0.18897302678E+02  0.25798682812E+02  0.00000000000E+00 0. -1.
</event>
<event>
 7    1  0.6489567E-013  0.5930196E+02  0.7816164E-02  0.1266605E+00
        -11   -1    0    0    0    0  0.00000000000E+00  0.00000000000E+00  0.45593999997E+02  0.45594000000E+02  0.51100000000E-03 0.  1.
         11   -1    0    0    0    0 -0.00000000000E+00 -0.00000000000E+00 -0.45593999997E+02  0.45594000000E+02  0.51100000000E-03 0. -1.
    9900012    2    1    2    0    0 -0.29859915632E+01 -0.58178200508E+01 -0.31208273290E+02  0.59301960774E+02  0.50000030541E+02 0.  0.
        -12    1    1    2    0    0  0.29859915632E+01  0.58178200508E+01  0.31208273290E+02  0.31886039226E+02  0.00000000000E+00 0.  1.
         11    1    3    3    0    0 -0.11070223905E+02 -0.22405453620E+01 -0.10316283372E+02  0.15296914842E+02  0.51100000000E-03 0. -1.
        -11    1    3    3    0    0  0.22209911864E+01 -0.14456066210E+02  0.48840040065E+01  0.15419602703E+02  0.51100000000E-03 0.  1.
         12    1    3    3    0    0  0.58632411549E+01  0.10878791521E+02 -0.25775993925E+02  0.28585443229E+02  0.00000000000E+00 0. -1.
</event>
<event>
 7    1  0.6489567E-013  0.5930188E+02  0.7816164E-02  0.1266605E+00
        -11   -1    0    0    0    0  0.00000000000E+00  0.00000000000E+00  0.45593999997E+02  0.45594000000E+02  0.51100000000E-03 0.  1.
         11   -1    0    0    0    0 -0.00000000000E+00 -0.00000000000E+00 -0.45593999997E+02  0.45594000000E+02  0.51100000000E-03 0. -1.
    9900012    2    1    2    0    0 -0.11560732675E+02 -0.27006466898E+02 -0.12398586037E+02  0.59301878724E+02  0.49999880901E+02 0.  0.
        -12    1    1    2    0    0  0.11560732675E+02  0.27006466898E+02  0.12398586037E+02  0.31886121276E+02  0.00000000000E+00 0.  1.
         11    1    3    3    0    0 -0.28372295889E+01 -0.20080556758E+02 -0.61517222091E+01  0.21192506172E+02  0.51100000000E-03 0. -1.
        -11    1    3    3    0    0  0.72199668077E+00 -0.52117595892E+01  0.14404748981E+02  0.15335596196E+02  0.51100000000E-03 0.  1.
         12    1    3    3    0    0 -0.94454997672E+01 -0.17141505516E+01 -0.20651612808E+02  0.22773776357E+02  0.00000000000E+00 0. -1.
</event>
<event>
 7    1  0.6489567E-013  0.5930193E+02  0.7816164E-02  0.1266605E+00
        -11   -1    0    0    0    0  0.00000000000E+00  0.00000000000E+00  0.45593999997E+02  0.45594000000E+02  0.51100000000E-03 0. -1.
         11   -1    0    0    0    0 -0.00000000000E+00 -0.00000000000E+00 -0.45593999997E+02  0.45594000000E+02  0.51100000000E-03 0.  1.
    9900012    2    1    2    0    0  0.30810070963E+02 -0.51140307347E+01  0.64270916629E+01  0.59301932661E+02  0.49999979269E+02 0.  0.
        -12    1    1    2    0    0 -0.30810070963E+02  0.51140307347E+01 -0.64270916629E+01  0.31886067339E+02  0.00000000000E+00 0.  1.
         11    1    3    3    0    0  0.11482052206E+02 -0.30451899009E-01  0.14667190342E+02  0.18626994470E+02  0.51100000000E-03 0. -1.
        -11    1    3    3    0    0 -0.68548583698E+01  0.23606213711E+01  0.64847145911E+01  0.97269286065E+01  0.51100000000E-03 0.  1.
        -12    1    3    3    0    0  0.26182877127E+02 -0.74442002068E+01 -0.14724813270E+02  0.30948009584E+02  0.00000000000E+00 0.  1.
</event>
<event>
 7    1  0.6489567E-013  0.5930202E+02  0.7816164E-02  0.1266605E+00
        -11   -1    0    0    0    0  0.00000000000E+00  0.00000000000E+00  0.45593999997E+02  0.45594000000E+02  0.51100000000E-03 0.  1.
         11   -1    0    0    0    0 -0.00000000000E+00 -0.00000000000E+00 -0.45593999997E+02  0.45594000000E+02  0.51100000000E-03 0. -1.
    9900012    2    1    2    0    0 -0.18263373471E+02 -0.13107756253E+02 -0.22613091115E+02  0.59302016021E+02  0.50000131298E+02 0.  0.
        -12    1    1    2    0    0  0.18263373471E+02  0.13107756253E+02  0.22613091115E+02  0.31885983979E+02  0.00000000000E+00 0.  1.
         11    1    3    3    0    0  0.11168869562E+02  0.10093637101E+02 -0.88976378036E+01  0.17486941299E+02  0.51100000000E-03 0.  1.
        -11    1    3    3    0    0 -0.11367132736E+02 -0.24255111073E+01 -0.15885936642E+01  0.11731088647E+02  0.51100000000E-03 0. -1.
        -12    1    3    3    0    0 -0.18065110298E+02 -0.20775882247E+02 -0.12126859648E+02  0.30083986075E+02  0.00000000000E+00 0.  1.
</event>
<event>
 7    1  0.6489567E-013  0.5930201E+02  0.7816164E-02  0.1266605E+00
        -11   -1    0    0    0    0  0.00000000000E+00  0.00000000000E+00  0.45593999997E+02  0.45594000000E+02  0.51100000000E-03 0.  1.
         11   -1    0    0    0    0 -0.00000000000E+00 -0.00000000000E+00 -0.45593999997E+02  0.45594000000E+02  0.51100000000E-03 0. -1.
    9900012    2    1    2    0    0 -0.18032576718E+02 -0.89773305122E+01 -0.24717400452E+02  0.59302012932E+02  0.50000125664E+02 0.  0.
        -12    1    1    2    0    0  0.18032576718E+02  0.89773305122E+01  0.24717400452E+02  0.31885987068E+02  0.00000000000E+00 0.  1.
         11    1    3    3    0    0 -0.18679738293E+02  0.43584650606E+00  0.15033510238E+00  0.18685427097E+02  0.51100000000E-03 0. -1.
        -11    1    3    3    0    0  0.80922814945E+01 -0.61538315360E+01  0.37738702052E+01  0.10844203933E+02  0.51100000000E-03 0.  1.
         12    1    3    3    0    0 -0.74451199192E+01 -0.32593454822E+01 -0.28641605760E+02  0.29772381901E+02  0.00000000000E+00 0. -1.
</event>
<event>
 7    1  0.6489567E-013  0.5930197E+02  0.7816164E-02  0.1266605E+00
        -11   -1    0    0    0    0  0.00000000000E+00  0.00000000000E+00  0.45593999997E+02  0.45594000000E+02  0.51100000000E-03 0. -1.
         11   -1    0    0    0    0 -0.00000000000E+00 -0.00000000000E+00 -0.45593999997E+02  0.45594000000E+02  0.51100000000E-03 0.  1.
    9900012    2    1    2    0    0  0.26442765067E+02 -0.16578253258E+02  0.65314992595E+01  0.59301971899E+02  0.50000050831E+02 0.  0.
        -12    1    1    2    0    0 -0.26442765067E+02  0.16578253258E+02 -0.65314992595E+01  0.31886028101E+02  0.00000000000E+00 0.  1.
         11    1    3    3    0    0 -0.57555093368E+01  0.25759784249E+01 -0.43450889531E+01  0.76577640890E+01  0.51100000000E-03 0. -1.
        -11    1    3    3    0    0  0.18913043256E+02  0.38220869971E+01 -0.59825854694E+01  0.20201556460E+02  0.51100000000E-03 0.  1.
         12    1    3    3    0    0  0.13285231147E+02 -0.22976318680E+02  0.16859173682E+02  0.31442651351E+02  0.00000000000E+00 0. -1.
</event>
<event>
 7    1  0.6489567E-013  0.5930194E+02  0.7816164E-02  0.1266605E+00
        -11   -1    0    0    0    0  0.00000000000E+00  0.00000000000E+00  0.45593999997E+02  0.45594000000E+02  0.51100000000E-03 0.  1.
         11   -1    0    0    0    0 -0.00000000000E+00 -0.00000000000E+00 -0.45593999997E+02  0.45594000000E+02  0.51100000000E-03 0. -1.
    9900012    2    1    2    0    0  0.26697812594E+02  0.40248405503E+01 -0.16963139868E+02  0.59301942656E+02  0.49999997498E+02 0.  0.
        -12    1    1    2    0    0 -0.26697812594E+02 -0.40248405503E+01  0.16963139868E+02  0.31886057344E+02  0.00000000000E+00 0.  1.
         11    1    3    3    0    0  0.15879599734E+01 -0.84672596689E+01 -0.16045643219E+02  0.18212050125E+02  0.51100000000E-03 0. -1.
        -11    1    3    3    0    0  0.23158807405E+02  0.21347276877E+02 -0.34242573214E+01  0.31682205241E+02  0.51100000000E-03 0.  1.
         12    1    3    3    0    0  0.19510452160E+01 -0.88551766577E+01  0.25067606724E+01  0.94076872898E+01  0.00000000000E+00 0. -1.
</event>
<event>
 7    1  0.6489567E-013  0.5930197E+02  0.7816164E-02  0.1266605E+00
        -11   -1    0    0    0    0  0.00000000000E+00  0.00000000000E+00  0.45593999997E+02  0.45594000000E+02  0.51100000000E-03 0. -1.
         11   -1    0    0    0    0 -0.00000000000E+00 -0.00000000000E+00 -0.45593999997E+02  0.45594000000E+02  0.51100000000E-03 0.  1.
    9900012    2    1    2    0    0 -0.13039910015E+02 -0.16113323213E+02  0.24228914072E+02  0.59301973041E+02  0.50000052912E+02 0.  0.
        -12    1    1    2    0    0  0.13039910015E+02  0.16113323213E+02 -0.24228914072E+02  0.31886026959E+02  0.00000000000E+00 0.  1.
         11    1    3    3    0    0 -0.19032508396E+02 -0.15561140961E+02  0.23891561549E+01  0.24700071888E+02  0.51100000000E-03 0. -1.
        -11    1    3    3    0    0 -0.83766766227E+01  0.37427756049E+01  0.14471357144E+01  0.92882335515E+01  0.51100000000E-03 0.  1.
         12    1    3    3    0    0  0.14369275004E+02 -0.42949578566E+01  0.20392622203E+02  0.25313667601E+02  0.00000000000E+00 0. -1.
</event>
<event>
 7    1  0.6489567E-013  0.5930207E+02  0.7816164E-02  0.1266604E+00
        -11   -1    0    0    0    0  0.00000000000E+00  0.00000000000E+00  0.45593999997E+02  0.45594000000E+02  0.51100000000E-03 0.  1.
         11   -1    0    0    0    0 -0.00000000000E+00 -0.00000000000E+00 -0.45593999997E+02  0.45594000000E+02  0.51100000000E-03 0. -1.
    9900012    2    1    2    0    0 -0.21648940314E+02 -0.82316448769E+00 -0.23395695307E+02  0.59302066183E+02  0.50000222782E+02 0.  0.
        -12    1    1    2    0    0  0.21648940314E+02  0.82316448769E+00  0.23395695307E+02  0.31885933817E+02  0.00000000000E+00 0.  1.
         11    1    3    3    0    0 -0.11988896773E+02 -0.75260549038E+01 -0.15960623896E+02  0.21333463471E+02  0.51100000000E-03 0. -1.
        -11    1    3    3    0    0 -0.43683847519E+01  0.10888881676E+02 -0.20297239544E+02  0.23444156263E+02  0.51100000000E-03 0.  1.
        -12    1    3    3    0    0 -0.52916587887E+01 -0.41859912604E+01  0.12862168133E+02  0.14524446449E+02  0.00000000000E+00 0.  1.
</event>
<event>
 7    1  0.6489567E-013  0.5930207E+02  0.7816164E-02  0.1266604E+00
        -11   -1    0    0    0    0  0.00000000000E+00  0.00000000000E+00  0.45593999997E+02  0.45594000000E+02  0.51100000000E-03 0. -1.
         11   -1    0    0    0    0 -0.00000000000E+00 -0.00000000000E+00 -0.45593999997E+02  0.45594000000E+02  0.51100000000E-03 0.  1.
    9900012    2    1    2    0    0 -0.31571604471E+02  0.42555829098E+01  0.13550178403E+01  0.59302074137E+02  0.50000237288E+02 0.  0.
        -12    1    1    2    0    0  0.31571604471E+02 -0.42555829098E+01 -0.13550178403E+01  0.31885925863E+02  0.00000000000E+00 0.  1.
         11    1    3    3    0    0 -0.18958927189E+02  0.88684544709E+01  0.98929803843E+00  0.20953976132E+02  0.51100000000E-03 0. -1.
        -11    1    3    3    0    0 -0.90107875564E+01 -0.13089650542E+02 -0.14069672099E+02  0.21224724190E+02  0.51100000000E-03 0.  1.
         12    1    3    3    0    0 -0.36018897255E+01  0.84767789813E+01  0.14435391900E+02  0.17123373815E+02  0.00000000000E+00 0. -1.
</event>
<event>
 7    1  0.6489567E-013  0.5930193E+02  0.7816164E-02  0.1266605E+00
        -11   -1    0    0    0    0  0.00000000000E+00  0.00000000000E+00  0.45593999997E+02  0.45594000000E+02  0.51100000000E-03 0. -1.
         11   -1    0    0    0    0 -0.00000000000E+00 -0.00000000000E+00 -0.45593999997E+02  0.45594000000E+02  0.51100000000E-03 0.  1.
    9900012    2    1    2    0    0  0.29369133302E+02 -0.12215683285E+02  0.22254040180E+01  0.59301932007E+02  0.49999978077E+02 0.  0.
        -12    1    1    2    0    0 -0.29369133302E+02  0.12215683285E+02 -0.22254040180E+01  0.31886067993E+02  0.00000000000E+00 0.  1.
         11    1    3    3    0    0  0.31985037576E+02 -0.14331677729E+02  0.99532067742E+01  0.36434954928E+02  0.51100000000E-03 0. -1.
        -11    1    3    3    0    0 -0.24314272165E+01 -0.17487455942E+01  0.70135803424E+01  0.76262873630E+01  0.51100000000E-03 0.  1.
        -12    1    3    3    0    0 -0.18447705746E+00  0.38647400384E+01 -0.14741383099E+02  0.15240689716E+02  0.00000000000E+00 0.  1.
</event>
<event>
 7    1  0.6489567E-013  0.5930194E+02  0.7816164E-02  0.1266605E+00
        -11   -1    0    0    0    0  0.00000000000E+00  0.00000000000E+00  0.45593999997E+02  0.45594000000E+02  0.51100000000E-03 0. -1.
         11   -1    0    0    0    0 -0.00000000000E+00 -0.00000000000E+00 -0.45593999997E+02  0.45594000000E+02  0.51100000000E-03 0.  1.
    9900012    2    1    2    0    0 -0.20985408070E+02 -0.19974778512E+01  0.23923704354E+02  0.59301938787E+02  0.49999990443E+02 0.  0.
        -12    1    1    2    0    0  0.20985408070E+02  0.19974778512E+01 -0.23923704354E+02  0.31886061213E+02  0.00000000000E+00 0.  1.
         11    1    3    3    0    0  0.34318728797E+01 -0.57888759328E+01  0.31920804419E+01  0.74483698779E+01  0.51100000000E-03 0. -1.
        -11    1    3    3    0    0 -0.83607387178E+01 -0.16634112079E+02  0.36183868592E-02  0.18617079522E+02  0.51100000000E-03 0.  1.
         12    1    3    3    0    0 -0.16056542232E+02  0.20425510161E+02  0.20728005525E+02  0.33236489388E+02  0.00000000000E+00 0. -1.
</event>
<event>
 7    1  0.6489567E-013  0.5930195E+02  0.7816164E-02  0.1266605E+00
        -11   -1    0    0    0    0  0.00000000000E+00  0.00000000000E+00  0.45593999997E+02  0.45594000000E+02  0.51100000000E-03 0. -1.
         11   -1    0    0    0    0 -0.00000000000E+00 -0.00000000000E+00 -0.45593999997E+02  0.45594000000E+02  0.51100000000E-03 0.  1.
    9900012    2    1    2    0    0 -0.10967717723E+01 -0.12584428167E+02  0.29277118768E+02  0.59301946246E+02  0.50000004046E+02 0.  0.
        -12    1    1    2    0    0  0.10967717723E+01  0.12584428167E+02 -0.29277118768E+02  0.31886053754E+02  0.00000000000E+00 0.  1.
         11    1    3    3    0    0 -0.18301865549E+01  0.51157292621E+01  0.34564836703E+02  0.34989258427E+02  0.51100000000E-03 0. -1.
        -11    1    3    3    0    0 -0.41830414833E+01  0.32987090937E+00  0.14610642894E+01  0.44431250249E+01  0.51100000000E-03 0.  1.
         12    1    3    3    0    0  0.49164562659E+01 -0.18030028339E+02 -0.67487822247E+01  0.19869562794E+02  0.00000000000E+00 0. -1.
</event>
<event>
 7    1  0.6489567E-013  0.5930195E+02  0.7816164E-02  0.1266605E+00
        -11   -1    0    0    0    0  0.00000000000E+00  0.00000000000E+00  0.45593999997E+02  0.45594000000E+02  0.51100000000E-03 0.  1.
         11   -1    0    0    0    0 -0.00000000000E+00 -0.00000000000E+00 -0.45593999997E+02  0.45594000000E+02  0.51100000000E-03 0. -1.
    9900012    2    1    2    0    0  0.10983163433E+02 -0.22280949797E+02 -0.19991245261E+02  0.59301945212E+02  0.50000002161E+02 0.  0.
        -12    1    1    2    0    0 -0.10983163433E+02  0.22280949797E+02  0.19991245261E+02  0.31886054788E+02  0.00000000000E+00 0.  1.
         11    1    3    3    0    0  0.13002580188E+02 -0.14264383034E+02  0.38043767481E+01  0.19672645923E+02  0.51100000000E-03 0. -1.
        -11    1    3    3    0    0  0.75188267436E+01  0.50732250231E+01  0.18886103430E+01  0.92648376685E+01  0.51100000000E-03 0.  1.
         12    1    3    3    0    0 -0.95382434989E+01 -0.13089791786E+02 -0.25684232352E+02  0.30364461621E+02  0.00000000000E+00 0. -1.
</event>
<event>
 7    1  0.6489567E-013  0.5930194E+02  0.7816164E-02  0.1266605E+00
        -11   -1    0    0    0    0  0.00000000000E+00  0.00000000000E+00  0.45593999997E+02  0.45594000000E+02  0.51100000000E-03 0.  1.
         11   -1    0    0    0    0 -0.00000000000E+00 -0.00000000000E+00 -0.45593999997E+02  0.45594000000E+02  0.51100000000E-03 0. -1.
    9900012    2    1    2    0    0 -0.11236462838E+02  0.20443857161E+02 -0.21737323487E+02  0.59301943093E+02  0.49999998295E+02 0.  0.
        -12    1    1    2    0    0  0.11236462838E+02 -0.20443857161E+02  0.21737323487E+02  0.31886056907E+02  0.00000000000E+00 0.  1.
         11    1    3    3    0    0 -0.25492943577E+02  0.22644280939E+02 -0.18613167026E+02  0.38847182889E+02  0.51100000000E-03 0. -1.
        -11    1    3    3    0    0  0.34527489639E+01  0.57568364269E+01 -0.19250408628E+01  0.69834392414E+01  0.51100000000E-03 0.  1.
        -12    1    3    3    0    0  0.10803731776E+02 -0.79572602045E+01 -0.11991155982E+01  0.13471320962E+02  0.00000000000E+00 0.  1.
</event>
<event>
 7    1  0.6489567E-013  0.5930196E+02  0.7816164E-02  0.1266605E+00
        -11   -1    0    0    0    0  0.00000000000E+00  0.00000000000E+00  0.45593999997E+02  0.45594000000E+02  0.51100000000E-03 0. -1.
         11   -1    0    0    0    0 -0.00000000000E+00 -0.00000000000E+00 -0.45593999997E+02  0.45594000000E+02  0.51100000000E-03 0.  1.
    9900012    2    1    2    0    0  0.94408232469E+01 -0.24750464976E+02  0.17748384239E+02  0.59301955981E+02  0.50000021800E+02 0.  0.
        -12    1    1    2    0    0 -0.94408232469E+01  0.24750464976E+02 -0.17748384239E+02  0.31886044019E+02  0.00000000000E+00 0.  1.
         11    1    3    3    0    0 -0.45658495630E+01  0.18555131751E+01  0.64922685375E+01  0.81510405716E+01  0.51100000000E-03 0. -1.
        -11    1    3    3    0    0  0.21470164658E+02 -0.58336195393E+01 -0.61025765154E+01  0.23070338700E+02  0.51100000000E-03 0.  1.
         12    1    3    3    0    0 -0.74634918480E+01 -0.20772358612E+02  0.17358692216E+02  0.28080576709E+02  0.00000000000E+00 0. -1.
</event>
<event>
 7    1  0.6489567E-013  0.5930196E+02  0.7816164E-02  0.1266605E+00
        -11   -1    0    0    0    0  0.00000000000E+00  0.00000000000E+00  0.45593999997E+02  0.45594000000E+02  0.51100000000E-03 0.  1.
         11   -1    0    0    0    0 -0.00000000000E+00 -0.00000000000E+00 -0.45593999997E+02  0.45594000000E+02  0.51100000000E-03 0. -1.
    9900012    2    1    2    0    0  0.21163418825E+02 -0.22294441384E+02 -0.84727291379E+01  0.59301959919E+02  0.50000028982E+02 0.  0.
        -12    1    1    2    0    0 -0.21163418825E+02  0.22294441384E+02  0.84727291379E+01  0.31886040081E+02  0.00000000000E+00 0.  1.
         11    1    3    3    0    0  0.62038014487E+01 -0.14307575178E+02  0.64768060954E+01  0.16886174147E+02  0.51100000000E-03 0. -1.
        -11    1    3    3    0    0  0.14736457085E+02  0.64641821798E+01  0.58204150070E+01  0.17112160874E+02  0.51100000000E-03 0.  1.
         12    1    3    3    0    0  0.22316029107E+00 -0.14451048387E+02 -0.20769950240E+02  0.25303624898E+02  0.00000000000E+00 0. -1.
</event>
<event>
 7    1  0.6489567E-013  0.5930195E+02  0.7816164E-02  0.1266605E+00
        -11   -1    0    0    0    0  0.00000000000E+00  0.00000000000E+00  0.45593999997E+02  0.45594000000E+02  0.51100000000E-03 0. -1.
         11   -1    0    0    0    0 -0.00000000000E+00 -0.00000000000E+00 -0.45593999997E+02  0.45594000000E+02  0.51100000000E-03 0.  1.
    9900012    2    1    2    0    0  0.61407952875E+00  0.67985415289E+01  0.31146794590E+02  0.59301951737E+02  0.50000014060E+02 0.  0.
        -12    1    1    2    0    0 -0.61407952875E+00 -0.67985415289E+01 -0.31146794590E+02  0.31886048263E+02  0.00000000000E+00 0.  1.
         11    1    3    3    0    0 -0.29861482806E+01  0.12961575507E+01  0.13819462204E+01  0.35365069725E+01  0.51100000000E-03 0.  1.
        -11    1    3    3    0    0  0.18608010477E+02  0.12340777218E+02  0.69024590558E+00  0.22338963179E+02  0.51100000000E-03 0. -1.
         12    1    3    3    0    0 -0.15007782668E+02 -0.68383932394E+01  0.29074602464E+02  0.33426481585E+02  0.00000000000E+00 0. -1.
</event>
<event>
 7    1  0.6489567E-013  0.5930197E+02  0.7816164E-02  0.1266605E+00
        -11   -1    0    0    0    0  0.00000000000E+00  0.00000000000E+00  0.45593999997E+02  0.45594000000E+02  0.51100000000E-03 0.  1.
         11   -1    0    0    0    0 -0.00000000000E+00 -0.00000000000E+00 -0.45593999997E+02  0.45594000000E+02  0.51100000000E-03 0. -1.
    9900012    2    1    2    0    0  0.18170778433E+02  0.20616267539E+02 -0.16171314505E+02  0.59301967181E+02  0.50000042226E+02 0.  0.
        -12    1    1    2    0    0 -0.18170778433E+02 -0.20616267539E+02  0.16171314505E+02  0.31886032819E+02  0.00000000000E+00 0.  1.
         11    1    3    3    0    0  0.19172323520E+02  0.17845350918E+02  0.35277526485E+01  0.26428764207E+02  0.51100000000E-03 0. -1.
        -11    1    3    3    0    0 -0.35823481263E+00 -0.62404152598E+01  0.40606634073E+01  0.74538649279E+01  0.51100000000E-03 0.  1.
        -12    1    3    3    0    0 -0.64331027379E+00  0.90113318813E+01 -0.23759730561E+02  0.25419338046E+02  0.00000000000E+00 0.  1.
</event>
<event>
 7    1  0.6489567E-013  0.5930195E+02  0.7816164E-02  0.1266605E+00
        -11   -1    0    0    0    0  0.00000000000E+00  0.00000000000E+00  0.45593999997E+02  0.45594000000E+02  0.51100000000E-03 0.  1.
         11   -1    0    0    0    0 -0.00000000000E+00 -0.00000000000E+00 -0.45593999997E+02  0.45594000000E+02  0.51100000000E-03 0. -1.
    9900012    2    1    2    0    0 -0.12926575436E+02 -0.77003807508E+01  0.28112772832E+02  0.59301949562E+02  0.50000010093E+02 0.  0.
        -12    1    1    2    0    0  0.12926575436E+02  0.77003807508E+01 -0.28112772832E+02  0.31886050438E+02  0.00000000000E+00 0.  1.
         11    1    3    3    0    0 -0.82352481747E+01 -0.16190823937E+01  0.64574973834E+01  0.10589618171E+02  0.51100000000E-03 0. -1.
        -11    1    3    3    0    0  0.48164392554E+01  0.13439608467E+02 -0.42642485081E+01  0.14899831490E+02  0.51100000000E-03 0.  1.
         12    1    3    3    0    0 -0.95077665168E+01 -0.19520906824E+02  0.25919523957E+02  0.33812499900E+02  0.00000000000E+00 0. -1.
</event>
<event>
 7    1  0.6489567E-013  0.5930195E+02  0.7816164E-02  0.1266605E+00
        -11   -1    0    0    0    0  0.00000000000E+00  0.00000000000E+00  0.45593999997E+02  0.45594000000E+02  0.51100000000E-03 0. -1.
         11   -1    0    0    0    0 -0.00000000000E+00 -0.00000000000E+00 -0.45593999997E+02  0.45594000000E+02  0.51100000000E-03 0.  1.
    9900012    2    1    2    0    0 -0.30959853814E+02 -0.77685656528E+00 -0.75897591760E+01  0.59301945076E+02  0.50000001911E+02 0.  0.
        -12    1    1    2    0    0  0.30959853814E+02  0.77685656528E+00  0.75897591760E+01  0.31886054924E+02  0.00000000000E+00 0.  1.
         11    1    3    3    0    0 -0.34919404718E+02 -0.10667914497E+02  0.31924524611E+01  0.36651889154E+02  0.51100000000E-03 0. -1.
        -11    1    3    3    0    0 -0.64535749228E+01  0.47729102548E+01 -0.25453258092E+01  0.84206879363E+01  0.51100000000E-03 0.  1.
        -12    1    3    3    0    0  0.10413125827E+02  0.51181476770E+01 -0.82368858279E+01  0.14229367986E+02  0.00000000000E+00 0.  1.
</event>
<event>
 7    1  0.6489567E-013  0.5930192E+02  0.7816164E-02  0.1266605E+00
        -11   -1    0    0    0    0  0.00000000000E+00  0.00000000000E+00  0.45593999997E+02  0.45594000000E+02  0.51100000000E-03 0.  1.
         11   -1    0    0    0    0 -0.00000000000E+00 -0.00000000000E+00 -0.45593999997E+02  0.45594000000E+02  0.51100000000E-03 0. -1.
    9900012    2    1    2    0    0  0.18237501192E+02 -0.42639808239E+01 -0.25805699795E+02  0.59301919587E+02  0.49999955427E+02 0.  0.
        -12    1    1    2    0    0 -0.18237501192E+02  0.42639808239E+01  0.25805699795E+02  0.31886080413E+02  0.00000000000E+00 0.  1.
         11    1    3    3    0    0  0.12233578116E+02 -0.51348461638E+01  0.12543726766E+01  0.13326684873E+02  0.51100000000E-03 0. -1.
        -11    1    3    3    0    0 -0.17443261306E+01 -0.16619043988E+02 -0.66028477703E+01  0.17967551187E+02  0.51100000000E-03 0.  1.
         12    1    3    3    0    0  0.77482492064E+01  0.17489909328E+02 -0.20457224701E+02  0.28007683527E+02  0.00000000000E+00 0. -1.
</event>
<event>
 7    1  0.6489567E-013  0.5930207E+02  0.7816164E-02  0.1266604E+00
        -11   -1    0    0    0    0  0.00000000000E+00  0.00000000000E+00  0.45593999997E+02  0.45594000000E+02  0.51100000000E-03 0. -1.
         11   -1    0    0    0    0 -0.00000000000E+00 -0.00000000000E+00 -0.45593999997E+02  0.45594000000E+02  0.51100000000E-03 0.  1.
    9900012    2    1    2    0    0  0.41855335451E+01 -0.31049781553E+02  0.59249553113E+01  0.59302067036E+02  0.50000224336E+02 0.  0.
        -12    1    1    2    0    0 -0.41855335451E+01  0.31049781553E+02 -0.59249553113E+01  0.31885932964E+02  0.00000000000E+00 0.  1.
         11    1    3    3    0    0  0.53541004652E+01  0.94188848755E+01  0.43880046233E+01  0.11689156040E+02  0.51100000000E-03 0. -1.
        -11    1    3    3    0    0  0.10756798866E+02 -0.23631950438E+02 -0.39496640498E+01  0.26263618367E+02  0.51100000000E-03 0.  1.
         12    1    3    3    0    0 -0.11925365786E+02 -0.16836715991E+02  0.54866147378E+01  0.21349292629E+02  0.00000000000E+00 0. -1.
</event>
<event>
 7    1  0.6489567E-013  0.5930209E+02  0.7816164E-02  0.1266604E+00
        -11   -1    0    0    0    0  0.00000000000E+00  0.00000000000E+00  0.45593999997E+02  0.45594000000E+02  0.51100000000E-03 0. -1.
         11   -1    0    0    0    0 -0.00000000000E+00 -0.00000000000E+00 -0.45593999997E+02  0.45594000000E+02  0.51100000000E-03 0.  1.
    9900012    2    1    2    0    0 -0.16887370860E+02  0.43855858667E+01  0.26688848684E+02  0.59302089287E+02  0.50000264916E+02 0.  0.
        -12    1    1    2    0    0  0.16887370860E+02 -0.43855858667E+01 -0.26688848684E+02  0.31885910713E+02  0.00000000000E+00 0.  1.
         11    1    3    3    0    0 -0.16329557915E+02 -0.73468212033E+01  0.28295408284E+02  0.33485226201E+02  0.51100000000E-03 0. -1.
        -11    1    3    3    0    0 -0.42048222782E+01 -0.61053485456E+01  0.78089443949E+00  0.74542342089E+01  0.51100000000E-03 0.  1.
        -12    1    3    3    0    0  0.36470093333E+01  0.17837755616E+02 -0.23874540396E+01  0.18362628877E+02  0.00000000000E+00 0.  1.
</event>
<event>
 7    1  0.6489567E-013  0.5930194E+02  0.7816164E-02  0.1266605E+00
        -11   -1    0    0    0    0  0.00000000000E+00  0.00000000000E+00  0.45593999997E+02  0.45594000000E+02  0.51100000000E-03 0.  1.
         11   -1    0    0    0    0 -0.00000000000E+00 -0.00000000000E+00 -0.45593999997E+02  0.45594000000E+02  0.51100000000E-03 0. -1.
    9900012    2    1    2    0    0  0.12883808446E+02  0.15127810185E+02 -0.24937474116E+02  0.59301940721E+02  0.49999993969E+02 0.  0.
        -12    1    1    2    0    0 -0.12883808446E+02 -0.15127810185E+02  0.24937474116E+02  0.31886059279E+02  0.00000000000E+00 0.  1.
         11    1    3    3    0    0  0.50531905879E+01  0.10217712681E+02  0.92086944011E+01  0.14653888234E+02  0.51100000000E-03 0. -1.
        -11    1    3    3    0    0  0.17783411952E+02  0.59303262327E+01 -0.21572135286E+02  0.28579284997E+02  0.51100000000E-03 0.  1.
        -12    1    3    3    0    0 -0.99527940940E+01 -0.10202287287E+01 -0.12574033231E+02  0.16068767490E+02  0.00000000000E+00 0.  1.
</event>
<event>
 7    1  0.6489567E-013  0.5930205E+02  0.7816164E-02  0.1266604E+00
        -11   -1    0    0    0    0  0.00000000000E+00  0.00000000000E+00  0.45593999997E+02  0.45594000000E+02  0.51100000000E-03 0. -1.
         11   -1    0    0    0    0 -0.00000000000E+00 -0.00000000000E+00 -0.45593999997E+02  0.45594000000E+02  0.51100000000E-03 0.  1.
    9900012    2    1    2    0    0 -0.12034133049E+02  0.28932137957E+02 -0.59012605008E+01  0.59302049481E+02  0.50000192321E+02 0.  0.
        -12    1    1    2    0    0  0.12034133049E+02 -0.28932137957E+02  0.59012605008E+01  0.31885950519E+02  0.00000000000E+00 0.  1.
         11    1    3    3    0    0  0.29167252312E+01  0.11603204471E+02  0.13169445718E+01  0.12036443965E+02  0.51100000000E-03 0. -1.
        -11    1    3    3    0    0  0.30168978117E+01  0.16315522350E+02 -0.19404840000E+02  0.25531270192E+02  0.51100000000E-03 0.  1.
        -12    1    3    3    0    0 -0.17967756092E+02  0.10134111362E+01  0.12186634927E+02  0.21734335323E+02  0.00000000000E+00 0.  1.
</event>
<event>
 7    1  0.6489567E-013  0.5930196E+02  0.7816164E-02  0.1266605E+00
        -11   -1    0    0    0    0  0.00000000000E+00  0.00000000000E+00  0.45593999997E+02  0.45594000000E+02  0.51100000000E-03 0.  1.
         11   -1    0    0    0    0 -0.00000000000E+00 -0.00000000000E+00 -0.45593999997E+02  0.45594000000E+02  0.51100000000E-03 0. -1.
    9900012    2    1    2    0    0 -0.14156895626E+01 -0.62745425360E+01 -0.31230517612E+02  0.59301964008E+02  0.50000036440E+02 0.  0.
        -12    1    1    2    0    0  0.14156895626E+01  0.62745425360E+01  0.31230517612E+02  0.31886035992E+02  0.00000000000E+00 0.  1.
         11    1    3    3    0    0  0.50678658125E+01  0.16873924427E+02 -0.18487213650E+02  0.25538004195E+02  0.51100000000E-03 0. -1.
        -11    1    3    3    0    0 -0.55940662561E+01 -0.17446012991E+01 -0.10757292893E+02  0.12249757615E+02  0.51100000000E-03 0.  1.
        -12    1    3    3    0    0 -0.88948911899E+00 -0.21403865664E+02 -0.19860110687E+01  0.21514202198E+02  0.00000000000E+00 0.  1.
</event>
<event>
 7    1  0.6489567E-013  0.5930190E+02  0.7816164E-02  0.1266605E+00
        -11   -1    0    0    0    0  0.00000000000E+00  0.00000000000E+00  0.45593999997E+02  0.45594000000E+02  0.51100000000E-03 0.  1.
         11   -1    0    0    0    0 -0.00000000000E+00 -0.00000000000E+00 -0.45593999997E+02  0.45594000000E+02  0.51100000000E-03 0. -1.
    9900012    2    1    2    0    0 -0.17974041709E+02  0.51912810568E+00 -0.26332253579E+02  0.59301901965E+02  0.49999923288E+02 0.  0.
        -12    1    1    2    0    0  0.17974041709E+02 -0.51912810568E+00  0.26332253579E+02  0.31886098035E+02  0.00000000000E+00 0.  1.
         11    1    3    3    0    0 -0.12267870171E+02 -0.19827084978E+02 -0.94190896445E+01  0.25146236046E+02  0.51100000000E-03 0. -1.
        -11    1    3    3    0    0 -0.12136655636E+02  0.14420381540E+02 -0.52257141472E+01  0.19558985209E+02  0.51100000000E-03 0.  1.
        -12    1    3    3    0    0  0.64304840986E+01  0.59258315436E+01 -0.11687449788E+02  0.14596680711E+02  0.00000000000E+00 0.  1.
</event>
<event>
 7    1  0.6489567E-013  0.5930197E+02  0.7816164E-02  0.1266605E+00
        -11   -1    0    0    0    0  0.00000000000E+00  0.00000000000E+00  0.45593999997E+02  0.45594000000E+02  0.51100000000E-03 0.  1.
         11   -1    0    0    0    0 -0.00000000000E+00 -0.00000000000E+00 -0.45593999997E+02  0.45594000000E+02  0.51100000000E-03 0. -1.
    9900012    2    1    2    0    0 -0.21039863820E+02 -0.19168882026E+02 -0.14373489071E+02  0.59301967074E+02  0.50000042031E+02 0.  0.
        -12    1    1    2    0    0  0.21039863820E+02  0.19168882026E+02  0.14373489071E+02  0.31886032926E+02  0.00000000000E+00 0.  1.
         11    1    3    3    0    0  0.61031306678E+01  0.20817877669E+00  0.21209120132E+01  0.64645038773E+01  0.51100000000E-03 0. -1.
        -11    1    3    3    0    0 -0.23497977588E+02 -0.16390224822E+02  0.64896105978E+01  0.29375320703E+02  0.51100000000E-03 0.  1.
         12    1    3    3    0    0 -0.36450168995E+01 -0.29868359803E+01 -0.22984011682E+02  0.23462142493E+02  0.00000000000E+00 0. -1.
</event>
<event>
 7    1  0.6489567E-013  0.5930195E+02  0.7816164E-02  0.1266605E+00
        -11   -1    0    0    0    0  0.00000000000E+00  0.00000000000E+00  0.45593999997E+02  0.45594000000E+02  0.51100000000E-03 0. -1.
         11   -1    0    0    0    0 -0.00000000000E+00 -0.00000000000E+00 -0.45593999997E+02  0.45594000000E+02  0.51100000000E-03 0.  1.
    9900012    2    1    2    0    0 -0.41885436406E+01  0.21794307330E+02  0.22895074554E+02  0.59301950250E+02  0.50000011348E+02 0.  0.
        -12    1    1    2    0    0  0.41885436406E+01 -0.21794307330E+02 -0.22895074554E+02  0.31886049750E+02  0.00000000000E+00 0.  1.
         11    1    3    3    0    0 -0.11107432240E+02  0.10708873768E+02  0.43535635303E+01  0.16031486020E+02  0.51100000000E-03 0. -1.
        -11    1    3    3    0    0 -0.12111368401E+02  0.12179894043E+01 -0.33564525943E+01  0.12626738178E+02  0.51100000000E-03 0.  1.
         12    1    3    3    0    0  0.19030257000E+02  0.98674441573E+01  0.21897963618E+02  0.30643726052E+02  0.00000000000E+00 0. -1.
</event>
<event>
 7    1  0.6489567E-013  0.5930185E+02  0.7816164E-02  0.1266605E+00
        -11   -1    0    0    0    0  0.00000000000E+00  0.00000000000E+00  0.45593999997E+02  0.45594000000E+02  0.51100000000E-03 0.  1.
         11   -1    0    0    0    0 -0.00000000000E+00 -0.00000000000E+00 -0.45593999997E+02  0.45594000000E+02  0.51100000000E-03 0. -1.
    9900012    2    1    2    0    0 -0.14167388996E+02  0.28554319075E+02  0.81399288779E+00  0.59301848881E+02  0.49999826474E+02 0.  0.
        -12    1    1    2    0    0  0.14167388996E+02 -0.28554319075E+02 -0.81399288779E+00  0.31886151119E+02  0.00000000000E+00 0.  1.
         11    1    3    3    0    0 -0.26866634355E+00  0.14348194260E+02 -0.81447481425E+01  0.16500902481E+02  0.51100000000E-03 0. -1.
        -11    1    3    3    0    0  0.10895009327E+02  0.12081958375E+02 -0.24005295074E+00  0.16270604540E+02  0.51100000000E-03 0.  1.
        -12    1    3    3    0    0 -0.24793731979E+02  0.21241664407E+01  0.91987939810E+01  0.26530341860E+02  0.00000000000E+00 0.  1.
</event>
<event>
 7    1  0.6489567E-013  0.5930197E+02  0.7816164E-02  0.1266605E+00
        -11   -1    0    0    0    0  0.00000000000E+00  0.00000000000E+00  0.45593999997E+02  0.45594000000E+02  0.51100000000E-03 0. -1.
         11   -1    0    0    0    0 -0.00000000000E+00 -0.00000000000E+00 -0.45593999997E+02  0.45594000000E+02  0.51100000000E-03 0.  1.
    9900012    2    1    2    0    0 -0.23640464675E+02  0.18295668442E+02  0.11095767586E+02  0.59301966817E+02  0.50000041563E+02 0.  0.
        -12    1    1    2    0    0  0.23640464675E+02 -0.18295668442E+02 -0.11095767586E+02  0.31886033183E+02  0.00000000000E+00 0.  1.
         11    1    3    3    0    0 -0.66273451236E+01  0.27163722681E+01  0.18590190975E+02  0.19922238389E+02  0.51100000000E-03 0. -1.
        -11    1    3    3    0    0 -0.24482866023E+02  0.99438787273E+01  0.14101748513E+01  0.26462804957E+02  0.51100000000E-03 0.  1.
        -12    1    3    3    0    0  0.74697464709E+01  0.56354174465E+01 -0.89045982402E+01  0.12916923471E+02  0.00000000000E+00 0.  1.
</event>
<event>
 7    1  0.6489567E-013  0.5930196E+02  0.7816164E-02  0.1266605E+00
        -11   -1    0    0    0    0  0.00000000000E+00  0.00000000000E+00  0.45593999997E+02  0.45594000000E+02  0.51100000000E-03 0. -1.
         11   -1    0    0    0    0 -0.00000000000E+00 -0.00000000000E+00 -0.45593999997E+02  0.45594000000E+02  0.51100000000E-03 0.  1.
    9900012    2    1    2    0    0 -0.30352987983E+02 -0.13160565800E+00  0.97672201777E+01  0.59301956195E+02  0.50000022190E+02 0.  0.
        -12    1    1    2    0    0  0.30352987983E+02  0.13160565800E+00 -0.97672201777E+01  0.31886043805E+02  0.00000000000E+00 0.  1.
         11    1    3    3    0    0 -0.74321581225E+01 -0.86952472039E+00  0.12702157357E+02  0.14742382758E+02  0.51100000000E-03 0. -1.
        -11    1    3    3    0    0 -0.85943199262E+01  0.12648974426E+02  0.12978430788E+02  0.20057381559E+02  0.51100000000E-03 0.  1.
        -12    1    3    3    0    0 -0.14326509934E+02 -0.11911055364E+02 -0.15913367967E+02  0.24502191878E+02  0.00000000000E+00 0.  1.
</event>
<event>
 7    1  0.6489567E-013  0.5930195E+02  0.7816164E-02  0.1266605E+00
        -11   -1    0    0    0    0  0.00000000000E+00  0.00000000000E+00  0.45593999997E+02  0.45594000000E+02  0.51100000000E-03 0.  1.
         11   -1    0    0    0    0 -0.00000000000E+00 -0.00000000000E+00 -0.45593999997E+02  0.45594000000E+02  0.51100000000E-03 0. -1.
    9900012    2    1    2    0    0  0.14781341703E+02  0.26727967987E+02  0.91568297534E+01  0.59301954990E+02  0.50000019992E+02 0.  0.
        -12    1    1    2    0    0 -0.14781341703E+02 -0.26727967987E+02 -0.91568297534E+01  0.31886045010E+02  0.00000000000E+00 0.  1.
         11    1    3    3    0    0  0.16195567990E+02  0.31443649216E+01 -0.56512202339E+01  0.17439029321E+02  0.51100000000E-03 0. -1.
        -11    1    3    3    0    0  0.71570167344E+01  0.80610626787E+00  0.15948553320E+02  0.17499401393E+02  0.51100000000E-03 0.  1.
         12    1    3    3    0    0 -0.85712430212E+01  0.22777496797E+02 -0.11405033324E+01  0.24363524276E+02  0.00000000000E+00 0. -1.
</event>
<event>
 7    1  0.6489567E-013  0.5930190E+02  0.7816164E-02  0.1266605E+00
        -11   -1    0    0    0    0  0.00000000000E+00  0.00000000000E+00  0.45593999997E+02  0.45594000000E+02  0.51100000000E-03 0.  1.
         11   -1    0    0    0    0 -0.00000000000E+00 -0.00000000000E+00 -0.45593999997E+02  0.45594000000E+02  0.51100000000E-03 0. -1.
    9900012    2    1    2    0    0 -0.17590813006E+02  0.26196665388E+02  0.45848966819E+01  0.59301901818E+02  0.49999923020E+02 0.  0.
        -12    1    1    2    0    0  0.17590813006E+02 -0.26196665388E+02 -0.45848966819E+01  0.31886098182E+02  0.00000000000E+00 0.  1.
         11    1    3    3    0    0 -0.21765107577E+02  0.60505634640E+01  0.12710589904E+01  0.22626197588E+02  0.51100000000E-03 0. -1.
        -11    1    3    3    0    0  0.16818992635E+02  0.10698844999E+02  0.56520865579E+01  0.20719311772E+02  0.51100000000E-03 0.  1.
         12    1    3    3    0    0 -0.12644698064E+02  0.94472569249E+01 -0.23382488664E+01  0.15956392459E+02  0.00000000000E+00 0. -1.
</event>
<event>
 7    1  0.6489567E-013  0.5930193E+02  0.7816164E-02  0.1266605E+00
        -11   -1    0    0    0    0  0.00000000000E+00  0.00000000000E+00  0.45593999997E+02  0.45594000000E+02  0.51100000000E-03 0.  1.
         11   -1    0    0    0    0 -0.00000000000E+00 -0.00000000000E+00 -0.45593999997E+02  0.45594000000E+02  0.51100000000E-03 0. -1.
    9900012    2    1    2    0    0  0.10805285708E+02 -0.18323629447E+02 -0.23753138281E+02  0.59301934492E+02  0.49999982610E+02 0.  0.
        -12    1    1    2    0    0 -0.10805285708E+02  0.18323629447E+02  0.23753138281E+02  0.31886065508E+02  0.00000000000E+00 0.  1.
         11    1    3    3    0    0  0.19150705300E+02 -0.55802302751E+01 -0.18235643900E+02  0.27026416561E+02  0.51100000000E-03 0. -1.
        -11    1    3    3    0    0  0.35357509032E+01  0.63683094850E+01  0.34388259771E+01  0.80549627254E+01  0.51100000000E-03 0.  1.
         12    1    3    3    0    0 -0.11881170495E+02 -0.19111708657E+02 -0.89563203580E+01  0.24220555206E+02  0.00000000000E+00 0. -1.
</event>
<event>
 7    1  0.6489567E-013  0.5930196E+02  0.7816164E-02  0.1266605E+00
        -11   -1    0    0    0    0  0.00000000000E+00  0.00000000000E+00  0.45593999997E+02  0.45594000000E+02  0.51100000000E-03 0. -1.
         11   -1    0    0    0    0 -0.00000000000E+00 -0.00000000000E+00 -0.45593999997E+02  0.45594000000E+02  0.51100000000E-03 0.  1.
    9900012    2    1    2    0    0  0.10023374900E+02 -0.12082270989E+02  0.27753743591E+02  0.59301959168E+02  0.50000027612E+02 0.  0.
        -12    1    1    2    0    0 -0.10023374900E+02  0.12082270989E+02 -0.27753743591E+02  0.31886040832E+02  0.00000000000E+00 0.  1.
         11    1    3    3    0    0  0.13313903981E+01  0.68051893303E+01  0.46582125572E+01  0.83535708953E+01  0.51100000000E-03 0. -1.
        -11    1    3    3    0    0  0.12627627393E+02  0.53862547355E+01  0.22491511156E+02  0.26350271118E+02  0.51100000000E-03 0.  1.
        -12    1    3    3    0    0 -0.39356428906E+01 -0.24273715055E+02  0.60401987720E+00  0.24598117154E+02  0.00000000000E+00 0.  1.
</event>
<event>
 7    1  0.6489567E-013  0.5930194E+02  0.7816164E-02  0.1266605E+00
        -11   -1    0    0    0    0  0.00000000000E+00  0.00000000000E+00  0.45593999997E+02  0.45594000000E+02  0.51100000000E-03 0.  1.
         11   -1    0    0    0    0 -0.00000000000E+00 -0.00000000000E+00 -0.45593999997E+02  0.45594000000E+02  0.51100000000E-03 0. -1.
    9900012    2    1    2    0    0  0.26429881092E+02  0.15924443240E+01 -0.17766432814E+02  0.59301943041E+02  0.49999998200E+02 0.  0.
        -12    1    1    2    0    0 -0.26429881092E+02 -0.15924443240E+01  0.17766432814E+02  0.31886056959E+02  0.00000000000E+00 0.  1.
         11    1    3    3    0    0  0.19997929298E+01 -0.41479968627E+01 -0.11335381301E+02  0.12235028370E+02  0.51100000000E-03 0. -1.
        -11    1    3    3    0    0  0.33960775572E+02  0.10749180426E+02 -0.69279068289E+01  0.36288773065E+02  0.51100000000E-03 0.  1.
         12    1    3    3    0    0 -0.95306874098E+01 -0.50087392390E+01  0.49685531500E+00  0.10778141606E+02  0.00000000000E+00 0. -1.
</event>
<event>
 7    1  0.6489567E-013  0.5930190E+02  0.7816164E-02  0.1266605E+00
        -11   -1    0    0    0    0  0.00000000000E+00  0.00000000000E+00  0.45593999997E+02  0.45594000000E+02  0.51100000000E-03 0.  1.
         11   -1    0    0    0    0 -0.00000000000E+00 -0.00000000000E+00 -0.45593999997E+02  0.45594000000E+02  0.51100000000E-03 0. -1.
    9900012    2    1    2    0    0  0.13499848001E+02 -0.49036542770E+01 -0.28468081246E+02  0.59301900033E+02  0.49999919764E+02 0.  0.
        -12    1    1    2    0    0 -0.13499848001E+02  0.49036542770E+01  0.28468081246E+02  0.31886099967E+02  0.00000000000E+00 0.  1.
         11    1    3    3    0    0 -0.58754949444E+00 -0.69628935563E+01 -0.10630803944E+02  0.12721678106E+02  0.51100000000E-03 0. -1.
        -11    1    3    3    0    0 -0.27085589932E+01 -0.17239985680E+01  0.11841576925E+02  0.12269124142E+02  0.51100000000E-03 0.  1.
         12    1    3    3    0    0  0.16795956488E+02  0.37832378473E+01 -0.29678854227E+02  0.34311097785E+02  0.00000000000E+00 0. -1.
</event>
<event>
 7    1  0.6489567E-013  0.5930192E+02  0.7816164E-02  0.1266605E+00
        -11   -1    0    0    0    0  0.00000000000E+00  0.00000000000E+00  0.45593999997E+02  0.45594000000E+02  0.51100000000E-03 0. -1.
         11   -1    0    0    0    0 -0.00000000000E+00 -0.00000000000E+00 -0.45593999997E+02  0.45594000000E+02  0.51100000000E-03 0.  1.
    9900012    2    1    2    0    0  0.17387285608E+02  0.22579074459E+02  0.14303496581E+02  0.59301916536E+02  0.49999949862E+02 0.  0.
        -12    1    1    2    0    0 -0.17387285608E+02 -0.22579074459E+02 -0.14303496581E+02  0.31886083464E+02  0.00000000000E+00 0.  1.
         11    1    3    3    0    0 -0.33552866555E+01 -0.19782158774E+01  0.18853219707E+02  0.19251368268E+02  0.51100000000E-03 0.  1.
        -11    1    3    3    0    0  0.19313139917E+02  0.25040810002E+02  0.35403355755E+01  0.31820960313E+02  0.51100000000E-03 0. -1.
        -12    1    3    3    0    0  0.14294323465E+01 -0.48351966559E+00 -0.80900587025E+01  0.82295879550E+01  0.00000000000E+00 0.  1.
</event>
<event>
 7    1  0.6489567E-013  0.5930202E+02  0.7816164E-02  0.1266605E+00
        -11   -1    0    0    0    0  0.00000000000E+00  0.00000000000E+00  0.45593999997E+02  0.45594000000E+02  0.51100000000E-03 0.  1.
         11   -1    0    0    0    0 -0.00000000000E+00 -0.00000000000E+00 -0.45593999997E+02  0.45594000000E+02  0.51100000000E-03 0. -1.
    9900012    2    1    2    0    0 -0.23183568447E+02  0.21403400402E+02 -0.45969990398E+01  0.59302018834E+02  0.50000136429E+02 0.  0.
        -12    1    1    2    0    0  0.23183568447E+02 -0.21403400402E+02  0.45969990398E+01  0.31885981166E+02  0.00000000000E+00 0.  1.
         11    1    3    3    0    0  0.98838266724E+01  0.80678375782E+01 -0.10923600408E+02  0.16795984015E+02  0.51100000000E-03 0. -1.
        -11    1    3    3    0    0 -0.25500336328E+02  0.18765931807E+02  0.79047384081E+00  0.31670999330E+02  0.51100000000E-03 0.  1.
        -12    1    3    3    0    0 -0.75670587917E+01 -0.54303689830E+01  0.55361275278E+01  0.10835035489E+02  0.00000000000E+00 0.  1.
</event>
<event>
 7    1  0.6489567E-013  0.5930197E+02  0.7816164E-02  0.1266605E+00
        -11   -1    0    0    0    0  0.00000000000E+00  0.00000000000E+00  0.45593999997E+02  0.45594000000E+02  0.51100000000E-03 0.  1.
         11   -1    0    0    0    0 -0.00000000000E+00 -0.00000000000E+00 -0.45593999997E+02  0.45594000000E+02  0.51100000000E-03 0. -1.
    9900012    2    1    2    0    0 -0.32371184333E+01  0.29793360016E+02 -0.10890156157E+02  0.59301972686E+02  0.50000052265E+02 0.  0.
        -12    1    1    2    0    0  0.32371184333E+01 -0.29793360016E+02  0.10890156157E+02  0.31886027314E+02  0.00000000000E+00 0.  1.
         11    1    3    3    0    0  0.76141932634E+00 -0.45160206732E+01  0.24169160748E+01  0.51783863978E+01  0.51100000000E-03 0. -1.
        -11    1    3    3    0    0  0.14902663317E+02  0.23631745760E+02  0.12826970355E+01  0.27967733079E+02  0.51100000000E-03 0.  1.
         12    1    3    3    0    0 -0.18901201077E+02  0.10677634929E+02 -0.14589769268E+02  0.26155853209E+02  0.00000000000E+00 0. -1.
</event>
<event>
 7    1  0.6489567E-013  0.5930190E+02  0.7816164E-02  0.1266605E+00
        -11   -1    0    0    0    0  0.00000000000E+00  0.00000000000E+00  0.45593999997E+02  0.45594000000E+02  0.51100000000E-03 0. -1.
         11   -1    0    0    0    0 -0.00000000000E+00 -0.00000000000E+00 -0.45593999997E+02  0.45594000000E+02  0.51100000000E-03 0.  1.
    9900012    2    1    2    0    0 -0.29257335608E+02 -0.12357174592E+02 -0.28340353157E+01  0.59301902607E+02  0.49999924459E+02 0.  0.
        -12    1    1    2    0    0  0.29257335608E+02  0.12357174592E+02  0.28340353157E+01  0.31886097393E+02  0.00000000000E+00 0.  1.
         11    1    3    3    0    0 -0.21575353671E+02 -0.76073554676E+01 -0.83711201495E+01  0.24360693670E+02  0.51100000000E-03 0. -1.
        -11    1    3    3    0    0 -0.70258010615E+01  0.50361689070E+01 -0.12034687055E+02  0.14817508920E+02  0.51100000000E-03 0.  1.
         12    1    3    3    0    0 -0.65618087534E+00 -0.97859880314E+01  0.17571771889E+02  0.20123700018E+02  0.00000000000E+00 0. -1.
</event>
<event>
 7    1  0.6489567E-013  0.5930196E+02  0.7816164E-02  0.1266605E+00
        -11   -1    0    0    0    0  0.00000000000E+00  0.00000000000E+00  0.45593999997E+02  0.45594000000E+02  0.51100000000E-03 0.  1.
         11   -1    0    0    0    0 -0.00000000000E+00 -0.00000000000E+00 -0.45593999997E+02  0.45594000000E+02  0.51100000000E-03 0. -1.
    9900012    2    1    2    0    0  0.15016685096E+02  0.25128946639E+02  0.12639408970E+02  0.59301961526E+02  0.50000031913E+02 0.  0.
        -12    1    1    2    0    0 -0.15016685096E+02 -0.25128946639E+02 -0.12639408970E+02  0.31886038474E+02  0.00000000000E+00 0.  1.
         11    1    3    3    0    0  0.79971876388E+01  0.31822788264E+01  0.68245229191E+01  0.10984353508E+02  0.51100000000E-03 0. -1.
        -11    1    3    3    0    0  0.23517874528E+02  0.11179459669E+02 -0.39360194511E+01  0.26335584106E+02  0.51100000000E-03 0.  1.
         12    1    3    3    0    0 -0.16498377071E+02  0.10767208144E+02  0.97509055018E+01  0.21982023912E+02  0.00000000000E+00 0. -1.
</event>
<event>
 7    1  0.6489567E-013  0.5930193E+02  0.7816164E-02  0.1266605E+00
        -11   -1    0    0    0    0  0.00000000000E+00  0.00000000000E+00  0.45593999997E+02  0.45594000000E+02  0.51100000000E-03 0. -1.
         11   -1    0    0    0    0 -0.00000000000E+00 -0.00000000000E+00 -0.45593999997E+02  0.45594000000E+02  0.51100000000E-03 0.  1.
    9900012    2    1    2    0    0 -0.24804182009E+02  0.19618565990E+02  0.40725585755E+01  0.59301932353E+02  0.49999978708E+02 0.  0.
        -12    1    1    2    0    0  0.24804182009E+02 -0.19618565990E+02 -0.40725585755E+01  0.31886067647E+02  0.00000000000E+00 0.  1.
         11    1    3    3    0    0 -0.59751278554E+01  0.86243936694E+01  0.75895159270E+00  0.10519426165E+02  0.51100000000E-03 0. -1.
        -11    1    3    3    0    0  0.44086367516E+01  0.13710436642E+02 -0.13682218966E+02  0.19864925547E+02  0.51100000000E-03 0.  1.
         12    1    3    3    0    0 -0.23237690905E+02 -0.27162643210E+01  0.16995825948E+02  0.28917580641E+02  0.00000000000E+00 0. -1.
</event>
<event>
 7    1  0.6489567E-013  0.5930194E+02  0.7816164E-02  0.1266605E+00
        -11   -1    0    0    0    0  0.00000000000E+00  0.00000000000E+00  0.45593999997E+02  0.45594000000E+02  0.51100000000E-03 0. -1.
         11   -1    0    0    0    0 -0.00000000000E+00 -0.00000000000E+00 -0.45593999997E+02  0.45594000000E+02  0.51100000000E-03 0.  1.
    9900012    2    1    2    0    0 -0.99020716753E+01 -0.31632763647E+01  0.30144045553E+02  0.59301939987E+02  0.49999992631E+02 0.  0.
        -12    1    1    2    0    0  0.99020716753E+01  0.31632763647E+01 -0.30144045553E+02  0.31886060013E+02  0.00000000000E+00 0.  1.
         11    1    3    3    0    0  0.26805369480E+01 -0.51660138247E+01  0.69518900804E+01  0.90665182467E+01  0.51100000000E-03 0. -1.
        -11    1    3    3    0    0  0.14103888527E+02  0.48038234363E+01  0.20277573217E+00  0.14900923107E+02  0.51100000000E-03 0.  1.
         12    1    3    3    0    0 -0.26686497150E+02 -0.28010859764E+01  0.22989379741E+02  0.35334498633E+02  0.00000000000E+00 0. -1.
</event>
<event>
 7    1  0.6489567E-013  0.5930194E+02  0.7816164E-02  0.1266605E+00
        -11   -1    0    0    0    0  0.00000000000E+00  0.00000000000E+00  0.45593999997E+02  0.45594000000E+02  0.51100000000E-03 0.  1.
         11   -1    0    0    0    0 -0.00000000000E+00 -0.00000000000E+00 -0.45593999997E+02  0.45594000000E+02  0.51100000000E-03 0. -1.
    9900012    2    1    2    0    0 -0.78707367842E+01 -0.12320558398E+02 -0.28336829901E+02  0.59301943712E+02  0.49999999424E+02 0.  0.
        -12    1    1    2    0    0  0.78707367842E+01  0.12320558398E+02  0.28336829901E+02  0.31886056288E+02  0.00000000000E+00 0.  1.
         11    1    3    3    0    0  0.69414486664E+01 -0.32295390541E+00 -0.95848415608E+01  0.11838800481E+02  0.51100000000E-03 0. -1.
        -11    1    3    3    0    0 -0.23941188483E+02 -0.55664761067E+01  0.11888122160E+01  0.24608523665E+02  0.51100000000E-03 0.  1.
         12    1    3    3    0    0  0.91290030328E+01 -0.64311283856E+01 -0.19940800556E+02  0.22854619566E+02  0.00000000000E+00 0. -1.
</event>
<event>
 7    1  0.6489567E-013  0.5930195E+02  0.7816164E-02  0.1266605E+00
        -11   -1    0    0    0    0  0.00000000000E+00  0.00000000000E+00  0.45593999997E+02  0.45594000000E+02  0.51100000000E-03 0.  1.
         11   -1    0    0    0    0 -0.00000000000E+00 -0.00000000000E+00 -0.45593999997E+02  0.45594000000E+02  0.51100000000E-03 0. -1.
    9900012    2    1    2    0    0 -0.23128918848E+02  0.21063021917E+02 -0.61743297948E+01  0.59301950892E+02  0.50000012518E+02 0.  0.
        -12    1    1    2    0    0  0.23128918848E+02 -0.21063021917E+02  0.61743297948E+01  0.31886049108E+02  0.00000000000E+00 0.  1.
         11    1    3    3    0    0 -0.18732337078E+02 -0.33404053876E+01 -0.51133717950E+01  0.19702926989E+02  0.51100000000E-03 0. -1.
        -11    1    3    3    0    0 -0.35119765189E+00  0.84676044280E+01 -0.15533735652E+02  0.17695214272E+02  0.51100000000E-03 0.  1.
        -12    1    3    3    0    0 -0.40453841180E+01  0.15935822876E+02  0.14472777652E+02  0.21903809632E+02  0.00000000000E+00 0.  1.
</event>
<event>
 7    1  0.6489567E-013  0.5930192E+02  0.7816164E-02  0.1266605E+00
        -11   -1    0    0    0    0  0.00000000000E+00  0.00000000000E+00  0.45593999997E+02  0.45594000000E+02  0.51100000000E-03 0.  1.
         11   -1    0    0    0    0 -0.00000000000E+00 -0.00000000000E+00 -0.45593999997E+02  0.45594000000E+02  0.51100000000E-03 0. -1.
    9900012    2    1    2    0    0  0.19778152389E+02  0.25000938590E+02 -0.70678649828E+00  0.59301924835E+02  0.49999964996E+02 0.  0.
        -12    1    1    2    0    0 -0.19778152389E+02 -0.25000938590E+02  0.70678649828E+00  0.31886075165E+02  0.00000000000E+00 0.  1.
         11    1    3    3    0    0 -0.47541476466E+01  0.10869190146E+02 -0.89379383603E+01  0.14853550305E+02  0.51100000000E-03 0. -1.
        -11    1    3    3    0    0  0.10102562925E+02  0.17921458447E+02  0.17393704993E+02  0.26940330811E+02  0.51100000000E-03 0.  1.
         12    1    3    3    0    0  0.14429737110E+02 -0.37897100032E+01 -0.91625531310E+01  0.17508043719E+02  0.00000000000E+00 0. -1.
</event>
<event>
 7    1  0.6489567E-013  0.5930195E+02  0.7816164E-02  0.1266605E+00
        -11   -1    0    0    0    0  0.00000000000E+00  0.00000000000E+00  0.45593999997E+02  0.45594000000E+02  0.51100000000E-03 0.  1.
         11   -1    0    0    0    0 -0.00000000000E+00 -0.00000000000E+00 -0.45593999997E+02  0.45594000000E+02  0.51100000000E-03 0. -1.
    9900012    2    1    2    0    0 -0.26954749449E+02  0.47495856361E+01 -0.16358575034E+02  0.59301951974E+02  0.50000014493E+02 0.  0.
        -12    1    1    2    0    0  0.26954749449E+02 -0.47495856361E+01  0.16358575034E+02  0.31886048026E+02  0.00000000000E+00 0.  1.
         11    1    3    3    0    0 -0.14780462785E+02 -0.31338410911E+01 -0.86336054502E+01  0.17401786789E+02  0.51100000000E-03 0. -1.
        -11    1    3    3    0    0 -0.24669845495E+01  0.19651016509E+02 -0.15149054856E+02  0.24934761396E+02  0.51100000000E-03 0.  1.
         12    1    3    3    0    0 -0.97073021142E+01 -0.11767589782E+02  0.74240852719E+01  0.16965403789E+02  0.00000000000E+00 0. -1.
</event>
<event>
 7    1  0.6489567E-013  0.5930192E+02  0.7816164E-02  0.1266605E+00
        -11   -1    0    0    0    0  0.00000000000E+00  0.00000000000E+00  0.45593999997E+02  0.45594000000E+02  0.51100000000E-03 0.  1.
         11   -1    0    0    0    0 -0.00000000000E+00 -0.00000000000E+00 -0.45593999997E+02  0.45594000000E+02  0.51100000000E-03 0. -1.
    9900012    2    1    2    0    0 -0.23438466702E+01  0.28442746527E+02  0.14221063452E+02  0.59301920076E+02  0.49999956317E+02 0.  0.
        -12    1    1    2    0    0  0.23438466702E+01 -0.28442746527E+02 -0.14221063452E+02  0.31886079924E+02  0.00000000000E+00 0.  1.
         11    1    3    3    0    0 -0.78767466052E+01  0.29886586534E+02 -0.17414725096E+01  0.30956161237E+02  0.51100000000E-03 0. -1.
        -11    1    3    3    0    0 -0.29248302156E+01  0.92383334413E+01  0.53030803109E+01  0.11046451811E+02  0.51100000000E-03 0.  1.
        -12    1    3    3    0    0  0.84577301505E+01 -0.10682173448E+02  0.10659455651E+02  0.17299307028E+02  0.00000000000E+00 0.  1.
</event>
<event>
 7    1  0.6489567E-013  0.5930191E+02  0.7816164E-02  0.1266605E+00
        -11   -1    0    0    0    0  0.00000000000E+00  0.00000000000E+00  0.45593999997E+02  0.45594000000E+02  0.51100000000E-03 0.  1.
         11   -1    0    0    0    0 -0.00000000000E+00 -0.00000000000E+00 -0.45593999997E+02  0.45594000000E+02  0.51100000000E-03 0. -1.
    9900012    2    1    2    0    0  0.15868320658E+02 -0.10277881254E+02 -0.25676525870E+02  0.59301914879E+02  0.49999946839E+02 0.  0.
        -12    1    1    2    0    0 -0.15868320658E+02  0.10277881254E+02  0.25676525870E+02  0.31886085121E+02  0.00000000000E+00 0.  1.
         11    1    3    3    0    0 -0.69706512514E+01  0.40626680862E+01 -0.10519617146E+02  0.13257360069E+02  0.51100000000E-03 0. -1.
        -11    1    3    3    0    0 -0.79295161793E+01 -0.45480585606E+01  0.21768991266E+01  0.93968587079E+01  0.51100000000E-03 0.  1.
        -12    1    3    3    0    0  0.30768488089E+02 -0.97924907801E+01 -0.17333807851E+02  0.36647696102E+02  0.00000000000E+00 0.  1.
</event>
<event>
 7    1  0.6489567E-013  0.5930183E+02  0.7816164E-02  0.1266605E+00
        -11   -1    0    0    0    0  0.00000000000E+00  0.00000000000E+00  0.45593999997E+02  0.45594000000E+02  0.51100000000E-03 0.  1.
         11   -1    0    0    0    0 -0.00000000000E+00 -0.00000000000E+00 -0.45593999997E+02  0.45594000000E+02  0.51100000000E-03 0. -1.
    9900012    2    1    2    0    0 -0.18955140601E+02  0.73640243235E+01 -0.24560160398E+02  0.59301832337E+02  0.49999796302E+02 0.  0.
        -12    1    1    2    0    0  0.18955140601E+02 -0.73640243235E+01  0.24560160398E+02  0.31886167663E+02  0.00000000000E+00 0.  1.
         11    1    3    3    0    0 -0.64838930361E+00  0.53211905578E+01 -0.14377710428E+02  0.15344511561E+02  0.51100000000E-03 0. -1.
        -11    1    3    3    0    0 -0.19498286961E+02 -0.12569221832E+02 -0.16003945751E+02  0.28183236360E+02  0.51100000000E-03 0.  1.
         12    1    3    3    0    0  0.11915356637E+01  0.14612055598E+02  0.58214957803E+01  0.15774084416E+02  0.00000000000E+00 0. -1.
</event>
<event>
 7    1  0.6489567E-013  0.5930196E+02  0.7816164E-02  0.1266605E+00
        -11   -1    0    0    0    0  0.00000000000E+00  0.00000000000E+00  0.45593999997E+02  0.45594000000E+02  0.51100000000E-03 0. -1.
         11   -1    0    0    0    0 -0.00000000000E+00 -0.00000000000E+00 -0.45593999997E+02  0.45594000000E+02  0.51100000000E-03 0.  1.
    9900012    2    1    2    0    0  0.98908834253E+01  0.28617840217E+02  0.99954706471E+01  0.59301956234E+02  0.50000022261E+02 0.  0.
        -12    1    1    2    0    0 -0.98908834253E+01 -0.28617840217E+02 -0.99954706471E+01  0.31886043766E+02  0.00000000000E+00 0.  1.
         11    1    3    3    0    0  0.23891705772E+02  0.29077745763E+01  0.37322547566E+01  0.24355666353E+02  0.51100000000E-03 0. -1.
        -11    1    3    3    0    0  0.34743089843E+01  0.49983439684E+01 -0.23292995896E+01  0.65176607908E+01  0.51100000000E-03 0.  1.
         12    1    3    3    0    0 -0.17475131331E+02  0.20711721672E+02  0.85925154801E+01  0.28428629090E+02  0.00000000000E+00 0. -1.
</event>
<event>
 7    1  0.6489567E-013  0.5930196E+02  0.7816164E-02  0.1266605E+00
        -11   -1    0    0    0    0  0.00000000000E+00  0.00000000000E+00  0.45593999997E+02  0.45594000000E+02  0.51100000000E-03 0. -1.
         11   -1    0    0    0    0 -0.00000000000E+00 -0.00000000000E+00 -0.45593999997E+02  0.45594000000E+02  0.51100000000E-03 0.  1.
    9900012    2    1    2    0    0 -0.31583459115E+02  0.43191742555E+01  0.74106066286E+00  0.59301963451E+02  0.50000035423E+02 0.  0.
        -12    1    1    2    0    0  0.31583459115E+02 -0.43191742555E+01 -0.74106066286E+00  0.31886036549E+02  0.00000000000E+00 0.  1.
         11    1    3    3    0    0 -0.15518127650E+02 -0.21121292589E+02 -0.20906602294E+01  0.26292435164E+02  0.51100000000E-03 0.  1.
        -11    1    3    3    0    0 -0.70606887863E+01  0.85713216847E+01  0.74059713517E+01  0.13348007098E+02  0.51100000000E-03 0. -1.
        -12    1    3    3    0    0 -0.90046426787E+01  0.16869145160E+02 -0.45742504594E+01  0.19661521189E+02  0.00000000000E+00 0.  1.
</event>
<event>
 7    1  0.6489567E-013  0.5930196E+02  0.7816164E-02  0.1266605E+00
        -11   -1    0    0    0    0  0.00000000000E+00  0.00000000000E+00  0.45593999997E+02  0.45594000000E+02  0.51100000000E-03 0. -1.
         11   -1    0    0    0    0 -0.00000000000E+00 -0.00000000000E+00 -0.45593999997E+02  0.45594000000E+02  0.51100000000E-03 0.  1.
    9900012    2    1    2    0    0  0.49506473945E+01 -0.46997408944E+01  0.31146798741E+02  0.59301960015E+02  0.50000029157E+02 0.  0.
        -12    1    1    2    0    0 -0.49506473945E+01  0.46997408944E+01 -0.31146798741E+02  0.31886039985E+02  0.00000000000E+00 0.  1.
         11    1    3    3    0    0  0.25400050959E+01 -0.87316463634E+00  0.91502926600E+01  0.95363461763E+01  0.51100000000E-03 0. -1.
        -11    1    3    3    0    0  0.59425107327E+01  0.13165433540E+02 -0.69387888360E+01  0.16024633065E+02  0.51100000000E-03 0.  1.
         12    1    3    3    0    0 -0.35318684341E+01 -0.16992009798E+02  0.28935294917E+02  0.33740980774E+02  0.00000000000E+00 0. -1.
</event>
<event>
 7    1  0.6489567E-013  0.5930195E+02  0.7816164E-02  0.1266605E+00
        -11   -1    0    0    0    0  0.00000000000E+00  0.00000000000E+00  0.45593999997E+02  0.45594000000E+02  0.51100000000E-03 0. -1.
         11   -1    0    0    0    0 -0.00000000000E+00 -0.00000000000E+00 -0.45593999997E+02  0.45594000000E+02  0.51100000000E-03 0.  1.
    9900012    2    1    2    0    0 -0.19780486189E+02  0.22680690863E+02  0.10537510614E+02  0.59301945026E+02  0.50000001820E+02 0.  0.
        -12    1    1    2    0    0  0.19780486189E+02 -0.22680690863E+02 -0.10537510614E+02  0.31886054974E+02  0.00000000000E+00 0.  1.
         11    1    3    3    0    0  0.42235321866E+01  0.49794230383E+01  0.20509077106E+01  0.68439097470E+01  0.51100000000E-03 0. -1.
        -11    1    3    3    0    0 -0.87486438758E+01 -0.13868555344E+02  0.61702690295E-01  0.16397542636E+02  0.51100000000E-03 0.  1.
         12    1    3    3    0    0 -0.15255374500E+02  0.31569823169E+02  0.84249002133E+01  0.36060492643E+02  0.00000000000E+00 0. -1.
</event>
<event>
 7    1  0.6489567E-013  0.5930198E+02  0.7816164E-02  0.1266605E+00
        -11   -1    0    0    0    0  0.00000000000E+00  0.00000000000E+00  0.45593999997E+02  0.45594000000E+02  0.51100000000E-03 0.  1.
         11   -1    0    0    0    0 -0.00000000000E+00 -0.00000000000E+00 -0.45593999997E+02  0.45594000000E+02  0.51100000000E-03 0. -1.
    9900012    2    1    2    0    0 -0.65046916441E+01 -0.43836832546E+01 -0.30906154045E+02  0.59301983471E+02  0.50000071935E+02 0.  0.
        -12    1    1    2    0    0  0.65046916441E+01  0.43836832546E+01  0.30906154045E+02  0.31886016529E+02  0.00000000000E+00 0.  1.
         11    1    3    3    0    0 -0.15101657744E+02  0.75158093555E+01 -0.27195136420E+02  0.32001920287E+02  0.51100000000E-03 0. -1.
        -11    1    3    3    0    0 -0.18992032084E+01 -0.61878193513E+01 -0.11386567386E+02  0.13097709657E+02  0.51100000000E-03 0.  1.
        -12    1    3    3    0    0  0.10496169309E+02 -0.57116732588E+01  0.76755497615E+01  0.14202353527E+02  0.00000000000E+00 0.  1.
</event>
<event>
 7    1  0.6489567E-013  0.5930189E+02  0.7816164E-02  0.1266605E+00
        -11   -1    0    0    0    0  0.00000000000E+00  0.00000000000E+00  0.45593999997E+02  0.45594000000E+02  0.51100000000E-03 0.  1.
         11   -1    0    0    0    0 -0.00000000000E+00 -0.00000000000E+00 -0.45593999997E+02  0.45594000000E+02  0.51100000000E-03 0. -1.
    9900012    2    1    2    0    0  0.21885593446E+02 -0.22897542072E+02 -0.36670358534E+01  0.59301893537E+02  0.49999907917E+02 0.  0.
        -12    1    1    2    0    0 -0.21885593446E+02  0.22897542072E+02  0.36670358534E+01  0.31886106463E+02  0.00000000000E+00 0.  1.
         11    1    3    3    0    0  0.79389817689E+01 -0.43920252753E+01 -0.41431026371E+01  0.99740973160E+01  0.51100000000E-03 0. -1.
        -11    1    3    3    0    0  0.19689515476E+02  0.61833267117E+01  0.90974085247E+01  0.22553788840E+02  0.51100000000E-03 0.  1.
         12    1    3    3    0    0 -0.57429037993E+01 -0.24688843508E+02 -0.86213417410E+01  0.26774007381E+02  0.00000000000E+00 0. -1.
</event>
<event>
 7    1  0.6489567E-013  0.5930194E+02  0.7816164E-02  0.1266605E+00
        -11   -1    0    0    0    0  0.00000000000E+00  0.00000000000E+00  0.45593999997E+02  0.45594000000E+02  0.51100000000E-03 0.  1.
         11   -1    0    0    0    0 -0.00000000000E+00 -0.00000000000E+00 -0.45593999997E+02  0.45594000000E+02  0.51100000000E-03 0. -1.
    9900012    2    1    2    0    0 -0.29300246681E+02  0.61198355149E+01 -0.10989273691E+02  0.59301937550E+02  0.49999988187E+02 0.  0.
        -12    1    1    2    0    0  0.29300246681E+02 -0.61198355149E+01  0.10989273691E+02  0.31886062450E+02  0.00000000000E+00 0.  1.
         11    1    3    3    0    0 -0.22246318003E+02  0.59531790125E+01 -0.61053640366E+01  0.23824661075E+02  0.51100000000E-03 0. -1.
        -11    1    3    3    0    0 -0.19747554222E+02 -0.65051825395E+01 -0.32591928158E+01  0.21045323369E+02  0.51100000000E-03 0.  1.
         12    1    3    3    0    0  0.12693625544E+02  0.66718390419E+01 -0.16247168389E+01  0.14431953106E+02  0.00000000000E+00 0. -1.
</event>
<event>
 7    1  0.6489567E-013  0.5930194E+02  0.7816164E-02  0.1266605E+00
        -11   -1    0    0    0    0  0.00000000000E+00  0.00000000000E+00  0.45593999997E+02  0.45594000000E+02  0.51100000000E-03 0.  1.
         11   -1    0    0    0    0 -0.00000000000E+00 -0.00000000000E+00 -0.45593999997E+02  0.45594000000E+02  0.51100000000E-03 0. -1.
    9900012    2    1    2    0    0 -0.18175697833E+02  0.19059173164E+02 -0.17975343174E+02  0.59301936655E+02  0.49999986555E+02 0.  0.
        -12    1    1    2    0    0  0.18175697833E+02 -0.19059173164E+02  0.17975343174E+02  0.31886063345E+02  0.00000000000E+00 0.  1.
         11    1    3    3    0    0 -0.93934601555E+01 -0.98776856291E+01 -0.88311021721E+01  0.16241740452E+02  0.51100000000E-03 0. -1.
        -11    1    3    3    0    0  0.33294135654E+01 -0.15939349549E+01  0.58792300937E+01  0.69419716281E+01  0.51100000000E-03 0.  1.
         12    1    3    3    0    0 -0.12111651243E+02  0.30530793748E+02 -0.15023471095E+02  0.36118224575E+02  0.00000000000E+00 0. -1.
</event>
<event>
 7    1  0.6489567E-013  0.5930195E+02  0.7816164E-02  0.1266605E+00
        -11   -1    0    0    0    0  0.00000000000E+00  0.00000000000E+00  0.45593999997E+02  0.45594000000E+02  0.51100000000E-03 0.  1.
         11   -1    0    0    0    0 -0.00000000000E+00 -0.00000000000E+00 -0.45593999997E+02  0.45594000000E+02  0.51100000000E-03 0. -1.
    9900012    2    1    2    0    0  0.23619539349E+02  0.16692851997E+00 -0.21419842375E+02  0.59301950518E+02  0.50000011837E+02 0.  0.
        -12    1    1    2    0    0 -0.23619539349E+02 -0.16692851997E+00  0.21419842375E+02  0.31886049482E+02  0.00000000000E+00 0.  1.
         11    1    3    3    0    0  0.97146440381E+01  0.62698906826E+01  0.48854360945E+01  0.12552024699E+02  0.51100000000E-03 0.  1.
        -11    1    3    3    0    0 -0.43287017040E+01  0.10811598804E+02 -0.17088977506E+01  0.11770669434E+02  0.51100000000E-03 0. -1.
         12    1    3    3    0    0  0.18233597015E+02 -0.16914560966E+02 -0.24596380719E+02  0.34979256385E+02  0.00000000000E+00 0. -1.
</event>
<event>
 7    1  0.6489567E-013  0.5930193E+02  0.7816164E-02  0.1266605E+00
        -11   -1    0    0    0    0  0.00000000000E+00  0.00000000000E+00  0.45593999997E+02  0.45594000000E+02  0.51100000000E-03 0. -1.
         11   -1    0    0    0    0 -0.00000000000E+00 -0.00000000000E+00 -0.45593999997E+02  0.45594000000E+02  0.51100000000E-03 0.  1.
    9900012    2    1    2    0    0  0.28483247422E+02  0.95783332330E+00  0.14300646460E+02  0.59301932234E+02  0.49999978491E+02 0.  0.
        -12    1    1    2    0    0 -0.28483247422E+02 -0.95783332330E+00 -0.14300646460E+02  0.31886067766E+02  0.00000000000E+00 0.  1.
         11    1    3    3    0    0  0.14729546602E+02 -0.59088660531E+01  0.28588470124E+02  0.32698239485E+02  0.51100000000E-03 0. -1.
        -11    1    3    3    0    0  0.36630565097E+01  0.70209451182E+01  0.13091419201E+01  0.80265500792E+01  0.51100000000E-03 0.  1.
        -12    1    3    3    0    0  0.10090644311E+02 -0.15424574173E+00 -0.15596965584E+02  0.18577142670E+02  0.00000000000E+00 0.  1.
</event>
<event>
 7    1  0.6489567E-013  0.5930195E+02  0.7816164E-02  0.1266605E+00
        -11   -1    0    0    0    0  0.00000000000E+00  0.00000000000E+00  0.45593999997E+02  0.45594000000E+02  0.51100000000E-03 0.  1.
         11   -1    0    0    0    0 -0.00000000000E+00 -0.00000000000E+00 -0.45593999997E+02  0.45594000000E+02  0.51100000000E-03 0. -1.
    9900012    2    1    2    0    0  0.70674977454E+01 -0.11190942379E+00 -0.31092731304E+02  0.59301953082E+02  0.50000016514E+02 0.  0.
        -12    1    1    2    0    0 -0.70674977454E+01  0.11190942379E+00  0.31092731304E+02  0.31886046918E+02  0.00000000000E+00 0.  1.
         11    1    3    3    0    0  0.13975703593E+01  0.17708516504E+01  0.23173894707E+01  0.32341015285E+01  0.51100000000E-03 0. -1.
        -11    1    3    3    0    0 -0.14164630673E+02  0.80795572364E+01 -0.42789878652E+00  0.16312544402E+02  0.51100000000E-03 0.  1.
         12    1    3    3    0    0  0.19834558059E+02 -0.99623183106E+01 -0.32982221988E+02  0.39755307152E+02  0.00000000000E+00 0. -1.
</event>
<event>
 7    1  0.6489567E-013  0.5930193E+02  0.7816164E-02  0.1266605E+00
        -11   -1    0    0    0    0  0.00000000000E+00  0.00000000000E+00  0.45593999997E+02  0.45594000000E+02  0.51100000000E-03 0.  1.
         11   -1    0    0    0    0 -0.00000000000E+00 -0.00000000000E+00 -0.45593999997E+02  0.45594000000E+02  0.51100000000E-03 0. -1.
    9900012    2    1    2    0    0 -0.18910636013E+02 -0.21053048792E+02 -0.14692807570E+02  0.59301927615E+02  0.49999970067E+02 0.  0.
        -12    1    1    2    0    0  0.18910636013E+02  0.21053048792E+02  0.14692807570E+02  0.31886072385E+02  0.00000000000E+00 0.  1.
         11    1    3    3    0    0 -0.96826588505E+01  0.57813803895E+01  0.69382814166E+01  0.13240770027E+02  0.51100000000E-03 0. -1.
        -11    1    3    3    0    0  0.69882194639E+01 -0.14014939708E+02  0.64201548152E+00  0.15673733775E+02  0.51100000000E-03 0.  1.
         12    1    3    3    0    0 -0.16216196626E+02 -0.12819489473E+02 -0.22273104468E+02  0.30387423813E+02  0.00000000000E+00 0. -1.
</event>
<event>
 7    1  0.6489567E-013  0.5930195E+02  0.7816164E-02  0.1266605E+00
        -11   -1    0    0    0    0  0.00000000000E+00  0.00000000000E+00  0.45593999997E+02  0.45594000000E+02  0.51100000000E-03 0. -1.
         11   -1    0    0    0    0 -0.00000000000E+00 -0.00000000000E+00 -0.45593999997E+02  0.45594000000E+02  0.51100000000E-03 0.  1.
    9900012    2    1    2    0    0 -0.24667221974E+02  0.10600086280E+02  0.17201356514E+02  0.59301947642E+02  0.50000006592E+02 0.  0.
        -12    1    1    2    0    0  0.24667221974E+02 -0.10600086280E+02 -0.17201356514E+02  0.31886052358E+02  0.00000000000E+00 0.  1.
         11    1    3    3    0    0  0.36719792633E+01  0.16370344717E+02  0.11925759403E+02  0.20583861529E+02  0.51100000000E-03 0. -1.
        -11    1    3    3    0    0  0.40604143818E+01  0.26831401290E+01  0.89590986719E+00  0.49486220966E+01  0.51100000000E-03 0.  1.
         12    1    3    3    0    0 -0.32399615619E+02 -0.84533985666E+01  0.43796872442E+01  0.33769464016E+02  0.00000000000E+00 0. -1.
</event>
<event>
 7    1  0.6489567E-013  0.5930198E+02  0.7816164E-02  0.1266605E+00
        -11   -1    0    0    0    0  0.00000000000E+00  0.00000000000E+00  0.45593999997E+02  0.45594000000E+02  0.51100000000E-03 0. -1.
         11   -1    0    0    0    0 -0.00000000000E+00 -0.00000000000E+00 -0.45593999997E+02  0.45594000000E+02  0.51100000000E-03 0.  1.
    9900012    2    1    2    0    0 -0.12647531243E+02 -0.16364088809E+02  0.24268802142E+02  0.59301981019E+02  0.50000067463E+02 0.  0.
        -12    1    1    2    0    0  0.12647531243E+02  0.16364088809E+02 -0.24268802142E+02  0.31886018981E+02  0.00000000000E+00 0.  1.
         11    1    3    3    0    0  0.27915133566E+01 -0.13269268598E+02  0.25156018853E+02  0.28577811686E+02  0.51100000000E-03 0. -1.
        -11    1    3    3    0    0 -0.95278382921E+01 -0.14318304248E+02 -0.40110871152E+01  0.17660191369E+02  0.51100000000E-03 0.  1.
         12    1    3    3    0    0 -0.59112063071E+01  0.11223484038E+02  0.31238704038E+01  0.13063977965E+02  0.00000000000E+00 0. -1.
</event>
<event>
 7    1  0.6489567E-013  0.5930195E+02  0.7816164E-02  0.1266605E+00
        -11   -1    0    0    0    0  0.00000000000E+00  0.00000000000E+00  0.45593999997E+02  0.45594000000E+02  0.51100000000E-03 0. -1.
         11   -1    0    0    0    0 -0.00000000000E+00 -0.00000000000E+00 -0.45593999997E+02  0.45594000000E+02  0.51100000000E-03 0.  1.
    9900012    2    1    2    0    0 -0.25453245826E+02  0.18457855678E+02  0.53066162545E+01  0.59301947636E+02  0.50000006581E+02 0.  0.
        -12    1    1    2    0    0  0.25453245826E+02 -0.18457855678E+02 -0.53066162545E+01  0.31886052364E+02  0.00000000000E+00 0.  1.
         11    1    3    3    0    0 -0.10317702589E+02 -0.37835818175E+00  0.87504373121E+01  0.13533968193E+02  0.51100000000E-03 0. -1.
        -11    1    3    3    0    0  0.80981915348E+01 -0.22996937430E+01 -0.10617623638E+02  0.13550026916E+02  0.51100000000E-03 0.  1.
         12    1    3    3    0    0 -0.23233734772E+02  0.21135907602E+02  0.71738025800E+01  0.32217952528E+02  0.00000000000E+00 0. -1.
</event>
<event>
 7    1  0.6489567E-013  0.5930194E+02  0.7816164E-02  0.1266605E+00
        -11   -1    0    0    0    0  0.00000000000E+00  0.00000000000E+00  0.45593999997E+02  0.45594000000E+02  0.51100000000E-03 0.  1.
         11   -1    0    0    0    0 -0.00000000000E+00 -0.00000000000E+00 -0.45593999997E+02  0.45594000000E+02  0.51100000000E-03 0. -1.
    9900012    2    1    2    0    0  0.19642023367E+02  0.96556641237E+01 -0.23187930708E+02  0.59301936240E+02  0.49999985797E+02 0.  0.
        -12    1    1    2    0    0 -0.19642023367E+02 -0.96556641237E+01  0.23187930708E+02  0.31886063760E+02  0.00000000000E+00 0.  1.
         11    1    3    3    0    0  0.25237965680E+02 -0.10133555346E+02 -0.17076234688E+02  0.32112951391E+02  0.51100000000E-03 0. -1.
        -11    1    3    3    0    0 -0.43652997984E+00 -0.26227904383E+01 -0.29550307488E+01  0.39751471789E+01  0.51100000000E-03 0.  1.
        -12    1    3    3    0    0 -0.51594123335E+01  0.22412009908E+02 -0.31566652704E+01  0.23213837670E+02  0.00000000000E+00 0.  1.
</event>
<event>
 7    1  0.6489567E-013  0.5930194E+02  0.7816164E-02  0.1266605E+00
        -11   -1    0    0    0    0  0.00000000000E+00  0.00000000000E+00  0.45593999997E+02  0.45594000000E+02  0.51100000000E-03 0.  1.
         11   -1    0    0    0    0 -0.00000000000E+00 -0.00000000000E+00 -0.45593999997E+02  0.45594000000E+02  0.51100000000E-03 0. -1.
    9900012    2    1    2    0    0 -0.29138077331E+02 -0.12146176901E+02 -0.44903928878E+01  0.59301940473E+02  0.49999993518E+02 0.  0.
        -12    1    1    2    0    0  0.29138077331E+02  0.12146176901E+02  0.44903928878E+01  0.31886059527E+02  0.00000000000E+00 0.  1.
         11    1    3    3    0    0 -0.27152477004E+02  0.91578778141E+01 -0.52862819861E+01  0.29138780191E+02  0.51100000000E-03 0. -1.
        -11    1    3    3    0    0  0.12631776826E+01  0.82664142535E+00  0.68306643596E+01  0.69954935321E+01  0.51100000000E-03 0.  1.
        -12    1    3    3    0    0 -0.32487780097E+01 -0.22130696140E+02 -0.60347752613E+01  0.23167666750E+02  0.00000000000E+00 0.  1.
</event>
<event>
 7    1  0.6489567E-013  0.5930192E+02  0.7816164E-02  0.1266605E+00
        -11   -1    0    0    0    0  0.00000000000E+00  0.00000000000E+00  0.45593999997E+02  0.45594000000E+02  0.51100000000E-03 0. -1.
         11   -1    0    0    0    0 -0.00000000000E+00 -0.00000000000E+00 -0.45593999997E+02  0.45594000000E+02  0.51100000000E-03 0.  1.
    9900012    2    1    2    0    0  0.24225418787E+02 -0.49672310557E+01  0.20129023240E+02  0.59301923472E+02  0.49999962511E+02 0.  0.
        -12    1    1    2    0    0 -0.24225418787E+02  0.49672310557E+01 -0.20129023240E+02  0.31886076528E+02  0.00000000000E+00 0.  1.
         11    1    3    3    0    0  0.30892896158E+01  0.80211423760E+01  0.29038564916E+01  0.90727514091E+01  0.51100000000E-03 0. -1.
        -11    1    3    3    0    0  0.11404907073E+02 -0.45856854194E+01 -0.12690477286E+02  0.17667728493E+02  0.51100000000E-03 0.  1.
         12    1    3    3    0    0  0.97312220987E+01 -0.84026880123E+01  0.29915644034E+02  0.32561443570E+02  0.00000000000E+00 0. -1.
</event>
<event>
 7    1  0.6489567E-013  0.5930188E+02  0.7816164E-02  0.1266605E+00
        -11   -1    0    0    0    0  0.00000000000E+00  0.00000000000E+00  0.45593999997E+02  0.45594000000E+02  0.51100000000E-03 0.  1.
         11   -1    0    0    0    0 -0.00000000000E+00 -0.00000000000E+00 -0.45593999997E+02  0.45594000000E+02  0.51100000000E-03 0. -1.
    9900012    2    1    2    0    0  0.53667152742E+00 -0.13800835707E+02 -0.28739759956E+02  0.59301876296E+02  0.49999876474E+02 0.  0.
        -12    1    1    2    0    0 -0.53667152742E+00  0.13800835707E+02  0.28739759956E+02  0.31886123704E+02  0.00000000000E+00 0.  1.
         11    1    3    3    0    0  0.73898072861E+01  0.14027201535E+01 -0.26274697471E+02  0.27330140925E+02  0.51100000000E-03 0. -1.
        -11    1    3    3    0    0 -0.42090511806E+01 -0.37524719802E+01 -0.14251946894E+02  0.15326941910E+02  0.51100000000E-03 0.  1.
         12    1    3    3    0    0 -0.26440845781E+01 -0.11451083880E+02  0.11786884408E+02  0.16644793461E+02  0.00000000000E+00 0. -1.
</event>
<event>
 7    1  0.6489567E-013  0.5930196E+02  0.7816164E-02  0.1266605E+00
        -11   -1    0    0    0    0  0.00000000000E+00  0.00000000000E+00  0.45593999997E+02  0.45594000000E+02  0.51100000000E-03 0. -1.
         11   -1    0    0    0    0 -0.00000000000E+00 -0.00000000000E+00 -0.45593999997E+02  0.45594000000E+02  0.51100000000E-03 0.  1.
    9900012    2    1    2    0    0  0.62333924942E+01  0.18193698603E+02  0.25433321388E+02  0.59301957792E+02  0.50000025104E+02 0.  0.
        -12    1    1    2    0    0 -0.62333924942E+01 -0.18193698603E+02 -0.25433321388E+02  0.31886042208E+02  0.00000000000E+00 0.  1.
         11    1    3    3    0    0  0.13083033313E+02 -0.93450288763E+01  0.47633317730E+01  0.16768561513E+02  0.51100000000E-03 0. -1.
        -11    1    3    3    0    0  0.70657363686E+01  0.20569509850E+01  0.79569093486E+01  0.10838269439E+02  0.51100000000E-03 0.  1.
        -12    1    3    3    0    0 -0.13915377188E+02  0.25481776494E+02  0.12713080266E+02  0.31695126840E+02  0.00000000000E+00 0.  1.
</event>
<event>
 7    1  0.6489567E-013  0.5930195E+02  0.7816164E-02  0.1266605E+00
        -11   -1    0    0    0    0  0.00000000000E+00  0.00000000000E+00  0.45593999997E+02  0.45594000000E+02  0.51100000000E-03 0.  1.
         11   -1    0    0    0    0 -0.00000000000E+00 -0.00000000000E+00 -0.45593999997E+02  0.45594000000E+02  0.51100000000E-03 0. -1.
    9900012    2    1    2    0    0  0.31417559126E+02 -0.41179731572E+01 -0.35636540462E+01  0.59301947335E+02  0.50000006032E+02 0.  0.
        -12    1    1    2    0    0 -0.31417559126E+02  0.41179731572E+01  0.35636540462E+01  0.31886052665E+02  0.00000000000E+00 0.  1.
         11    1    3    3    0    0  0.21852362099E+02 -0.40929136187E+01 -0.11717538161E+02  0.25131223051E+02  0.51100000000E-03 0. -1.
        -11    1    3    3    0    0  0.54399570533E+01  0.15149993058E+02 -0.72155422793E+00  0.16113226342E+02  0.51100000000E-03 0.  1.
        -12    1    3    3    0    0  0.41252399737E+01 -0.15175052596E+02  0.88754383428E+01  0.18057497942E+02  0.00000000000E+00 0.  1.
</event>
<event>
 7    1  0.6489567E-013  0.5930193E+02  0.7816164E-02  0.1266605E+00
        -11   -1    0    0    0    0  0.00000000000E+00  0.00000000000E+00  0.45593999997E+02  0.45594000000E+02  0.51100000000E-03 0. -1.
         11   -1    0    0    0    0 -0.00000000000E+00 -0.00000000000E+00 -0.45593999997E+02  0.45594000000E+02  0.51100000000E-03 0.  1.
    9900012    2    1    2    0    0  0.20532904636E+01 -0.31701058165E+02  0.27474018806E+01  0.59301932390E+02  0.49999978776E+02 0.  0.
        -12    1    1    2    0    0 -0.20532904636E+01  0.31701058165E+02 -0.27474018806E+01  0.31886067610E+02  0.00000000000E+00 0.  1.
         11    1    3    3    0    0  0.91451458735E+01 -0.17938207924E+01  0.37693309429E+01  0.10052827567E+02  0.51100000000E-03 0. -1.
        -11    1    3    3    0    0 -0.21234673548E+01  0.52418075840E+01 -0.11005369085E+02  0.12373512408E+02  0.51100000000E-03 0.  1.
         12    1    3    3    0    0 -0.49683880552E+01 -0.35149044957E+02  0.99834400227E+01  0.36875592415E+02  0.00000000000E+00 0. -1.
</event>
<event>
 7    1  0.6489567E-013  0.5930195E+02  0.7816164E-02  0.1266605E+00
        -11   -1    0    0    0    0  0.00000000000E+00  0.00000000000E+00  0.45593999997E+02  0.45594000000E+02  0.51100000000E-03 0. -1.
         11   -1    0    0    0    0 -0.00000000000E+00 -0.00000000000E+00 -0.45593999997E+02  0.45594000000E+02  0.51100000000E-03 0.  1.
    9900012    2    1    2    0    0 -0.62564161003E+01  0.25253183811E+02  0.18435132341E+02  0.59301950708E+02  0.50000012184E+02 0.  0.
        -12    1    1    2    0    0  0.62564161003E+01 -0.25253183811E+02 -0.18435132341E+02  0.31886049292E+02  0.00000000000E+00 0.  1.
         11    1    3    3    0    0 -0.75693574310E+01  0.40780897256E+01  0.89297364158E+01  0.12396216376E+02  0.51100000000E-03 0. -1.
        -11    1    3    3    0    0 -0.37666654983E+01  0.11526325674E+02 -0.15468572282E+02  0.19655042132E+02  0.51100000000E-03 0.  1.
         12    1    3    3    0    0  0.50796068289E+01  0.96487684113E+01  0.24973968206E+02  0.27250692200E+02  0.00000000000E+00 0. -1.
</event>
<event>
 7    1  0.6489567E-013  0.5930195E+02  0.7816164E-02  0.1266605E+00
        -11   -1    0    0    0    0  0.00000000000E+00  0.00000000000E+00  0.45593999997E+02  0.45594000000E+02  0.51100000000E-03 0.  1.
         11   -1    0    0    0    0 -0.00000000000E+00 -0.00000000000E+00 -0.45593999997E+02  0.45594000000E+02  0.51100000000E-03 0. -1.
    9900012    2    1    2    0    0 -0.19799004040E+02  0.24920534848E+02  0.19200611826E+01  0.59301948927E+02  0.50000008936E+02 0.  0.
        -12    1    1    2    0    0  0.19799004040E+02 -0.24920534848E+02 -0.19200611826E+01  0.31886051073E+02  0.00000000000E+00 0.  1.
         11    1    3    3    0    0 -0.12537584527E+02  0.76581949382E+01 -0.17487772130E+02  0.22839902579E+02  0.51100000000E-03 0. -1.
        -11    1    3    3    0    0  0.46927301626E+01 -0.39646594988E+01  0.17940805505E+01  0.63999192654E+01  0.51100000000E-03 0.  1.
         12    1    3    3    0    0 -0.11954149675E+02  0.21226999409E+02  0.17613752763E+02  0.30062127083E+02  0.00000000000E+00 0. -1.
</event>
<event>
 7    1  0.6489567E-013  0.5930195E+02  0.7816164E-02  0.1266605E+00
        -11   -1    0    0    0    0  0.00000000000E+00  0.00000000000E+00  0.45593999997E+02  0.45594000000E+02  0.51100000000E-03 0.  1.
         11   -1    0    0    0    0 -0.00000000000E+00 -0.00000000000E+00 -0.45593999997E+02  0.45594000000E+02  0.51100000000E-03 0. -1.
    9900012    2    1    2    0    0  0.10588775957E+02  0.13280789404E+02 -0.26985529254E+02  0.59301947679E+02  0.50000006659E+02 0.  0.
        -12    1    1    2    0    0 -0.10588775957E+02 -0.13280789404E+02  0.26985529254E+02  0.31886052321E+02  0.00000000000E+00 0.  1.
         11    1    3    3    0    0 -0.62455495764E+01 -0.56093272754E+01 -0.17977309161E+02  0.19840743104E+02  0.51100000000E-03 0. -1.
        -11    1    3    3    0    0  0.21901103302E+02  0.44467424223E+01 -0.14619023252E+01  0.22395736261E+02  0.51100000000E-03 0.  1.
         12    1    3    3    0    0 -0.50667777687E+01  0.14443374258E+02 -0.75463177677E+01  0.17065468313E+02  0.00000000000E+00 0. -1.
</event>
<event>
 7    1  0.6489567E-013  0.5930194E+02  0.7816164E-02  0.1266605E+00
        -11   -1    0    0    0    0  0.00000000000E+00  0.00000000000E+00  0.45593999997E+02  0.45594000000E+02  0.51100000000E-03 0.  1.
         11   -1    0    0    0    0 -0.00000000000E+00 -0.00000000000E+00 -0.45593999997E+02  0.45594000000E+02  0.51100000000E-03 0. -1.
    9900012    2    1    2    0    0 -0.14837384042E+02 -0.23165459031E+02 -0.16122474655E+02  0.59301942760E+02  0.49999997688E+02 0.  0.
        -12    1    1    2    0    0  0.14837384042E+02  0.23165459031E+02  0.16122474655E+02  0.31886057240E+02  0.00000000000E+00 0.  1.
         11    1    3    3    0    0  0.67195760994E+01 -0.25586766430E+02 -0.50361675805E+01  0.26929506186E+02  0.51100000000E-03 0.  1.
        -11    1    3    3    0    0 -0.62089512981E+01  0.23667265283E+01  0.63169167215E+01  0.91682009036E+01  0.51100000000E-03 0. -1.
        -12    1    3    3    0    0 -0.15348008843E+02  0.54580870527E-01 -0.17403223796E+02  0.23204235670E+02  0.00000000000E+00 0.  1.
</event>
<event>
 7    1  0.6489567E-013  0.5930195E+02  0.7816164E-02  0.1266605E+00
        -11   -1    0    0    0    0  0.00000000000E+00  0.00000000000E+00  0.45593999997E+02  0.45594000000E+02  0.51100000000E-03 0. -1.
         11   -1    0    0    0    0 -0.00000000000E+00 -0.00000000000E+00 -0.45593999997E+02  0.45594000000E+02  0.51100000000E-03 0.  1.
    9900012    2    1    2    0    0  0.77419915911E+01  0.93645809194E+01  0.29480274838E+02  0.59301946401E+02  0.50000004328E+02 0.  0.
        -12    1    1    2    0    0 -0.77419915911E+01 -0.93645809194E+01 -0.29480274838E+02  0.31886053599E+02  0.00000000000E+00 0.  1.
         11    1    3    3    0    0 -0.47989908430E+01  0.20579194690E+01  0.40483631950E+01  0.66071620589E+01  0.51100000000E-03 0. -1.
        -11    1    3    3    0    0 -0.41667311997E+01 -0.92529072434E+01 -0.72181486133E+01  0.12453096443E+02  0.51100000000E-03 0.  1.
        -12    1    3    3    0    0  0.16707713634E+02  0.16559568694E+02  0.32650060257E+02  0.40241687899E+02  0.00000000000E+00 0.  1.
</event>
<event>
 7    1  0.6489567E-013  0.5930193E+02  0.7816164E-02  0.1266605E+00
        -11   -1    0    0    0    0  0.00000000000E+00  0.00000000000E+00  0.45593999997E+02  0.45594000000E+02  0.51100000000E-03 0. -1.
         11   -1    0    0    0    0 -0.00000000000E+00 -0.00000000000E+00 -0.45593999997E+02  0.45594000000E+02  0.51100000000E-03 0.  1.
    9900012    2    1    2    0    0  0.28619481717E+02  0.13473275574E+02  0.40147004861E+01  0.59301926105E+02  0.49999967313E+02 0.  0.
        -12    1    1    2    0    0 -0.28619481717E+02 -0.13473275574E+02 -0.40147004861E+01  0.31886073895E+02  0.00000000000E+00 0.  1.
         11    1    3    3    0    0  0.13382469715E+02  0.16633127046E+02 -0.12258381827E+01  0.21383500426E+02  0.51100000000E-03 0. -1.
        -11    1    3    3    0    0  0.24332673295E+02 -0.98193794931E+01  0.28384145712E+01  0.26392343603E+02  0.51100000000E-03 0.  1.
         12    1    3    3    0    0 -0.90956612926E+01  0.66595280220E+01  0.24021240976E+01  0.11526082075E+02  0.00000000000E+00 0. -1.
</event>
<event>
 7    1  0.6489567E-013  0.5930193E+02  0.7816164E-02  0.1266605E+00
        -11   -1    0    0    0    0  0.00000000000E+00  0.00000000000E+00  0.45593999997E+02  0.45594000000E+02  0.51100000000E-03 0. -1.
         11   -1    0    0    0    0 -0.00000000000E+00 -0.00000000000E+00 -0.45593999997E+02  0.45594000000E+02  0.51100000000E-03 0.  1.
    9900012    2    1    2    0    0 -0.17680690099E+02  0.26531040704E+02 -0.46760174319E+00  0.59301928204E+02  0.49999971141E+02 0.  0.
        -12    1    1    2    0    0  0.17680690099E+02 -0.26531040704E+02  0.46760174319E+00  0.31886071796E+02  0.00000000000E+00 0.  1.
         11    1    3    3    0    0  0.41250348464E+01  0.25350813499E+02  0.14628169217E+02  0.29557790723E+02  0.51100000000E-03 0. -1.
        -11    1    3    3    0    0 -0.10680569421E+02 -0.59142958067E+01 -0.52941640349E+01  0.13307202228E+02  0.51100000000E-03 0.  1.
        -12    1    3    3    0    0 -0.11125155524E+02  0.70945230114E+01 -0.98016069249E+01  0.16436935253E+02  0.00000000000E+00 0.  1.
</event>
<event>
 7    1  0.6489567E-013  0.5930193E+02  0.7816164E-02  0.1266605E+00
        -11   -1    0    0    0    0  0.00000000000E+00  0.00000000000E+00  0.45593999997E+02  0.45594000000E+02  0.51100000000E-03 0.  1.
         11   -1    0    0    0    0 -0.00000000000E+00 -0.00000000000E+00 -0.45593999997E+02  0.45594000000E+02  0.51100000000E-03 0. -1.
    9900012    2    1    2    0    0  0.12775875686E+02 -0.25179819459E+02 -0.14814692521E+02  0.59301930597E+02  0.49999975505E+02 0.  0.
        -12    1    1    2    0    0 -0.12775875686E+02  0.25179819459E+02  0.14814692521E+02  0.31886069403E+02  0.00000000000E+00 0.  1.
         11    1    3    3    0    0  0.99531409307E+00 -0.21087850714E+02  0.11209758363E+02  0.23902861350E+02  0.51100000000E-03 0. -1.
        -11    1    3    3    0    0  0.11610392443E+01 -0.10934628786E+02 -0.15214840113E+02  0.18772465974E+02  0.51100000000E-03 0.  1.
        -12    1    3    3    0    0  0.10619522348E+02  0.68426600419E+01 -0.10809610772E+02  0.16626603273E+02  0.00000000000E+00 0.  1.
</event>
<event>
 7    1  0.6489567E-013  0.5930198E+02  0.7816164E-02  0.1266605E+00
        -11   -1    0    0    0    0  0.00000000000E+00  0.00000000000E+00  0.45593999997E+02  0.45594000000E+02  0.51100000000E-03 0.  1.
         11   -1    0    0    0    0 -0.00000000000E+00 -0.00000000000E+00 -0.45593999997E+02  0.45594000000E+02  0.51100000000E-03 0. -1.
    9900012    2    1    2    0    0  0.18773109208E+02  0.61199376006E+01 -0.25036677463E+02  0.59301976667E+02  0.50000059527E+02 0.  0.
        -12    1    1    2    0    0 -0.18773109208E+02 -0.61199376006E+01  0.25036677463E+02  0.31886023333E+02  0.00000000000E+00 0.  1.
         11    1    3    3    0    0 -0.72539447591E+01  0.10214147151E+02 -0.13260115089E+02  0.18242235856E+02  0.51100000000E-03 0. -1.
        -11    1    3    3    0    0 -0.75577919332E+00 -0.27261298582E+01  0.75112020261E+01  0.80262782366E+01  0.51100000000E-03 0.  1.
        -12    1    3    3    0    0  0.26782833160E+02 -0.13680796919E+01 -0.19287764400E+02  0.33033462575E+02  0.00000000000E+00 0.  1.
</event>
<event>
 7    1  0.6489567E-013  0.5930217E+02  0.7816164E-02  0.1266604E+00
        -11   -1    0    0    0    0  0.00000000000E+00  0.00000000000E+00  0.45593999997E+02  0.45594000000E+02  0.51100000000E-03 0.  1.
         11   -1    0    0    0    0 -0.00000000000E+00 -0.00000000000E+00 -0.45593999997E+02  0.45594000000E+02  0.51100000000E-03 0. -1.
    9900012    2    1    2    0    0  0.15592901484E+02 -0.24101351160E+01 -0.27708463476E+02  0.59302168097E+02  0.50000408646E+02 0.  0.
        -12    1    1    2    0    0 -0.15592901484E+02  0.24101351160E+01  0.27708463476E+02  0.31885831903E+02  0.00000000000E+00 0.  1.
         11    1    3    3    0    0 -0.38025355424E+01 -0.44436919985E+01 -0.67401357478E+01  0.89238503623E+01  0.51100000000E-03 0. -1.
        -11    1    3    3    0    0  0.84840559902E+01 -0.59936547903E+01  0.11319895934E+02  0.15363695780E+02  0.51100000000E-03 0.  1.
         12    1    3    3    0    0  0.10911381036E+02  0.80272116727E+01 -0.32288223662E+02  0.35014621955E+02  0.00000000000E+00 0. -1.
</event>
<event>
 7    1  0.6489567E-013  0.5930194E+02  0.7816164E-02  0.1266605E+00
        -11   -1    0    0    0    0  0.00000000000E+00  0.00000000000E+00  0.45593999997E+02  0.45594000000E+02  0.51100000000E-03 0. -1.
         11   -1    0    0    0    0 -0.00000000000E+00 -0.00000000000E+00 -0.45593999997E+02  0.45594000000E+02  0.51100000000E-03 0.  1.
    9900012    2    1    2    0    0  0.99648598129E+01 -0.19641384982E+02  0.23057289002E+02  0.59301937037E+02  0.49999987251E+02 0.  0.
        -12    1    1    2    0    0 -0.99648598129E+01  0.19641384982E+02 -0.23057289002E+02  0.31886062963E+02  0.00000000000E+00 0.  1.
         11    1    3    3    0    0  0.21880894078E+02 -0.17571377178E+02  0.12526424764E+02  0.30731712272E+02  0.51100000000E-03 0. -1.
        -11    1    3    3    0    0  0.39354930603E+01 -0.54031572778E+01 -0.31296326929E+01  0.73808410936E+01  0.51100000000E-03 0.  1.
        -12    1    3    3    0    0 -0.15851527325E+02  0.33331494728E+01  0.13660496932E+02  0.21189383671E+02  0.00000000000E+00 0.  1.
</event>
<event>
 7    1  0.6489567E-013  0.5930194E+02  0.7816164E-02  0.1266605E+00
        -11   -1    0    0    0    0  0.00000000000E+00  0.00000000000E+00  0.45593999997E+02  0.45594000000E+02  0.51100000000E-03 0.  1.
         11   -1    0    0    0    0 -0.00000000000E+00 -0.00000000000E+00 -0.45593999997E+02  0.45594000000E+02  0.51100000000E-03 0. -1.
    9900012    2    1    2    0    0  0.12126934974E+02  0.25257683627E+02 -0.15221950694E+02  0.59301938515E+02  0.49999989946E+02 0.  0.
        -12    1    1    2    0    0 -0.12126934974E+02 -0.25257683627E+02  0.15221950694E+02  0.31886061485E+02  0.00000000000E+00 0.  1.
         11    1    3    3    0    0  0.21503611552E+02  0.10398476118E+02 -0.91912406092E+01  0.25593212373E+02  0.51100000000E-03 0. -1.
        -11    1    3    3    0    0  0.79108754413E+01  0.13653895936E+02 -0.38463479568E+01  0.16242081681E+02  0.51100000000E-03 0.  1.
        -12    1    3    3    0    0 -0.17287552019E+02  0.12053115732E+01 -0.21843621282E+01  0.17466644461E+02  0.00000000000E+00 0.  1.
</event>
<event>
 7    1  0.6489567E-013  0.5930196E+02  0.7816164E-02  0.1266605E+00
        -11   -1    0    0    0    0  0.00000000000E+00  0.00000000000E+00  0.45593999997E+02  0.45594000000E+02  0.51100000000E-03 0.  1.
         11   -1    0    0    0    0 -0.00000000000E+00 -0.00000000000E+00 -0.45593999997E+02  0.45594000000E+02  0.51100000000E-03 0. -1.
    9900012    2    1    2    0    0  0.10785998597E+02 -0.21891042777E+02 -0.20522279567E+02  0.59301961077E+02  0.50000031093E+02 0.  0.
        -12    1    1    2    0    0 -0.10785998597E+02  0.21891042777E+02  0.20522279567E+02  0.31886038923E+02  0.00000000000E+00 0.  1.
         11    1    3    3    0    0  0.60873720097E+00 -0.21624257978E+02 -0.35900277036E+01  0.21928688817E+02  0.51100000000E-03 0. -1.
        -11    1    3    3    0    0  0.16916722277E+02 -0.55569558114E+01  0.64646162013E+00  0.17817776612E+02  0.51100000000E-03 0.  1.
         12    1    3    3    0    0 -0.67394608814E+01  0.52901710119E+01 -0.17578713483E+02  0.19555495648E+02  0.00000000000E+00 0. -1.
</event>
<event>
 7    1  0.6489567E-013  0.5930191E+02  0.7816164E-02  0.1266605E+00
        -11   -1    0    0    0    0  0.00000000000E+00  0.00000000000E+00  0.45593999997E+02  0.45594000000E+02  0.51100000000E-03 0.  1.
         11   -1    0    0    0    0 -0.00000000000E+00 -0.00000000000E+00 -0.45593999997E+02  0.45594000000E+02  0.51100000000E-03 0. -1.
    9900012    2    1    2    0    0  0.29436269347E+02 -0.14296173286E+01 -0.12173136802E+02  0.59301905564E+02  0.49999929851E+02 0.  0.
        -12    1    1    2    0    0 -0.29436269347E+02  0.14296173286E+01  0.12173136802E+02  0.31886094436E+02  0.00000000000E+00 0.  1.
         11    1    3    3    0    0  0.97697947680E+01 -0.13585552938E+02 -0.24552537853E+01  0.16912847479E+02  0.51100000000E-03 0. -1.
        -11    1    3    3    0    0 -0.17732973982E+01 -0.10002573651E+02 -0.35019433268E+00  0.10164580643E+02  0.51100000000E-03 0.  1.
         12    1    3    3    0    0  0.21439771977E+02  0.22158509261E+02 -0.93676886838E+01  0.32224477442E+02  0.00000000000E+00 0. -1.
</event>
<event>
 7    1  0.6489567E-013  0.5930193E+02  0.7816164E-02  0.1266605E+00
        -11   -1    0    0    0    0  0.00000000000E+00  0.00000000000E+00  0.45593999997E+02  0.45594000000E+02  0.51100000000E-03 0. -1.
         11   -1    0    0    0    0 -0.00000000000E+00 -0.00000000000E+00 -0.45593999997E+02  0.45594000000E+02  0.51100000000E-03 0.  1.
    9900012    2    1    2    0    0  0.58214807209E+01  0.25552467960E+02  0.18163236761E+02  0.59301930530E+02  0.49999975383E+02 0.  0.
        -12    1    1    2    0    0 -0.58214807209E+01 -0.25552467960E+02 -0.18163236761E+02  0.31886069470E+02  0.00000000000E+00 0.  1.
         11    1    3    3    0    0 -0.51372637999E+00  0.10637596806E+02  0.20530993966E+02  0.23128858469E+02  0.51100000000E-03 0. -1.
        -11    1    3    3    0    0 -0.69148532855E+01 -0.17213380503E+01  0.94552331119E+01  0.11839748059E+02  0.51100000000E-03 0.  1.
        -12    1    3    3    0    0  0.13250060386E+02  0.16636209204E+02 -0.11822990317E+02  0.24333324001E+02  0.00000000000E+00 0.  1.
</event>
<event>
 7    1  0.6489567E-013  0.5930213E+02  0.7816164E-02  0.1266604E+00
        -11   -1    0    0    0    0  0.00000000000E+00  0.00000000000E+00  0.45593999997E+02  0.45594000000E+02  0.51100000000E-03 0.  1.
         11   -1    0    0    0    0 -0.00000000000E+00 -0.00000000000E+00 -0.45593999997E+02  0.45594000000E+02  0.51100000000E-03 0. -1.
    9900012    2    1    2    0    0  0.66280051288E+00 -0.53262614120E+01 -0.31430884381E+02  0.59302127609E+02  0.50000334808E+02 0.  0.
        -12    1    1    2    0    0 -0.66280051288E+00  0.53262614120E+01  0.31430884381E+02  0.31885872391E+02  0.00000000000E+00 0.  1.
         11    1    3    3    0    0 -0.46725235185E+01  0.30571935582E+01 -0.17241874087E+02  0.18123496649E+02  0.51100000000E-03 0. -1.
        -11    1    3    3    0    0 -0.61000387378E+01  0.33860213953E+01  0.98512388747E+01  0.12071558355E+02  0.51100000000E-03 0.  1.
         12    1    3    3    0    0  0.11435362769E+02 -0.11769476366E+02 -0.24040249168E+02  0.29107072605E+02  0.00000000000E+00 0. -1.
</event>
<event>
 7    1  0.6489567E-013  0.5930196E+02  0.7816164E-02  0.1266605E+00
        -11   -1    0    0    0    0  0.00000000000E+00  0.00000000000E+00  0.45593999997E+02  0.45594000000E+02  0.51100000000E-03 0.  1.
         11   -1    0    0    0    0 -0.00000000000E+00 -0.00000000000E+00 -0.45593999997E+02  0.45594000000E+02  0.51100000000E-03 0. -1.
    9900012    2    1    2    0    0  0.10396004397E+02  0.12180785504E+02 -0.27573019203E+02  0.59301955546E+02  0.50000021007E+02 0.  0.
        -12    1    1    2    0    0 -0.10396004397E+02 -0.12180785504E+02  0.27573019203E+02  0.31886044454E+02  0.00000000000E+00 0.  1.
         11    1    3    3    0    0  0.70675629877E+01 -0.12005504078E+01 -0.13868214273E+02  0.15611506501E+02  0.51100000000E-03 0. -1.
        -11    1    3    3    0    0  0.30236963607E+01 -0.69535691347E+01 -0.20809551812E+02  0.22147964021E+02  0.51100000000E-03 0.  1.
         12    1    3    3    0    0  0.30474504901E+00  0.20334905046E+02  0.71047468812E+01  0.21542485025E+02  0.00000000000E+00 0. -1.
</event>
<event>
 7    1  0.6489567E-013  0.5930210E+02  0.7816164E-02  0.1266604E+00
        -11   -1    0    0    0    0  0.00000000000E+00  0.00000000000E+00  0.45593999997E+02  0.45594000000E+02  0.51100000000E-03 0. -1.
         11   -1    0    0    0    0 -0.00000000000E+00 -0.00000000000E+00 -0.45593999997E+02  0.45594000000E+02  0.51100000000E-03 0.  1.
    9900012    2    1    2    0    0  0.20924903580E+02  0.10660277501E+02  0.21568899032E+02  0.59302101680E+02  0.50000287519E+02 0.  0.
        -12    1    1    2    0    0 -0.20924903580E+02 -0.10660277501E+02 -0.21568899032E+02  0.31885898320E+02  0.00000000000E+00 0.  1.
         11    1    3    3    0    0  0.16573082628E+02  0.20150437313E+02  0.14465531843E+02  0.29832177317E+02  0.51100000000E-03 0. -1.
        -11    1    3    3    0    0  0.11827817904E+02 -0.76345948163E+01 -0.51553115723E+01  0.14992049628E+02  0.51100000000E-03 0.  1.
        -12    1    3    3    0    0 -0.74759969518E+01 -0.18555649959E+01  0.12258678761E+02  0.14477874735E+02  0.00000000000E+00 0.  1.
</event>
<event>
 7    1  0.6489567E-013  0.5930197E+02  0.7816164E-02  0.1266605E+00
        -11   -1    0    0    0    0  0.00000000000E+00  0.00000000000E+00  0.45593999997E+02  0.45594000000E+02  0.51100000000E-03 0.  1.
         11   -1    0    0    0    0 -0.00000000000E+00 -0.00000000000E+00 -0.45593999997E+02  0.45594000000E+02  0.51100000000E-03 0. -1.
    9900012    2    1    2    0    0 -0.70500132454E+01 -0.30889147525E+02 -0.35884299908E+01  0.59301969338E+02  0.50000046160E+02 0.  0.
        -12    1    1    2    0    0  0.70500132454E+01  0.30889147525E+02  0.35884299908E+01  0.31886030662E+02  0.00000000000E+00 0.  1.
         11    1    3    3    0    0  0.12977146658E+02 -0.21703307861E+01 -0.21817671610E+01  0.13337045374E+02  0.51100000000E-03 0. -1.
        -11    1    3    3    0    0 -0.24466920851E+01 -0.27163095565E+02  0.38643092162E+01  0.27545470568E+02  0.51100000000E-03 0.  1.
        -12    1    3    3    0    0 -0.17580467818E+02 -0.15557211733E+01 -0.52709720460E+01  0.18419453396E+02  0.00000000000E+00 0.  1.
</event>
<event>
 7    1  0.6489567E-013  0.5930193E+02  0.7816164E-02  0.1266605E+00
        -11   -1    0    0    0    0  0.00000000000E+00  0.00000000000E+00  0.45593999997E+02  0.45594000000E+02  0.51100000000E-03 0.  1.
         11   -1    0    0    0    0 -0.00000000000E+00 -0.00000000000E+00 -0.45593999997E+02  0.45594000000E+02  0.51100000000E-03 0. -1.
    9900012    2    1    2    0    0  0.65086698395E+01  0.33425530986E+00 -0.31212930452E+02  0.59301928792E+02  0.49999972213E+02 0.  0.
        -12    1    1    2    0    0 -0.65086698395E+01 -0.33425530986E+00  0.31212930452E+02  0.31886071208E+02  0.00000000000E+00 0.  1.
         11    1    3    3    0    0 -0.46801502571E+01  0.14811081973E+02 -0.15813494606E+02  0.22166158159E+02  0.51100000000E-03 0. -1.
        -11    1    3    3    0    0 -0.43748662408E+01  0.16578143633E+01  0.49845796610E+01  0.68362151624E+01  0.51100000000E-03 0.  1.
        -12    1    3    3    0    0  0.15563686337E+02 -0.16134641027E+02 -0.20384015508E+02  0.30299555470E+02  0.00000000000E+00 0.  1.
</event>
<event>
 7    1  0.6489567E-013  0.5930196E+02  0.7816164E-02  0.1266605E+00
        -11   -1    0    0    0    0  0.00000000000E+00  0.00000000000E+00  0.45593999997E+02  0.45594000000E+02  0.51100000000E-03 0.  1.
         11   -1    0    0    0    0 -0.00000000000E+00 -0.00000000000E+00 -0.45593999997E+02  0.45594000000E+02  0.51100000000E-03 0. -1.
    9900012    2    1    2    0    0 -0.12352903180E+02  0.21060591894E+02 -0.20507967245E+02  0.59301961230E+02  0.50000031373E+02 0.  0.
        -12    1    1    2    0    0  0.12352903180E+02 -0.21060591894E+02  0.20507967245E+02  0.31886038770E+02  0.00000000000E+00 0.  1.
         11    1    3    3    0    0  0.84732405193E+01 -0.63733789224E+01 -0.48477480709E+01  0.11658320008E+02  0.51100000000E-03 0. -1.
        -11    1    3    3    0    0  0.20993902982E+01  0.19922656778E+02 -0.11690445651E+02  0.23194529797E+02  0.51100000000E-03 0.  1.
         12    1    3    3    0    0 -0.22925533998E+02  0.75113140387E+01 -0.39697735232E+01  0.24449111426E+02  0.00000000000E+00 0. -1.
</event>
<event>
 7    1  0.6489567E-013  0.5930190E+02  0.7816164E-02  0.1266605E+00
        -11   -1    0    0    0    0  0.00000000000E+00  0.00000000000E+00  0.45593999997E+02  0.45594000000E+02  0.51100000000E-03 0.  1.
         11   -1    0    0    0    0 -0.00000000000E+00 -0.00000000000E+00 -0.45593999997E+02  0.45594000000E+02  0.51100000000E-03 0. -1.
    9900012    2    1    2    0    0  0.34422875102E+01  0.14552382902E+02  0.28162066982E+02  0.59301902589E+02  0.49999924425E+02 0.  0.
        -12    1    1    2    0    0 -0.34422875102E+01 -0.14552382902E+02 -0.28162066982E+02  0.31886097411E+02  0.00000000000E+00 0.  1.
         11    1    3    3    0    0  0.10829746464E+02  0.17954248389E+02  0.24401248992E+02  0.32172338994E+02  0.51100000000E-03 0.  1.
        -11    1    3    3    0    0 -0.10803752899E+02 -0.11341027457E+02  0.79042422431E+01  0.17544715050E+02  0.51100000000E-03 0. -1.
         12    1    3    3    0    0  0.34162939457E+01  0.79391619690E+01 -0.41434242530E+01  0.95848485452E+01  0.00000000000E+00 0. -1.
</event>
<event>
 7    1  0.6489567E-013  0.5930195E+02  0.7816164E-02  0.1266605E+00
        -11   -1    0    0    0    0  0.00000000000E+00  0.00000000000E+00  0.45593999997E+02  0.45594000000E+02  0.51100000000E-03 0.  1.
         11   -1    0    0    0    0 -0.00000000000E+00 -0.00000000000E+00 -0.45593999997E+02  0.45594000000E+02  0.51100000000E-03 0. -1.
    9900012    2    1    2    0    0  0.13958884430E+02 -0.28287446253E+02  0.46572366848E+01  0.59301954093E+02  0.50000018357E+02 0.  0.
        -12    1    1    2    0    0 -0.13958884430E+02  0.28287446253E+02 -0.46572366848E+01  0.31886045907E+02  0.00000000000E+00 0.  1.
         11    1    3    3    0    0  0.64029072348E+01  0.27794435802E+01  0.11947692127E+02  0.13837264004E+02  0.51100000000E-03 0.  1.
        -11    1    3    3    0    0  0.19307180511E+02 -0.12853439912E+02 -0.33773113925E+01  0.23438949835E+02  0.51100000000E-03 0. -1.
         12    1    3    3    0    0 -0.11751203316E+02 -0.18213449921E+02 -0.39131440500E+01  0.22025740255E+02  0.00000000000E+00 0. -1.
</event>
<event>
 7    1  0.6489567E-013  0.5930195E+02  0.7816164E-02  0.1266605E+00
        -11   -1    0    0    0    0  0.00000000000E+00  0.00000000000E+00  0.45593999997E+02  0.45594000000E+02  0.51100000000E-03 0.  1.
         11   -1    0    0    0    0 -0.00000000000E+00 -0.00000000000E+00 -0.45593999997E+02  0.45594000000E+02  0.51100000000E-03 0. -1.
    9900012    2    1    2    0    0  0.14414004269E+02  0.41463252063E+01 -0.28138312507E+02  0.59301950346E+02  0.50000011524E+02 0.  0.
        -12    1    1    2    0    0 -0.14414004269E+02 -0.41463252063E+01  0.28138312507E+02  0.31886049654E+02  0.00000000000E+00 0.  1.
         11    1    3    3    0    0  0.35687502766E-01 -0.11207869349E+00  0.47797724851E+01  0.47812195622E+01  0.51100000000E-03 0.  1.
        -11    1    3    3    0    0 -0.10521756753E+02  0.39725992097E+01 -0.26525913723E+02  0.28811681811E+02  0.51100000000E-03 0. -1.
         12    1    3    3    0    0  0.24900073519E+02  0.28580469003E+00 -0.63921712685E+01  0.25709048973E+02  0.00000000000E+00 0. -1.
</event>
<event>
 7    1  0.6489567E-013  0.5930198E+02  0.7816164E-02  0.1266605E+00
        -11   -1    0    0    0    0  0.00000000000E+00  0.00000000000E+00  0.45593999997E+02  0.45594000000E+02  0.51100000000E-03 0.  1.
         11   -1    0    0    0    0 -0.00000000000E+00 -0.00000000000E+00 -0.45593999997E+02  0.45594000000E+02  0.51100000000E-03 0. -1.
    9900012    2    1    2    0    0 -0.15074613933E+02 -0.26957144911E+02  0.79238011906E+01  0.59301979987E+02  0.50000065581E+02 0.  0.
        -12    1    1    2    0    0  0.15074613933E+02  0.26957144911E+02 -0.79238011906E+01  0.31886020013E+02  0.00000000000E+00 0.  1.
         11    1    3    3    0    0  0.26205965117E+01 -0.26972086852E+02 -0.13650719137E+00  0.27099439656E+02  0.51100000000E-03 0. -1.
        -11    1    3    3    0    0  0.61135701412E+01 -0.35903872696E+01  0.21279962839E+01  0.74023637483E+01  0.51100000000E-03 0.  1.
        -12    1    3    3    0    0 -0.23808780585E+02  0.36053292100E+01  0.59323120981E+01  0.24800176582E+02  0.00000000000E+00 0.  1.
</event>
<event>
 7    1  0.6489567E-013  0.5930199E+02  0.7816164E-02  0.1266605E+00
        -11   -1    0    0    0    0  0.00000000000E+00  0.00000000000E+00  0.45593999997E+02  0.45594000000E+02  0.51100000000E-03 0. -1.
         11   -1    0    0    0    0 -0.00000000000E+00 -0.00000000000E+00 -0.45593999997E+02  0.45594000000E+02  0.51100000000E-03 0.  1.
    9900012    2    1    2    0    0  0.50312040673E+01 -0.13616738124E+02  0.28389945688E+02  0.59301990722E+02  0.50000085159E+02 0.  0.
        -12    1    1    2    0    0 -0.50312040673E+01  0.13616738124E+02 -0.28389945688E+02  0.31886009278E+02  0.00000000000E+00 0.  1.
         11    1    3    3    0    0  0.42038109380E+01  0.10757646428E+00  0.12853623120E+02  0.13524024057E+02  0.51100000000E-03 0. -1.
        -11    1    3    3    0    0  0.15784831798E+02 -0.13193889289E+02  0.21417008370E+02  0.29697270535E+02  0.51100000000E-03 0.  1.
        -12    1    3    3    0    0 -0.14957438668E+02 -0.53042529939E+00 -0.58806858024E+01  0.16080696130E+02  0.00000000000E+00 0.  1.
</event>
<event>
 7    1  0.6489567E-013  0.5930196E+02  0.7816164E-02  0.1266605E+00
        -11   -1    0    0    0    0  0.00000000000E+00  0.00000000000E+00  0.45593999997E+02  0.45594000000E+02  0.51100000000E-03 0.  1.
         11   -1    0    0    0    0 -0.00000000000E+00 -0.00000000000E+00 -0.45593999997E+02  0.45594000000E+02  0.51100000000E-03 0. -1.
    9900012    2    1    2    0    0 -0.16235893285E+02 -0.48925353527E+01 -0.27003300289E+02  0.59301962939E+02  0.50000034490E+02 0.  0.
        -12    1    1    2    0    0  0.16235893285E+02  0.48925353527E+01  0.27003300289E+02  0.31886037061E+02  0.00000000000E+00 0.  1.
         11    1    3    3    0    0 -0.49148399180E+01 -0.17522102618E+02 -0.32691943721E+01  0.18489655586E+02  0.51100000000E-03 0. -1.
        -11    1    3    3    0    0 -0.19755781239E+02  0.83226850681E+01 -0.88970191931E+01  0.23210233301E+02  0.51100000000E-03 0.  1.
         12    1    3    3    0    0  0.84347278715E+01  0.43068821971E+01 -0.14837086723E+02  0.17602074053E+02  0.00000000000E+00 0. -1.
</event>
<event>
 7    1  0.6489567E-013  0.5930196E+02  0.7816164E-02  0.1266605E+00
        -11   -1    0    0    0    0  0.00000000000E+00  0.00000000000E+00  0.45593999997E+02  0.45594000000E+02  0.51100000000E-03 0. -1.
         11   -1    0    0    0    0 -0.00000000000E+00 -0.00000000000E+00 -0.45593999997E+02  0.45594000000E+02  0.51100000000E-03 0.  1.
    9900012    2    1    2    0    0 -0.89005893202E+01  0.10876600854E+02  0.28621647468E+02  0.59301958537E+02  0.50000026461E+02 0.  0.
        -12    1    1    2    0    0  0.89005893202E+01 -0.10876600854E+02 -0.28621647468E+02  0.31886041463E+02  0.00000000000E+00 0.  1.
         11    1    3    3    0    0 -0.17715546388E+02  0.48881008150E+01  0.20974079152E+02  0.27886306854E+02  0.51100000000E-03 0. -1.
        -11    1    3    3    0    0  0.67573447584E+00  0.16838336018E+02  0.51762344418E+01  0.17628941550E+02  0.51100000000E-03 0.  1.
        -12    1    3    3    0    0  0.81392225921E+01 -0.10849835979E+02  0.24713338748E+01  0.13786710133E+02  0.00000000000E+00 0.  1.
</event>
<event>
 7    1  0.6489567E-013  0.5930195E+02  0.7816164E-02  0.1266605E+00
        -11   -1    0    0    0    0  0.00000000000E+00  0.00000000000E+00  0.45593999997E+02  0.45594000000E+02  0.51100000000E-03 0.  1.
         11   -1    0    0    0    0 -0.00000000000E+00 -0.00000000000E+00 -0.45593999997E+02  0.45594000000E+02  0.51100000000E-03 0. -1.
    9900012    2    1    2    0    0  0.64730689348E+01  0.24154855271E+02 -0.19782892461E+02  0.59301945231E+02  0.50000002195E+02 0.  0.
        -12    1    1    2    0    0 -0.64730689348E+01 -0.24154855271E+02  0.19782892461E+02  0.31886054769E+02  0.00000000000E+00 0.  1.
         11    1    3    3    0    0  0.27235521108E+01 -0.11622302449E+02 -0.10861811067E+02  0.16139225206E+02  0.51100000000E-03 0. -1.
        -11    1    3    3    0    0  0.50245537039E+01 -0.11613333186E+01 -0.71333117362E-01  0.51575113839E+01  0.51100000000E-03 0.  1.
        -12    1    3    3    0    0 -0.12750368800E+01  0.36938491039E+02 -0.88497482764E+01  0.38005208641E+02  0.00000000000E+00 0.  1.
</event>
<event>
 7    1  0.6489567E-013  0.5930193E+02  0.7816164E-02  0.1266605E+00
        -11   -1    0    0    0    0  0.00000000000E+00  0.00000000000E+00  0.45593999997E+02  0.45594000000E+02  0.51100000000E-03 0. -1.
         11   -1    0    0    0    0 -0.00000000000E+00 -0.00000000000E+00 -0.45593999997E+02  0.45594000000E+02  0.51100000000E-03 0.  1.
    9900012    2    1    2    0    0  0.10130205417E+02 -0.28915413178E+02  0.88317228278E+01  0.59301929230E+02  0.49999973013E+02 0.  0.
        -12    1    1    2    0    0 -0.10130205417E+02  0.28915413178E+02 -0.88317228278E+01  0.31886070770E+02  0.00000000000E+00 0.  1.
         11    1    3    3    0    0 -0.20007560286E+01 -0.16656578918E+02  0.74564275820E+01  0.18358729762E+02  0.51100000000E-03 0. -1.
        -11    1    3    3    0    0  0.23680778906E+02 -0.11401313111E+02  0.81606631725E+01  0.27520277141E+02  0.51100000000E-03 0.  1.
        -12    1    3    3    0    0 -0.11549817460E+02 -0.85752114860E+00 -0.67853679267E+01  0.13422922327E+02  0.00000000000E+00 0.  1.
</event>
<event>
 7    1  0.6489567E-013  0.5930196E+02  0.7816164E-02  0.1266605E+00
        -11   -1    0    0    0    0  0.00000000000E+00  0.00000000000E+00  0.45593999997E+02  0.45594000000E+02  0.51100000000E-03 0. -1.
         11   -1    0    0    0    0 -0.00000000000E+00 -0.00000000000E+00 -0.45593999997E+02  0.45594000000E+02  0.51100000000E-03 0.  1.
    9900012    2    1    2    0    0  0.14766767131E+02 -0.16993122346E+02  0.22580876601E+02  0.59301959063E+02  0.50000027421E+02 0.  0.
        -12    1    1    2    0    0 -0.14766767131E+02  0.16993122346E+02 -0.22580876601E+02  0.31886040937E+02  0.00000000000E+00 0.  1.
         11    1    3    3    0    0  0.72840377410E+00  0.24537487122E+01 -0.90111792696E+01  0.93676468171E+01  0.51100000000E-03 0. -1.
        -11    1    3    3    0    0  0.22303791514E+01 -0.23466653721E+02  0.11361744797E+02  0.26167683756E+02  0.51100000000E-03 0.  1.
         12    1    3    3    0    0  0.11807984205E+02  0.40197826637E+01  0.20230311074E+02  0.23766628490E+02  0.00000000000E+00 0. -1.
</event>
<event>
 7    1  0.6489567E-013  0.5930194E+02  0.7816164E-02  0.1266605E+00
        -11   -1    0    0    0    0  0.00000000000E+00  0.00000000000E+00  0.45593999997E+02  0.45594000000E+02  0.51100000000E-03 0.  1.
         11   -1    0    0    0    0 -0.00000000000E+00 -0.00000000000E+00 -0.45593999997E+02  0.45594000000E+02  0.51100000000E-03 0. -1.
    9900012    2    1    2    0    0  0.14892832023E+02 -0.76596542722E+01 -0.27134003980E+02  0.59301938449E+02  0.49999989826E+02 0.  0.
        -12    1    1    2    0    0 -0.14892832023E+02  0.76596542722E+01  0.27134003980E+02  0.31886061551E+02  0.00000000000E+00 0.  1.
         11    1    3    3    0    0  0.20527179180E+02  0.38337097214E+01 -0.30647654304E+02  0.37085591945E+02  0.51100000000E-03 0. -1.
        -11    1    3    3    0    0  0.63278482780E+01 -0.43929358236E+01 -0.55379005425E+00  0.77230973492E+01  0.51100000000E-03 0.  1.
         12    1    3    3    0    0 -0.11962195435E+02 -0.71004281700E+01  0.40674403782E+01  0.14493249155E+02  0.00000000000E+00 0. -1.
</event>
<event>
 7    1  0.6489567E-013  0.5930197E+02  0.7816164E-02  0.1266605E+00
        -11   -1    0    0    0    0  0.00000000000E+00  0.00000000000E+00  0.45593999997E+02  0.45594000000E+02  0.51100000000E-03 0. -1.
         11   -1    0    0    0    0 -0.00000000000E+00 -0.00000000000E+00 -0.45593999997E+02  0.45594000000E+02  0.51100000000E-03 0.  1.
    9900012    2    1    2    0    0  0.20412903313E+02 -0.21865422101E+02  0.11042443039E+02  0.59301970871E+02  0.50000048956E+02 0.  0.
        -12    1    1    2    0    0 -0.20412903313E+02  0.21865422101E+02 -0.11042443039E+02  0.31886029129E+02  0.00000000000E+00 0.  1.
         11    1    3    3    0    0  0.20514437206E+02  0.41440264075E+01  0.15423596314E+02  0.25998123245E+02  0.51100000000E-03 0. -1.
        -11    1    3    3    0    0  0.92708571007E+01 -0.13952354166E+02 -0.63318927320E+01  0.17908373572E+02  0.51100000000E-03 0.  1.
        -12    1    3    3    0    0 -0.93723909936E+01 -0.12057094342E+02  0.19507394570E+01  0.15395474054E+02  0.00000000000E+00 0.  1.
</event>
<event>
 7    1  0.6489567E-013  0.5930187E+02  0.7816164E-02  0.1266605E+00
        -11   -1    0    0    0    0  0.00000000000E+00  0.00000000000E+00  0.45593999997E+02  0.45594000000E+02  0.51100000000E-03 0.  1.
         11   -1    0    0    0    0 -0.00000000000E+00 -0.00000000000E+00 -0.45593999997E+02  0.45594000000E+02  0.51100000000E-03 0. -1.
    9900012    2    1    2    0    0 -0.23205716858E+02 -0.19217034250E-01 -0.21868239453E+02  0.59301865694E+02  0.49999857138E+02 0.  0.
        -12    1    1    2    0    0  0.23205716858E+02  0.19217034250E-01  0.21868239453E+02  0.31886134306E+02  0.00000000000E+00 0.  1.
         11    1    3    3    0    0 -0.24435387787E+01  0.36188871957E+01  0.97949244104E+01  0.10724167602E+02  0.51100000000E-03 0. -1.
        -11    1    3    3    0    0  0.20314697289E+01 -0.11997410698E+02 -0.14030691011E+02  0.18572157204E+02  0.51100000000E-03 0.  1.
         12    1    3    3    0    0 -0.22793647809E+02  0.83593064677E+01 -0.17632472852E+02  0.30005540887E+02  0.00000000000E+00 0. -1.
</event>
<event>
 7    1  0.6489567E-013  0.5930195E+02  0.7816164E-02  0.1266605E+00
        -11   -1    0    0    0    0  0.00000000000E+00  0.00000000000E+00  0.45593999997E+02  0.45594000000E+02  0.51100000000E-03 0.  1.
         11   -1    0    0    0    0 -0.00000000000E+00 -0.00000000000E+00 -0.45593999997E+02  0.45594000000E+02  0.51100000000E-03 0. -1.
    9900012    2    1    2    0    0 -0.13006973735E+02 -0.23839197144E+02 -0.16710215862E+02  0.59301952888E+02  0.50000016160E+02 0.  0.
        -12    1    1    2    0    0  0.13006973735E+02  0.23839197144E+02  0.16710215862E+02  0.31886047112E+02  0.00000000000E+00 0.  1.
         11    1    3    3    0    0  0.12981090125E+02  0.19476445177E+00 -0.94674787170E+00  0.13017025998E+02  0.51100000000E-03 0. -1.
        -11    1    3    3    0    0 -0.38878842567E+01 -0.18861029829E+02 -0.11540758040E+01  0.19292122263E+02  0.51100000000E-03 0.  1.
        -12    1    3    3    0    0 -0.22100179604E+02 -0.51729317673E+01 -0.14609392187E+02  0.26992804627E+02  0.00000000000E+00 0.  1.
</event>
<event>
 7    1  0.6489567E-013  0.5930195E+02  0.7816164E-02  0.1266605E+00
        -11   -1    0    0    0    0  0.00000000000E+00  0.00000000000E+00  0.45593999997E+02  0.45594000000E+02  0.51100000000E-03 0.  1.
         11   -1    0    0    0    0 -0.00000000000E+00 -0.00000000000E+00 -0.45593999997E+02  0.45594000000E+02  0.51100000000E-03 0. -1.
    9900012    2    1    2    0    0 -0.97155585407E+00 -0.70705979830E+01 -0.31077044208E+02  0.59301953627E+02  0.50000017507E+02 0.  0.
        -12    1    1    2    0    0  0.97155585407E+00  0.70705979830E+01  0.31077044208E+02  0.31886046373E+02  0.00000000000E+00 0.  1.
         11    1    3    3    0    0 -0.12688558959E+02 -0.34060719821E+01 -0.20470052745E+01  0.13296280896E+02  0.51100000000E-03 0. -1.
        -11    1    3    3    0    0  0.24460385766E+01 -0.15161262593E+02 -0.23852757725E+01  0.15541445522E+02  0.51100000000E-03 0.  1.
        -12    1    3    3    0    0  0.92709645284E+01  0.11496736592E+02 -0.26644763161E+02  0.30464227209E+02  0.00000000000E+00 0.  1.
</event>
<event>
 7    1  0.6489567E-013  0.5930192E+02  0.7816164E-02  0.1266605E+00
        -11   -1    0    0    0    0  0.00000000000E+00  0.00000000000E+00  0.45593999997E+02  0.45594000000E+02  0.51100000000E-03 0.  1.
         11   -1    0    0    0    0 -0.00000000000E+00 -0.00000000000E+00 -0.45593999997E+02  0.45594000000E+02  0.51100000000E-03 0. -1.
    9900012    2    1    2    0    0  0.84739977998E+01  0.30632858906E+02  0.25575683395E+01  0.59301924054E+02  0.49999963572E+02 0.  0.
        -12    1    1    2    0    0 -0.84739977998E+01 -0.30632858906E+02 -0.25575683395E+01  0.31886075946E+02  0.00000000000E+00 0.  1.
         11    1    3    3    0    0 -0.14324431435E+02  0.41319582799E+01 -0.76523352987E+01  0.16757704227E+02  0.51100000000E-03 0. -1.
        -11    1    3    3    0    0 -0.18081650569E+01  0.32011321559E+01  0.77376103221E+01  0.85666400479E+01  0.51100000000E-03 0.  1.
         12    1    3    3    0    0  0.24606594292E+02  0.23299768470E+02  0.24722933161E+01  0.33977579779E+02  0.00000000000E+00 0. -1.
</event>
<event>
 7    1  0.6489567E-013  0.5930194E+02  0.7816164E-02  0.1266605E+00
        -11   -1    0    0    0    0  0.00000000000E+00  0.00000000000E+00  0.45593999997E+02  0.45594000000E+02  0.51100000000E-03 0. -1.
         11   -1    0    0    0    0 -0.00000000000E+00 -0.00000000000E+00 -0.45593999997E+02  0.45594000000E+02  0.51100000000E-03 0.  1.
    9900012    2    1    2    0    0  0.58159484449E+01 -0.38468901153E+01  0.31114254136E+02  0.59301943011E+02  0.49999998146E+02 0.  0.
        -12    1    1    2    0    0 -0.58159484449E+01  0.38468901153E+01 -0.31114254136E+02  0.31886056989E+02  0.00000000000E+00 0.  1.
         11    1    3    3    0    0  0.46126656675E+01  0.93418375715E+01  0.25124595007E+02  0.27199115580E+02  0.51100000000E-03 0. -1.
        -11    1    3    3    0    0  0.10738897442E+02  0.12159173409E+01  0.95990465508E+01  0.14454897724E+02  0.51100000000E-03 0.  1.
        -12    1    3    3    0    0 -0.95356146648E+01 -0.14404645028E+02 -0.36093874226E+01  0.17647929708E+02  0.00000000000E+00 0.  1.
</event>
<event>
 7    1  0.6489567E-013  0.5930192E+02  0.7816164E-02  0.1266605E+00
        -11   -1    0    0    0    0  0.00000000000E+00  0.00000000000E+00  0.45593999997E+02  0.45594000000E+02  0.51100000000E-03 0.  1.
         11   -1    0    0    0    0 -0.00000000000E+00 -0.00000000000E+00 -0.45593999997E+02  0.45594000000E+02  0.51100000000E-03 0. -1.
    9900012    2    1    2    0    0  0.16787028168E+02 -0.99077651421E+01 -0.25233983352E+02  0.59301920896E+02  0.49999957813E+02 0.  0.
        -12    1    1    2    0    0 -0.16787028168E+02  0.99077651421E+01  0.25233983352E+02  0.31886079104E+02  0.00000000000E+00 0.  1.
         11    1    3    3    0    0  0.10387396040E+02 -0.13336660636E+02  0.89154784767E+01  0.19111521921E+02  0.51100000000E-03 0.  1.
        -11    1    3    3    0    0 -0.22885152773E+01  0.41321420675E-01  0.18873082800E+01  0.29666382387E+01  0.51100000000E-03 0. -1.
         12    1    3    3    0    0  0.86881474056E+01  0.33875740735E+01 -0.36036770109E+02  0.37223760736E+02  0.00000000000E+00 0. -1.
</event>
<event>
 7    1  0.6489567E-013  0.5930196E+02  0.7816164E-02  0.1266605E+00
        -11   -1    0    0    0    0  0.00000000000E+00  0.00000000000E+00  0.45593999997E+02  0.45594000000E+02  0.51100000000E-03 0. -1.
         11   -1    0    0    0    0 -0.00000000000E+00 -0.00000000000E+00 -0.45593999997E+02  0.45594000000E+02  0.51100000000E-03 0.  1.
    9900012    2    1    2    0    0 -0.62035124202E+01  0.31169401817E+02  0.25892298556E+01  0.59301964071E+02  0.50000036554E+02 0.  0.
        -12    1    1    2    0    0  0.62035124202E+01 -0.31169401817E+02 -0.25892298556E+01  0.31886035929E+02  0.00000000000E+00 0.  1.
         11    1    3    3    0    0  0.18667857754E+01  0.16425853361E+02 -0.41674817680E+01  0.17048796213E+02  0.51100000000E-03 0. -1.
        -11    1    3    3    0    0 -0.21770615404E+01  0.88758734516E+01 -0.15777586069E+02  0.18233292323E+02  0.51100000000E-03 0.  1.
         12    1    3    3    0    0 -0.58932366551E+01  0.58676750053E+01  0.22534297693E+02  0.24019875536E+02  0.00000000000E+00 0. -1.
</event>
<event>
 7    1  0.6489567E-013  0.5930194E+02  0.7816164E-02  0.1266605E+00
        -11   -1    0    0    0    0  0.00000000000E+00  0.00000000000E+00  0.45593999997E+02  0.45594000000E+02  0.51100000000E-03 0.  1.
         11   -1    0    0    0    0 -0.00000000000E+00 -0.00000000000E+00 -0.45593999997E+02  0.45594000000E+02  0.51100000000E-03 0. -1.
    9900012    2    1    2    0    0 -0.21635561062E+02  0.12380332684E+02 -0.19883421818E+02  0.59301943439E+02  0.49999998926E+02 0.  0.
        -12    1    1    2    0    0  0.21635561062E+02 -0.12380332684E+02  0.19883421818E+02  0.31886056561E+02  0.00000000000E+00 0.  1.
         11    1    3    3    0    0 -0.21016175052E+02  0.23209946565E+02 -0.89184936421E+01  0.32556424289E+02  0.51100000000E-03 0. -1.
        -11    1    3    3    0    0 -0.97287189528E+01 -0.99989294005E+00 -0.88271681792E+01  0.13174469882E+02  0.51100000000E-03 0.  1.
        -12    1    3    3    0    0  0.91093329427E+01 -0.98297209407E+01 -0.21377599963E+01  0.13571049268E+02  0.00000000000E+00 0.  1.
</event>
<event>
 7    1  0.6489567E-013  0.5930194E+02  0.7816164E-02  0.1266605E+00
        -11   -1    0    0    0    0  0.00000000000E+00  0.00000000000E+00  0.45593999997E+02  0.45594000000E+02  0.51100000000E-03 0.  1.
         11   -1    0    0    0    0 -0.00000000000E+00 -0.00000000000E+00 -0.45593999997E+02  0.45594000000E+02  0.51100000000E-03 0. -1.
    9900012    2    1    2    0    0  0.17247818832E+02  0.26795321197E+02 -0.11154244063E+01  0.59301942481E+02  0.49999997179E+02 0.  0.
        -12    1    1    2    0    0 -0.17247818832E+02 -0.26795321197E+02  0.11154244063E+01  0.31886057519E+02  0.00000000000E+00 0.  1.
         11    1    3    3    0    0  0.42388157113E+01  0.72773036184E+01  0.91855548908E+01  0.12461987221E+02  0.51100000000E-03 0. -1.
        -11    1    3    3    0    0  0.11867885445E+02 -0.30617085647E+01  0.10484239824E+02  0.16128857654E+02  0.51100000000E-03 0.  1.
         12    1    3    3    0    0  0.11411176761E+01  0.22579726143E+02 -0.20785219121E+02  0.30711097606E+02  0.00000000000E+00 0. -1.
</event>
<event>
 7    1  0.6489567E-013  0.5930195E+02  0.7816164E-02  0.1266605E+00
        -11   -1    0    0    0    0  0.00000000000E+00  0.00000000000E+00  0.45593999997E+02  0.45594000000E+02  0.51100000000E-03 0.  1.
         11   -1    0    0    0    0 -0.00000000000E+00 -0.00000000000E+00 -0.45593999997E+02  0.45594000000E+02  0.51100000000E-03 0. -1.
    9900012    2    1    2    0    0  0.25511575280E+02  0.18775985528E+02 -0.36526681189E+01  0.59301951481E+02  0.50000013592E+02 0.  0.
        -12    1    1    2    0    0 -0.25511575280E+02 -0.18775985528E+02  0.36526681189E+01  0.31886048519E+02  0.00000000000E+00 0.  1.
         11    1    3    3    0    0  0.71420736772E+01 -0.48564751406E+01 -0.14348528990E+02  0.16747383427E+02  0.51100000000E-03 0. -1.
        -11    1    3    3    0    0  0.16437109494E+02 -0.49756387826E+00  0.77149960980E+01  0.18164451640E+02  0.51100000000E-03 0.  1.
        -12    1    3    3    0    0  0.19323921085E+01  0.24130024546E+02  0.29808647731E+01  0.24390116414E+02  0.00000000000E+00 0.  1.
</event>
<event>
 7    1  0.6489567E-013  0.5930198E+02  0.7816164E-02  0.1266605E+00
        -11   -1    0    0    0    0  0.00000000000E+00  0.00000000000E+00  0.45593999997E+02  0.45594000000E+02  0.51100000000E-03 0. -1.
         11   -1    0    0    0    0 -0.00000000000E+00 -0.00000000000E+00 -0.45593999997E+02  0.45594000000E+02  0.51100000000E-03 0.  1.
    9900012    2    1    2    0    0 -0.66437956364E+01  0.31148105830E+02  0.15406927749E+01  0.59301980313E+02  0.50000066175E+02 0.  0.
        -12    1    1    2    0    0  0.66437956364E+01 -0.31148105830E+02 -0.15406927749E+01  0.31886019687E+02  0.00000000000E+00 0.  1.
         11    1    3    3    0    0  0.11787594623E+02  0.42382260281E+01  0.79225694604E+01  0.14821506468E+02  0.51100000000E-03 0. -1.
        -11    1    3    3    0    0  0.47676203270E+01  0.11998751310E+02 -0.10442127854E+02  0.16605368739E+02  0.51100000000E-03 0.  1.
         12    1    3    3    0    0 -0.23199010586E+02  0.14911128492E+02  0.40602511683E+01  0.27875105105E+02  0.00000000000E+00 0. -1.
</event>
<event>
 7    1  0.6489567E-013  0.5930194E+02  0.7816164E-02  0.1266605E+00
        -11   -1    0    0    0    0  0.00000000000E+00  0.00000000000E+00  0.45593999997E+02  0.45594000000E+02  0.51100000000E-03 0.  1.
         11   -1    0    0    0    0 -0.00000000000E+00 -0.00000000000E+00 -0.45593999997E+02  0.45594000000E+02  0.51100000000E-03 0. -1.
    9900012    2    1    2    0    0  0.29190660005E+02 -0.10917195755E+02  0.67410132183E+01  0.59301936369E+02  0.49999986032E+02 0.  0.
        -12    1    1    2    0    0 -0.29190660005E+02  0.10917195755E+02 -0.67410132183E+01  0.31886063631E+02  0.00000000000E+00 0.  1.
         11    1    3    3    0    0  0.26554441121E+02  0.71800821963E+00 -0.15637459521E+02  0.30825055062E+02  0.51100000000E-03 0. -1.
        -11    1    3    3    0    0 -0.25593439459E+01  0.18011600105E+01  0.30456161920E+01  0.43669436758E+01  0.51100000000E-03 0.  1.
        -12    1    3    3    0    0  0.51955628304E+01 -0.13436363985E+02  0.19332856548E+02  0.24109937631E+02  0.00000000000E+00 0.  1.
</event>
<event>
 7    1  0.6489567E-013  0.5930191E+02  0.7816164E-02  0.1266605E+00
        -11   -1    0    0    0    0  0.00000000000E+00  0.00000000000E+00  0.45593999997E+02  0.45594000000E+02  0.51100000000E-03 0.  1.
         11   -1    0    0    0    0 -0.00000000000E+00 -0.00000000000E+00 -0.45593999997E+02  0.45594000000E+02  0.51100000000E-03 0. -1.
    9900012    2    1    2    0    0  0.31047191347E+02  0.62481858393E+01 -0.37087119255E+01  0.59301914304E+02  0.49999945792E+02 0.  0.
        -12    1    1    2    0    0 -0.31047191347E+02 -0.62481858393E+01  0.37087119255E+01  0.31886085696E+02  0.00000000000E+00 0.  1.
         11    1    3    3    0    0  0.10660198336E+02  0.15128250026E+02 -0.36425413158E+01  0.18861916258E+02  0.51100000000E-03 0.  1.
        -11    1    3    3    0    0  0.25196274280E+01  0.34777649053E+01 -0.13991309006E+02  0.14635576485E+02  0.51100000000E-03 0. -1.
        -12    1    3    3    0    0  0.17867365583E+02 -0.12357829092E+02  0.13925138396E+02  0.25804421561E+02  0.00000000000E+00 0.  1.
</event>
<event>
 7    1  0.6489567E-013  0.5930206E+02  0.7816164E-02  0.1266604E+00
        -11   -1    0    0    0    0  0.00000000000E+00  0.00000000000E+00  0.45593999997E+02  0.45594000000E+02  0.51100000000E-03 0.  1.
         11   -1    0    0    0    0 -0.00000000000E+00 -0.00000000000E+00 -0.45593999997E+02  0.45594000000E+02  0.51100000000E-03 0. -1.
    9900012    2    1    2    0    0 -0.95522252256E+01 -0.30385981034E+02  0.14698163835E+01  0.59302059362E+02  0.50000210341E+02 0.  0.
        -12    1    1    2    0    0  0.95522252256E+01  0.30385981034E+02 -0.14698163835E+01  0.31885940638E+02  0.00000000000E+00 0.  1.
         11    1    3    3    0    0 -0.11534718954E+02  0.22401937992E+01  0.55975884300E+01  0.13015421856E+02  0.51100000000E-03 0. -1.
        -11    1    3    3    0    0 -0.30099210090E+01  0.60613671355E+01  0.13340431271E+01  0.68977871349E+01  0.51100000000E-03 0.  1.
         12    1    3    3    0    0  0.49924147372E+01 -0.38687541969E+02 -0.54618151735E+01  0.39388850371E+02  0.00000000000E+00 0. -1.
</event>
<event>
 7    1  0.6489567E-013  0.5930195E+02  0.7816164E-02  0.1266605E+00
        -11   -1    0    0    0    0  0.00000000000E+00  0.00000000000E+00  0.45593999997E+02  0.45594000000E+02  0.51100000000E-03 0. -1.
         11   -1    0    0    0    0 -0.00000000000E+00 -0.00000000000E+00 -0.45593999997E+02  0.45594000000E+02  0.51100000000E-03 0.  1.
    9900012    2    1    2    0    0 -0.20893558443E+02  0.20929876099E+02  0.11921401745E+02  0.59301947916E+02  0.50000007091E+02 0.  0.
        -12    1    1    2    0    0  0.20893558443E+02 -0.20929876099E+02 -0.11921401745E+02  0.31886052084E+02  0.00000000000E+00 0.  1.
         11    1    3    3    0    0  0.52276662928E+01  0.85521808778E+01 -0.82573802454E+01  0.12986632412E+02  0.51100000000E-03 0. -1.
        -11    1    3    3    0    0  0.19779201594E+01  0.12568623468E+02  0.10808116221E+02  0.16694245732E+02  0.51100000000E-03 0.  1.
         12    1    3    3    0    0 -0.28099144896E+02 -0.19092824653E+00  0.93706657694E+01  0.29621069772E+02  0.00000000000E+00 0. -1.
</event>
<event>
 7    1  0.6489567E-013  0.5930193E+02  0.7816164E-02  0.1266605E+00
        -11   -1    0    0    0    0  0.00000000000E+00  0.00000000000E+00  0.45593999997E+02  0.45594000000E+02  0.51100000000E-03 0.  1.
         11   -1    0    0    0    0 -0.00000000000E+00 -0.00000000000E+00 -0.45593999997E+02  0.45594000000E+02  0.51100000000E-03 0. -1.
    9900012    2    1    2    0    0  0.53242605991E+01  0.98170783366E+01 -0.29866350332E+02  0.59301926862E+02  0.49999968693E+02 0.  0.
        -12    1    1    2    0    0 -0.53242605991E+01 -0.98170783366E+01  0.29866350332E+02  0.31886073138E+02  0.00000000000E+00 0.  1.
         11    1    3    3    0    0 -0.43196419095E+01  0.11724779901E+02  0.61094822074E+01  0.13908829680E+02  0.51100000000E-03 0. -1.
        -11    1    3    3    0    0 -0.63335961222E+01 -0.82196452880E+01 -0.11492756327E+02  0.15484200229E+02  0.51100000000E-03 0.  1.
        -12    1    3    3    0    0  0.15977498631E+02  0.63119437236E+01 -0.24483076213E+02  0.29908896953E+02  0.00000000000E+00 0.  1.
</event>
<event>
 7    1  0.6489567E-013  0.5930196E+02  0.7816164E-02  0.1266605E+00
        -11   -1    0    0    0    0  0.00000000000E+00  0.00000000000E+00  0.45593999997E+02  0.45594000000E+02  0.51100000000E-03 0.  1.
         11   -1    0    0    0    0 -0.00000000000E+00 -0.00000000000E+00 -0.45593999997E+02  0.45594000000E+02  0.51100000000E-03 0. -1.
    9900012    2    1    2    0    0 -0.21444149753E+01 -0.31457865545E+02 -0.47459288243E+01  0.59301958217E+02  0.50000025877E+02 0.  0.
        -12    1    1    2    0    0  0.21444149753E+01  0.31457865545E+02  0.47459288243E+01  0.31886041783E+02  0.00000000000E+00 0.  1.
         11    1    3    3    0    0 -0.40882932423E+01  0.26528699157E+00 -0.41150786392E+00  0.41175062606E+01  0.51100000000E-03 0. -1.
        -11    1    3    3    0    0  0.21062812335E+01  0.10718560091E+01  0.16278426941E+02  0.16449087509E+02  0.51100000000E-03 0.  1.
         12    1    3    3    0    0 -0.16240296649E+00 -0.32795008545E+02 -0.20612847902E+02  0.38735364447E+02  0.00000000000E+00 0. -1.
</event>
<event>
 7    1  0.6489567E-013  0.5930198E+02  0.7816164E-02  0.1266605E+00
        -11   -1    0    0    0    0  0.00000000000E+00  0.00000000000E+00  0.45593999997E+02  0.45594000000E+02  0.51100000000E-03 0. -1.
         11   -1    0    0    0    0 -0.00000000000E+00 -0.00000000000E+00 -0.45593999997E+02  0.45594000000E+02  0.51100000000E-03 0.  1.
    9900012    2    1    2    0    0 -0.10429444656E+02  0.10830197407E+02  0.28118535710E+02  0.59301975755E+02  0.50000057863E+02 0.  0.
        -12    1    1    2    0    0  0.10429444656E+02 -0.10830197407E+02 -0.28118535710E+02  0.31886024245E+02  0.00000000000E+00 0.  1.
         11    1    3    3    0    0 -0.16196791069E+01  0.71910073554E+01 -0.89625773196E+01  0.11604384502E+02  0.51100000000E-03 0.  1.
        -11    1    3    3    0    0  0.31677107959E+01 -0.98336659923E+01  0.65225825002E+01  0.12217997433E+02  0.51100000000E-03 0. -1.
        -12    1    3    3    0    0 -0.11977476345E+02  0.13472856044E+02  0.30558530529E+02  0.35479593820E+02  0.00000000000E+00 0.  1.
</event>
<event>
 7    1  0.6489567E-013  0.5930193E+02  0.7816164E-02  0.1266605E+00
        -11   -1    0    0    0    0  0.00000000000E+00  0.00000000000E+00  0.45593999997E+02  0.45594000000E+02  0.51100000000E-03 0.  1.
         11   -1    0    0    0    0 -0.00000000000E+00 -0.00000000000E+00 -0.45593999997E+02  0.45594000000E+02  0.51100000000E-03 0. -1.
    9900012    2    1    2    0    0  0.35050814580E+01  0.44290462282E+01 -0.31381829822E+02  0.59301932675E+02  0.49999979294E+02 0.  0.
        -12    1    1    2    0    0 -0.35050814580E+01 -0.44290462282E+01  0.31381829822E+02  0.31886067325E+02  0.00000000000E+00 0.  1.
         11    1    3    3    0    0  0.66713657381E+01  0.39438206845E+00 -0.24504414590E+02  0.25399389612E+02  0.51100000000E-03 0. -1.
        -11    1    3    3    0    0 -0.54322111874E+01 -0.52722929279E+01 -0.17819072497E+02  0.19360406401E+02  0.51100000000E-03 0.  1.
         12    1    3    3    0    0  0.22659269073E+01  0.93069570876E+01  0.10941657265E+02  0.14542136661E+02  0.00000000000E+00 0. -1.
</event>
<event>
 7    1  0.6489567E-013  0.5930196E+02  0.7816164E-02  0.1266605E+00
        -11   -1    0    0    0    0  0.00000000000E+00  0.00000000000E+00  0.45593999997E+02  0.45594000000E+02  0.51100000000E-03 0.  1.
         11   -1    0    0    0    0 -0.00000000000E+00 -0.00000000000E+00 -0.45593999997E+02  0.45594000000E+02  0.51100000000E-03 0. -1.
    9900012    2    1    2    0    0  0.21913069727E+02  0.13542445016E+02 -0.18791989985E+02  0.59301963409E+02  0.50000035347E+02 0.  0.
        -12    1    1    2    0    0 -0.21913069727E+02 -0.13542445016E+02  0.18791989985E+02  0.31886036591E+02  0.00000000000E+00 0.  1.
         11    1    3    3    0    0  0.90119502580E+01  0.57590771699E+01 -0.17611654263E+02  0.20604673825E+02  0.51100000000E-03 0. -1.
        -11    1    3    3    0    0  0.70458414330E+01 -0.12342808024E+02 -0.84228587812E+01  0.16520694347E+02  0.51100000000E-03 0.  1.
        -12    1    3    3    0    0  0.58552780364E+01  0.20126175869E+02  0.72425230598E+01  0.22176595237E+02  0.00000000000E+00 0.  1.
</event>
<event>
 7    1  0.6489567E-013  0.5930195E+02  0.7816164E-02  0.1266605E+00
        -11   -1    0    0    0    0  0.00000000000E+00  0.00000000000E+00  0.45593999997E+02  0.45594000000E+02  0.51100000000E-03 0. -1.
         11   -1    0    0    0    0 -0.00000000000E+00 -0.00000000000E+00 -0.45593999997E+02  0.45594000000E+02  0.51100000000E-03 0.  1.
    9900012    2    1    2    0    0  0.11267267491E+01 -0.40803574621E+01  0.31603821491E+02  0.59301947202E+02  0.50000005789E+02 0.  0.
        -12    1    1    2    0    0 -0.11267267491E+01  0.40803574621E+01 -0.31603821491E+02  0.31886052798E+02  0.00000000000E+00 0.  1.
         11    1    3    3    0    0 -0.11968271985E+01  0.47885291101E+01 -0.40808417302E+01  0.64043482002E+01  0.51100000000E-03 0. -1.
        -11    1    3    3    0    0 -0.30009765186E+01  0.10509671514E+02 -0.10960928551E+01  0.10984556213E+02  0.51100000000E-03 0.  1.
         12    1    3    3    0    0  0.53245304662E+01 -0.19378558086E+02  0.36780756077E+02  0.41913042788E+02  0.00000000000E+00 0. -1.
</event>
<event>
 7    1  0.6489567E-013  0.5930193E+02  0.7816164E-02  0.1266605E+00
        -11   -1    0    0    0    0  0.00000000000E+00  0.00000000000E+00  0.45593999997E+02  0.45594000000E+02  0.51100000000E-03 0. -1.
         11   -1    0    0    0    0 -0.00000000000E+00 -0.00000000000E+00 -0.45593999997E+02  0.45594000000E+02  0.51100000000E-03 0.  1.
    9900012    2    1    2    0    0 -0.12906556734E+02  0.27830788612E+02 -0.86942029015E+01  0.59301934617E+02  0.49999982837E+02 0.  0.
        -12    1    1    2    0    0  0.12906556734E+02 -0.27830788612E+02  0.86942029015E+01  0.31886065383E+02  0.00000000000E+00 0.  1.
         11    1    3    3    0    0 -0.80086442883E+01 -0.16274414014E+01 -0.14792787062E+02  0.16900103496E+02  0.51100000000E-03 0. -1.
        -11    1    3    3    0    0  0.12380390814E+02  0.12846658111E+02  0.82613725213E+00  0.17860380857E+02  0.51100000000E-03 0.  1.
         12    1    3    3    0    0 -0.17278303260E+02  0.16611571903E+02  0.52724469087E+01  0.24541450264E+02  0.00000000000E+00 0. -1.
</event>
<event>
 7    1  0.6489567E-013  0.5930194E+02  0.7816164E-02  0.1266605E+00
        -11   -1    0    0    0    0  0.00000000000E+00  0.00000000000E+00  0.45593999997E+02  0.45594000000E+02  0.51100000000E-03 0.  1.
         11   -1    0    0    0    0 -0.00000000000E+00 -0.00000000000E+00 -0.45593999997E+02  0.45594000000E+02  0.51100000000E-03 0. -1.
    9900012    2    1    2    0    0 -0.77825277498E+01 -0.10136863237E+02 -0.29212965459E+02  0.59301935875E+02  0.49999985131E+02 0.  0.
        -12    1    1    2    0    0  0.77825277498E+01  0.10136863237E+02  0.29212965459E+02  0.31886064125E+02  0.00000000000E+00 0.  1.
         11    1    3    3    0    0 -0.41454564051E+01  0.45766713995E+01 -0.30023043503E+00  0.61823028461E+01  0.51100000000E-03 0. -1.
        -11    1    3    3    0    0 -0.15193038370E+02  0.54753582346E+01 -0.17980499918E+00  0.16150550851E+02  0.51100000000E-03 0.  1.
         12    1    3    3    0    0  0.11555967025E+02 -0.20188892871E+02 -0.28732930025E+02  0.36969082178E+02  0.00000000000E+00 0. -1.
</event>
<event>
 7    1  0.6489567E-013  0.5930194E+02  0.7816164E-02  0.1266605E+00
        -11   -1    0    0    0    0  0.00000000000E+00  0.00000000000E+00  0.45593999997E+02  0.45594000000E+02  0.51100000000E-03 0.  1.
         11   -1    0    0    0    0 -0.00000000000E+00 -0.00000000000E+00 -0.45593999997E+02  0.45594000000E+02  0.51100000000E-03 0. -1.
    9900012    2    1    2    0    0  0.18018780565E+02  0.10514743880E+02 -0.24113987100E+02  0.59301942454E+02  0.49999997131E+02 0.  0.
        -12    1    1    2    0    0 -0.18018780565E+02 -0.10514743880E+02  0.24113987100E+02  0.31886057546E+02  0.00000000000E+00 0.  1.
         11    1    3    3    0    0  0.18989835641E+02  0.13102852186E+01 -0.45214170053E+01  0.19564608788E+02  0.51100000000E-03 0. -1.
        -11    1    3    3    0    0 -0.12003990070E+02  0.61528950347E+01  0.35239744252E+01  0.13941746336E+02  0.51100000000E-03 0.  1.
         12    1    3    3    0    0  0.11032934994E+02  0.30515636268E+01 -0.23116544520E+02  0.25795587330E+02  0.00000000000E+00 0. -1.
</event>
<event>
 7    1  0.6489567E-013  0.5930194E+02  0.7816164E-02  0.1266605E+00
        -11   -1    0    0    0    0  0.00000000000E+00  0.00000000000E+00  0.45593999997E+02  0.45594000000E+02  0.51100000000E-03 0.  1.
         11   -1    0    0    0    0 -0.00000000000E+00 -0.00000000000E+00 -0.45593999997E+02  0.45594000000E+02  0.51100000000E-03 0. -1.
    9900012    2    1    2    0    0 -0.23147222207E+02  0.17323818171E+02 -0.13446644233E+02  0.59301940146E+02  0.49999992920E+02 0.  0.
        -12    1    1    2    0    0  0.23147222207E+02 -0.17323818171E+02  0.13446644233E+02  0.31886059854E+02  0.00000000000E+00 0.  1.
         11    1    3    3    0    0  0.39958135578E+01 -0.61579731134E+01  0.87987393031E+01  0.11458838180E+02  0.51100000000E-03 0. -1.
        -11    1    3    3    0    0 -0.80428526427E+00 -0.34705752587E+01  0.82536848313E+00  0.36569113752E+01  0.51100000000E-03 0.  1.
         12    1    3    3    0    0 -0.26338750500E+02  0.26952366543E+02 -0.23070752019E+02  0.44186190590E+02  0.00000000000E+00 0. -1.
</event>
<event>
 7    1  0.6489567E-013  0.5930193E+02  0.7816164E-02  0.1266605E+00
        -11   -1    0    0    0    0  0.00000000000E+00  0.00000000000E+00  0.45593999997E+02  0.45594000000E+02  0.51100000000E-03 0. -1.
         11   -1    0    0    0    0 -0.00000000000E+00 -0.00000000000E+00 -0.45593999997E+02  0.45594000000E+02  0.51100000000E-03 0.  1.
    9900012    2    1    2    0    0  0.18791982362E+02  0.20724131198E+02  0.15300106210E+02  0.59301929921E+02  0.49999974273E+02 0.  0.
        -12    1    1    2    0    0 -0.18791982362E+02 -0.20724131198E+02 -0.15300106210E+02  0.31886070079E+02  0.00000000000E+00 0.  1.
         11    1    3    3    0    0  0.10964836789E+02  0.13633131027E+02  0.20685204609E+02  0.27091836361E+02  0.51100000000E-03 0. -1.
        -11    1    3    3    0    0  0.11624812237E+02  0.10881244551E+02 -0.14563460453E+02  0.21578510680E+02  0.51100000000E-03 0.  1.
         12    1    3    3    0    0 -0.37976666640E+01 -0.37902443801E+01  0.91783620543E+01  0.10631582881E+02  0.00000000000E+00 0. -1.
</event>
<event>
 7    1  0.6489567E-013  0.5930194E+02  0.7816164E-02  0.1266605E+00
        -11   -1    0    0    0    0  0.00000000000E+00  0.00000000000E+00  0.45593999997E+02  0.45594000000E+02  0.51100000000E-03 0.  1.
         11   -1    0    0    0    0 -0.00000000000E+00 -0.00000000000E+00 -0.45593999997E+02  0.45594000000E+02  0.51100000000E-03 0. -1.
    9900012    2    1    2    0    0  0.13897043465E+02 -0.16058906191E+01 -0.28653346519E+02  0.59301937707E+02  0.49999988473E+02 0.  0.
        -12    1    1    2    0    0 -0.13897043465E+02  0.16058906191E+01  0.28653346519E+02  0.31886062293E+02  0.00000000000E+00 0.  1.
         11    1    3    3    0    0  0.10759601071E+02 -0.11394258679E+02 -0.42439817802E+01  0.16236056407E+02  0.51100000000E-03 0. -1.
        -11    1    3    3    0    0  0.97005001997E+01  0.47306653186E+01  0.54412736346E+01  0.12086618944E+02  0.51100000000E-03 0.  1.
         12    1    3    3    0    0 -0.65630578054E+01  0.50577027411E+01 -0.29850638374E+02  0.30979262356E+02  0.00000000000E+00 0. -1.
</event>
<event>
 7    1  0.6489567E-013  0.5930194E+02  0.7816164E-02  0.1266605E+00
        -11   -1    0    0    0    0  0.00000000000E+00  0.00000000000E+00  0.45593999997E+02  0.45594000000E+02  0.51100000000E-03 0.  1.
         11   -1    0    0    0    0 -0.00000000000E+00 -0.00000000000E+00 -0.45593999997E+02  0.45594000000E+02  0.51100000000E-03 0. -1.
    9900012    2    1    2    0    0  0.20569515922E+02 -0.87668205475E+01 -0.22732330645E+02  0.59301937460E+02  0.49999988022E+02 0.  0.
        -12    1    1    2    0    0 -0.20569515922E+02  0.87668205475E+01  0.22732330645E+02  0.31886062540E+02  0.00000000000E+00 0.  1.
         11    1    3    3    0    0  0.87299111318E+01 -0.51115102737E+00 -0.19358718649E+02  0.21242236505E+02  0.51100000000E-03 0. -1.
        -11    1    3    3    0    0 -0.39393628633E+01 -0.12418149019E+02 -0.13574639072E+02  0.18814883232E+02  0.51100000000E-03 0.  1.
         12    1    3    3    0    0  0.15778967653E+02  0.41624794987E+01  0.10201027076E+02  0.19244817723E+02  0.00000000000E+00 0. -1.
</event>
<event>
 7    1  0.6489567E-013  0.5930195E+02  0.7816164E-02  0.1266605E+00
        -11   -1    0    0    0    0  0.00000000000E+00  0.00000000000E+00  0.45593999997E+02  0.45594000000E+02  0.51100000000E-03 0. -1.
         11   -1    0    0    0    0 -0.00000000000E+00 -0.00000000000E+00 -0.45593999997E+02  0.45594000000E+02  0.51100000000E-03 0.  1.
    9900012    2    1    2    0    0  0.22958583591E+02  0.21185307366E+02  0.63879912050E+01  0.59301949126E+02  0.50000009298E+02 0.  0.
        -12    1    1    2    0    0 -0.22958583591E+02 -0.21185307366E+02 -0.63879912050E+01  0.31886050874E+02  0.00000000000E+00 0.  1.
         11    1    3    3    0    0 -0.23692439916E+00 -0.90007050356E+01  0.10779771607E+01  0.90681232529E+01  0.51100000000E-03 0. -1.
        -11    1    3    3    0    0 -0.15481080986E+00 -0.24710587805E+01 -0.76554380937E+01  0.80458579748E+01  0.51100000000E-03 0.  1.
         12    1    3    3    0    0  0.23350318800E+02  0.32657071182E+02  0.12965452138E+02  0.42187967898E+02  0.00000000000E+00 0. -1.
</event>
<event>
 7    1  0.6489567E-013  0.5930195E+02  0.7816164E-02  0.1266605E+00
        -11   -1    0    0    0    0  0.00000000000E+00  0.00000000000E+00  0.45593999997E+02  0.45594000000E+02  0.51100000000E-03 0. -1.
         11   -1    0    0    0    0 -0.00000000000E+00 -0.00000000000E+00 -0.45593999997E+02  0.45594000000E+02  0.51100000000E-03 0.  1.
    9900012    2    1    2    0    0  0.12748552205E+02  0.20527405611E+02  0.20804337745E+02  0.59301946098E+02  0.50000003776E+02 0.  0.
        -12    1    1    2    0    0 -0.12748552205E+02 -0.20527405611E+02 -0.20804337745E+02  0.31886053902E+02  0.00000000000E+00 0.  1.
         11    1    3    3    0    0  0.13331517617E+02  0.27989992477E+01 -0.13541405352E+02  0.19207639572E+02  0.51100000000E-03 0. -1.
        -11    1    3    3    0    0 -0.14352481176E+01  0.16414741999E+01  0.24701249825E-01  0.21805928370E+01  0.51100000000E-03 0.  1.
        -12    1    3    3    0    0  0.85228270546E+00  0.16086932163E+02  0.34321041847E+02  0.37913713689E+02  0.00000000000E+00 0.  1.
</event>
<event>
 7    1  0.6489567E-013  0.5930195E+02  0.7816164E-02  0.1266605E+00
        -11   -1    0    0    0    0  0.00000000000E+00  0.00000000000E+00  0.45593999997E+02  0.45594000000E+02  0.51100000000E-03 0. -1.
         11   -1    0    0    0    0 -0.00000000000E+00 -0.00000000000E+00 -0.45593999997E+02  0.45594000000E+02  0.51100000000E-03 0.  1.
    9900012    2    1    2    0    0 -0.12261781285E+02 -0.29430608420E+02  0.45623388609E+00  0.59301950674E+02  0.50000012121E+02 0.  0.
        -12    1    1    2    0    0  0.12261781285E+02  0.29430608420E+02 -0.45623388609E+00  0.31886049326E+02  0.00000000000E+00 0.  1.
         11    1    3    3    0    0 -0.64409752312E+01 -0.32488505021E+00  0.13787223790E+02  0.15221013512E+02  0.51100000000E-03 0.  1.
        -11    1    3    3    0    0 -0.40305038360E+01 -0.33670820965E+02 -0.48112262861E+01  0.34250796258E+02  0.51100000000E-03 0. -1.
        -12    1    3    3    0    0 -0.17903022183E+01  0.45650975952E+01 -0.85197636183E+01  0.98301409043E+01  0.00000000000E+00 0.  1.
</event>
<event>
 7    1  0.6489567E-013  0.5930192E+02  0.7816164E-02  0.1266605E+00
        -11   -1    0    0    0    0  0.00000000000E+00  0.00000000000E+00  0.45593999997E+02  0.45594000000E+02  0.51100000000E-03 0. -1.
         11   -1    0    0    0    0 -0.00000000000E+00 -0.00000000000E+00 -0.45593999997E+02  0.45594000000E+02  0.51100000000E-03 0.  1.
    9900012    2    1    2    0    0 -0.49481114806E+01 -0.29219667937E+02  0.11766451892E+02  0.59301918527E+02  0.49999953493E+02 0.  0.
        -12    1    1    2    0    0  0.49481114806E+01  0.29219667937E+02 -0.11766451892E+02  0.31886081473E+02  0.00000000000E+00 0.  1.
         11    1    3    3    0    0 -0.10061770451E+02 -0.28068277428E+02  0.16819509379E+02  0.34233949793E+02  0.51100000000E-03 0. -1.
        -11    1    3    3    0    0 -0.84234682713E+01 -0.56050758403E+01 -0.36165424088E+01  0.10744816059E+02  0.51100000000E-03 0.  1.
        -12    1    3    3    0    0  0.13537127242E+02  0.44536853315E+01 -0.14365150782E+01  0.14323152675E+02  0.00000000000E+00 0.  1.
</event>
<event>
 7    1  0.6489567E-013  0.5930197E+02  0.7816164E-02  0.1266605E+00
        -11   -1    0    0    0    0  0.00000000000E+00  0.00000000000E+00  0.45593999997E+02  0.45594000000E+02  0.51100000000E-03 0.  1.
         11   -1    0    0    0    0 -0.00000000000E+00 -0.00000000000E+00 -0.45593999997E+02  0.45594000000E+02  0.51100000000E-03 0. -1.
    9900012    2    1    2    0    0  0.30486855659E+02 -0.82211233963E+01 -0.44366437993E+01  0.59301967853E+02  0.50000043452E+02 0.  0.
        -12    1    1    2    0    0 -0.30486855659E+02  0.82211233963E+01  0.44366437993E+01  0.31886032147E+02  0.00000000000E+00 0.  1.
         11    1    3    3    0    0  0.32622642496E+02  0.66543266275E+00  0.43468073623E+01  0.32917690359E+02  0.51100000000E-03 0. -1.
        -11    1    3    3    0    0 -0.14934132984E+01  0.19697316898E+01  0.68828372690E+01  0.73132465665E+01  0.51100000000E-03 0.  1.
        -12    1    3    3    0    0 -0.64237353907E+00 -0.10856287749E+02 -0.15666288431E+02  0.19071030928E+02  0.00000000000E+00 0.  1.
</event>
<event>
 7    1  0.6489567E-013  0.5930194E+02  0.7816164E-02  0.1266605E+00
        -11   -1    0    0    0    0  0.00000000000E+00  0.00000000000E+00  0.45593999997E+02  0.45594000000E+02  0.51100000000E-03 0.  1.
         11   -1    0    0    0    0 -0.00000000000E+00 -0.00000000000E+00 -0.45593999997E+02  0.45594000000E+02  0.51100000000E-03 0. -1.
    9900012    2    1    2    0    0  0.77708866292E+01 -0.17968126003E+02 -0.25169038952E+02  0.59301941090E+02  0.49999994643E+02 0.  0.
        -12    1    1    2    0    0 -0.77708866292E+01  0.17968126003E+02  0.25169038952E+02  0.31886058910E+02  0.00000000000E+00 0.  1.
         11    1    3    3    0    0 -0.10181142784E+02 -0.17033172631E+02 -0.11601883922E+02  0.22986699395E+02  0.51100000000E-03 0. -1.
        -11    1    3    3    0    0  0.15119954715E+02 -0.84022380034E+01 -0.19721614306E+02  0.26232664850E+02  0.51100000000E-03 0.  1.
        -12    1    3    3    0    0  0.28320746988E+01  0.74672846312E+01  0.61544592765E+01  0.10082576846E+02  0.00000000000E+00 0.  1.
</event>
<event>
 7    1  0.6489567E-013  0.5930223E+02  0.7816164E-02  0.1266604E+00
        -11   -1    0    0    0    0  0.00000000000E+00  0.00000000000E+00  0.45593999997E+02  0.45594000000E+02  0.51100000000E-03 0.  1.
         11   -1    0    0    0    0 -0.00000000000E+00 -0.00000000000E+00 -0.45593999997E+02  0.45594000000E+02  0.51100000000E-03 0. -1.
    9900012    2    1    2    0    0  0.99610262200E+01 -0.30213547883E+02 -0.21498569640E+01  0.59302228816E+02  0.50000519382E+02 0.  0.
        -12    1    1    2    0    0 -0.99610262200E+01  0.30213547883E+02  0.21498569640E+01  0.31885771184E+02  0.00000000000E+00 0.  1.
         11    1    3    3    0    0  0.40459217986E+01 -0.13203890661E+02 -0.22626199823E+02  0.26507680594E+02  0.51100000000E-03 0. -1.
        -11    1    3    3    0    0  0.76844000739E+01 -0.19231432437E+02  0.12181193044E+02  0.24026640679E+02  0.51100000000E-03 0.  1.
        -12    1    3    3    0    0 -0.17692956525E+01  0.22217752146E+01  0.82951498156E+01  0.87679075424E+01  0.00000000000E+00 0.  1.
</event>
<event>
 7    1  0.6489567E-013  0.5930194E+02  0.7816164E-02  0.1266605E+00
        -11   -1    0    0    0    0  0.00000000000E+00  0.00000000000E+00  0.45593999997E+02  0.45594000000E+02  0.51100000000E-03 0.  1.
         11   -1    0    0    0    0 -0.00000000000E+00 -0.00000000000E+00 -0.45593999997E+02  0.45594000000E+02  0.51100000000E-03 0. -1.
    9900012    2    1    2    0    0 -0.14879686861E+02  0.25557686035E+02 -0.11921414183E+02  0.59301944856E+02  0.50000001511E+02 0.  0.
        -12    1    1    2    0    0  0.14879686861E+02 -0.25557686035E+02  0.11921414183E+02  0.31886055144E+02  0.00000000000E+00 0.  1.
         11    1    3    3    0    0 -0.35235733754E+01 -0.98300063399E+01 -0.12705939620E+02  0.16446443259E+02  0.51100000000E-03 0. -1.
        -11    1    3    3    0    0 -0.31440183195E+01  0.28405024885E+01 -0.71976988400E+01  0.83522556494E+01  0.51100000000E-03 0.  1.
        -12    1    3    3    0    0 -0.82120951661E+01  0.32547189886E+02  0.79822242777E+01  0.34503245948E+02  0.00000000000E+00 0.  1.
</event>
<event>
 7    1  0.6489567E-013  0.5930192E+02  0.7816164E-02  0.1266605E+00
        -11   -1    0    0    0    0  0.00000000000E+00  0.00000000000E+00  0.45593999997E+02  0.45594000000E+02  0.51100000000E-03 0. -1.
         11   -1    0    0    0    0 -0.00000000000E+00 -0.00000000000E+00 -0.45593999997E+02  0.45594000000E+02  0.51100000000E-03 0.  1.
    9900012    2    1    2    0    0 -0.22464631045E+02 -0.22559974188E+02 -0.17634622195E+01  0.59301923377E+02  0.49999962339E+02 0.  0.
        -12    1    1    2    0    0  0.22464631045E+02  0.22559974188E+02  0.17634622195E+01  0.31886076623E+02  0.00000000000E+00 0.  1.
         11    1    3    3    0    0 -0.35025167659E+02 -0.21359411875E+02 -0.70555558091E+01  0.41626526557E+02  0.51100000000E-03 0.  1.
        -11    1    3    3    0    0 -0.65494158079E+00 -0.10893281571E+01  0.42300009553E+01  0.44168419319E+01  0.51100000000E-03 0. -1.
        -12    1    3    3    0    0  0.13215478195E+02 -0.11123415665E+00  0.10620926343E+01  0.13258554888E+02  0.00000000000E+00 0.  1.
</event>
<event>
 7    1  0.6489567E-013  0.5930196E+02  0.7816164E-02  0.1266605E+00
        -11   -1    0    0    0    0  0.00000000000E+00  0.00000000000E+00  0.45593999997E+02  0.45594000000E+02  0.51100000000E-03 0.  1.
         11   -1    0    0    0    0 -0.00000000000E+00 -0.00000000000E+00 -0.45593999997E+02  0.45594000000E+02  0.51100000000E-03 0. -1.
    9900012    2    1    2    0    0  0.20474152013E+02 -0.22552285035E+01 -0.24340149289E+02  0.59301955660E+02  0.50000021214E+02 0.  0.
        -12    1    1    2    0    0 -0.20474152013E+02  0.22552285035E+01  0.24340149289E+02  0.31886044340E+02  0.00000000000E+00 0.  1.
         11    1    3    3    0    0  0.14589870988E+02  0.21480973035E+01 -0.21823398359E+02  0.26338932660E+02  0.51100000000E-03 0. -1.
        -11    1    3    3    0    0  0.16391761364E+01 -0.13745056811E+02 -0.12496859530E+02  0.18648994169E+02  0.51100000000E-03 0.  1.
        -12    1    3    3    0    0  0.42451048892E+01  0.93417310044E+01  0.99801086003E+01  0.14314028830E+02  0.00000000000E+00 0.  1.
</event>
<event>
 7    1  0.6489567E-013  0.5930202E+02  0.7816164E-02  0.1266604E+00
        -11   -1    0    0    0    0  0.00000000000E+00  0.00000000000E+00  0.45593999997E+02  0.45594000000E+02  0.51100000000E-03 0. -1.
         11   -1    0    0    0    0 -0.00000000000E+00 -0.00000000000E+00 -0.45593999997E+02  0.45594000000E+02  0.51100000000E-03 0.  1.
    9900012    2    1    2    0    0 -0.15026090673E+02 -0.21715498354E+02 -0.17870907518E+02  0.59302021809E+02  0.50000141854E+02 0.  0.
        -12    1    1    2    0    0  0.15026090673E+02  0.21715498354E+02  0.17870907518E+02  0.31885978191E+02  0.00000000000E+00 0.  1.
         11    1    3    3    0    0 -0.14665150310E+02 -0.11007260421E+01 -0.36866055274E+01  0.15161440961E+02  0.51100000000E-03 0. -1.
        -11    1    3    3    0    0 -0.14226338435E+02 -0.45114598383E+01 -0.17093750544E+02  0.22692251608E+02  0.51100000000E-03 0.  1.
        -12    1    3    3    0    0  0.13865398072E+02 -0.16103312474E+02  0.29094485534E+01  0.21448329240E+02  0.00000000000E+00 0.  1.
</event>
<event>
 7    1  0.6489567E-013  0.5930195E+02  0.7816164E-02  0.1266605E+00
        -11   -1    0    0    0    0  0.00000000000E+00  0.00000000000E+00  0.45593999997E+02  0.45594000000E+02  0.51100000000E-03 0.  1.
         11   -1    0    0    0    0 -0.00000000000E+00 -0.00000000000E+00 -0.45593999997E+02  0.45594000000E+02  0.51100000000E-03 0. -1.
    9900012    2    1    2    0    0  0.14789848130E+02  0.16582896533E+02 -0.22868936532E+02  0.59301947826E+02  0.50000006927E+02 0.  0.
        -12    1    1    2    0    0 -0.14789848130E+02 -0.16582896533E+02  0.22868936532E+02  0.31886052174E+02  0.00000000000E+00 0.  1.
         11    1    3    3    0    0 -0.43115994081E+00  0.20050251782E+01 -0.14668826554E+02  0.14811498830E+02  0.51100000000E-03 0. -1.
        -11    1    3    3    0    0  0.11642919931E+02 -0.49704517448E+01 -0.18257704191E+02  0.22217262155E+02  0.51100000000E-03 0.  1.
        -12    1    3    3    0    0  0.35780881391E+01  0.19548323099E+02  0.10057594212E+02  0.22273186841E+02  0.00000000000E+00 0.  1.
</event>
<event>
 7    1  0.6489567E-013  0.5930197E+02  0.7816164E-02  0.1266605E+00
        -11   -1    0    0    0    0  0.00000000000E+00  0.00000000000E+00  0.45593999997E+02  0.45594000000E+02  0.51100000000E-03 0.  1.
         11   -1    0    0    0    0 -0.00000000000E+00 -0.00000000000E+00 -0.45593999997E+02  0.45594000000E+02  0.51100000000E-03 0. -1.
    9900012    2    1    2    0    0 -0.19394194965E+02  0.82668894346E+01 -0.23921598196E+02  0.59301966701E+02  0.50000041351E+02 0.  0.
        -12    1    1    2    0    0  0.19394194965E+02 -0.82668894346E+01  0.23921598196E+02  0.31886033299E+02  0.00000000000E+00 0.  1.
         11    1    3    3    0    0 -0.46085380490E+01  0.13831614883E+02  0.55236503891E+00  0.14589629900E+02  0.51100000000E-03 0. -1.
        -11    1    3    3    0    0  0.34056398472E-01 -0.91709831013E+01  0.57734776094E+01  0.10837026107E+02  0.51100000000E-03 0.  1.
         12    1    3    3    0    0 -0.14819713314E+02  0.36062576531E+01 -0.30247440845E+02  0.33875310694E+02  0.00000000000E+00 0. -1.
</event>
<event>
 7    1  0.6489567E-013  0.5930192E+02  0.7816164E-02  0.1266605E+00
        -11   -1    0    0    0    0  0.00000000000E+00  0.00000000000E+00  0.45593999997E+02  0.45594000000E+02  0.51100000000E-03 0.  1.
         11   -1    0    0    0    0 -0.00000000000E+00 -0.00000000000E+00 -0.45593999997E+02  0.45594000000E+02  0.51100000000E-03 0. -1.
    9900012    2    1    2    0    0 -0.31595938866E+01 -0.64173361655E+01 -0.31073406541E+02  0.59301924182E+02  0.49999963806E+02 0.  0.
        -12    1    1    2    0    0  0.31595938866E+01  0.64173361655E+01  0.31073406541E+02  0.31886075818E+02  0.00000000000E+00 0.  1.
         11    1    3    3    0    0 -0.17752243715E+01 -0.18419314853E+02 -0.40903021894E+01  0.18951336457E+02  0.51100000000E-03 0. -1.
        -11    1    3    3    0    0 -0.12318344826E+02  0.37883586596E+01 -0.22552966953E+02  0.25975557727E+02  0.51100000000E-03 0.  1.
        -12    1    3    3    0    0  0.10933975311E+02  0.82136200284E+01 -0.44301373991E+01  0.14375029998E+02  0.00000000000E+00 0.  1.
</event>
<event>
 7    1  0.6489567E-013  0.5930187E+02  0.7816164E-02  0.1266605E+00
        -11   -1    0    0    0    0  0.00000000000E+00  0.00000000000E+00  0.45593999997E+02  0.45594000000E+02  0.51100000000E-03 0.  1.
         11   -1    0    0    0    0 -0.00000000000E+00 -0.00000000000E+00 -0.45593999997E+02  0.45594000000E+02  0.51100000000E-03 0. -1.
    9900012    2    1    2    0    0 -0.10477528243E+02  0.25709003817E+02 -0.15684182414E+02  0.59301873654E+02  0.49999871655E+02 0.  0.
        -12    1    1    2    0    0  0.10477528243E+02 -0.25709003817E+02  0.15684182414E+02  0.31886126346E+02  0.00000000000E+00 0.  1.
         11    1    3    3    0    0 -0.19472339693E+02  0.40718089889E+01 -0.10110647174E+02  0.22315394419E+02  0.51100000000E-03 0. -1.
        -11    1    3    3    0    0 -0.10881810476E+01  0.10234187968E+02  0.10601528303E+02  0.14775491328E+02  0.51100000000E-03 0.  1.
         12    1    3    3    0    0  0.10082992497E+02  0.11403006861E+02 -0.16175063544E+02  0.22210987907E+02  0.00000000000E+00 0. -1.
</event>
<event>
 7    1  0.6489567E-013  0.5930195E+02  0.7816164E-02  0.1266605E+00
        -11   -1    0    0    0    0  0.00000000000E+00  0.00000000000E+00  0.45593999997E+02  0.45594000000E+02  0.51100000000E-03 0.  1.
         11   -1    0    0    0    0 -0.00000000000E+00 -0.00000000000E+00 -0.45593999997E+02  0.45594000000E+02  0.51100000000E-03 0. -1.
    9900012    2    1    2    0    0 -0.17727798927E+02  0.89495592735E+01 -0.24946963999E+02  0.59301945388E+02  0.50000002481E+02 0.  0.
        -12    1    1    2    0    0  0.17727798927E+02 -0.89495592735E+01  0.24946963999E+02  0.31886054612E+02  0.00000000000E+00 0.  1.
         11    1    3    3    0    0  0.78402688959E+01  0.42690262147E+01 -0.21203834971E+02  0.23006456027E+02  0.51100000000E-03 0. -1.
        -11    1    3    3    0    0 -0.14374811366E+01 -0.35495701067E+01 -0.94260758670E+01  0.10174316020E+02  0.51100000000E-03 0.  1.
        -12    1    3    3    0    0 -0.24130586686E+02  0.82301031654E+01  0.56829468398E+01  0.26121173341E+02  0.00000000000E+00 0.  1.
</event>
<event>
 7    1  0.6489567E-013  0.5930194E+02  0.7816164E-02  0.1266605E+00
        -11   -1    0    0    0    0  0.00000000000E+00  0.00000000000E+00  0.45593999997E+02  0.45594000000E+02  0.51100000000E-03 0.  1.
         11   -1    0    0    0    0 -0.00000000000E+00 -0.00000000000E+00 -0.45593999997E+02  0.45594000000E+02  0.51100000000E-03 0. -1.
    9900012    2    1    2    0    0  0.12175445305E+02  0.16139635059E+02 -0.24657479931E+02  0.59301943412E+02  0.49999998877E+02 0.  0.
        -12    1    1    2    0    0 -0.12175445305E+02 -0.16139635059E+02  0.24657479931E+02  0.31886056588E+02  0.00000000000E+00 0.  1.
         11    1    3    3    0    0 -0.35000655967E+01  0.24420842462E+01  0.16814634790E+01  0.45871074043E+01  0.51100000000E-03 0. -1.
        -11    1    3    3    0    0  0.67622267860E+00 -0.12089244576E+02  0.34158067477E+01  0.12580733187E+02  0.51100000000E-03 0.  1.
         12    1    3    3    0    0  0.14999288223E+02  0.25786795388E+02 -0.29754750157E+02  0.42134102821E+02  0.00000000000E+00 0. -1.
</event>
<event>
 7    1  0.6489567E-013  0.5930194E+02  0.7816164E-02  0.1266605E+00
        -11   -1    0    0    0    0  0.00000000000E+00  0.00000000000E+00  0.45593999997E+02  0.45594000000E+02  0.51100000000E-03 0.  1.
         11   -1    0    0    0    0 -0.00000000000E+00 -0.00000000000E+00 -0.45593999997E+02  0.45594000000E+02  0.51100000000E-03 0. -1.
    9900012    2    1    2    0    0  0.88313135866E+01 -0.93611816857E+01 -0.29173564725E+02  0.59301941903E+02  0.49999996125E+02 0.  0.
        -12    1    1    2    0    0 -0.88313135866E+01  0.93611816857E+01  0.29173564725E+02  0.31886058097E+02  0.00000000000E+00 0.  1.
         11    1    3    3    0    0 -0.25769199511E+01 -0.23063733522E+01 -0.17960501650E+02  0.18290420834E+02  0.51100000000E-03 0. -1.
        -11    1    3    3    0    0 -0.48752740671E+01  0.12671989497E+02 -0.62862062139E+01  0.14962085546E+02  0.51100000000E-03 0.  1.
        -12    1    3    3    0    0  0.16283507605E+02 -0.19726797831E+02 -0.49268568606E+01  0.26049435524E+02  0.00000000000E+00 0.  1.
</event>
<event>
 7    1  0.6489567E-013  0.5930193E+02  0.7816164E-02  0.1266605E+00
        -11   -1    0    0    0    0  0.00000000000E+00  0.00000000000E+00  0.45593999997E+02  0.45594000000E+02  0.51100000000E-03 0. -1.
         11   -1    0    0    0    0 -0.00000000000E+00 -0.00000000000E+00 -0.45593999997E+02  0.45594000000E+02  0.51100000000E-03 0.  1.
    9900012    2    1    2    0    0 -0.81462222345E+00  0.31451039749E+02  0.51855336242E+01  0.59301932986E+02  0.49999979862E+02 0.  0.
        -12    1    1    2    0    0  0.81462222345E+00 -0.31451039749E+02 -0.51855336242E+01  0.31886067014E+02  0.00000000000E+00 0.  1.
         11    1    3    3    0    0 -0.82076117779E+01  0.15810018259E+02  0.85495531030E+01  0.19758958145E+02  0.51100000000E-03 0.  1.
        -11    1    3    3    0    0  0.24835861502E+01 -0.10400408140E+02 -0.70207680636E+01  0.12791711148E+02  0.51100000000E-03 0. -1.
         12    1    3    3    0    0  0.49094034042E+01  0.26041429630E+02  0.36567485849E+01  0.26751263693E+02  0.00000000000E+00 0. -1.
</event>
<event>
 7    1  0.6489567E-013  0.5930193E+02  0.7816164E-02  0.1266605E+00
        -11   -1    0    0    0    0  0.00000000000E+00  0.00000000000E+00  0.45593999997E+02  0.45594000000E+02  0.51100000000E-03 0.  1.
         11   -1    0    0    0    0 -0.00000000000E+00 -0.00000000000E+00 -0.45593999997E+02  0.45594000000E+02  0.51100000000E-03 0. -1.
    9900012    2    1    2    0    0 -0.31429925265E+02 -0.31671271520E+01 -0.43417548203E+01  0.59301925744E+02  0.49999966654E+02 0.  0.
        -12    1    1    2    0    0  0.31429925265E+02  0.31671271520E+01  0.43417548203E+01  0.31886074256E+02  0.00000000000E+00 0.  1.
         11    1    3    3    0    0 -0.38125666349E+01  0.60612377067E+01  0.91081795763E+01  0.11585905331E+02  0.51100000000E-03 0. -1.
        -11    1    3    3    0    0 -0.12100607086E+02 -0.21485985208E+01  0.11936397426E+02  0.17132388952E+02  0.51100000000E-03 0.  1.
         12    1    3    3    0    0 -0.15516751545E+02 -0.70797663379E+01 -0.25386331823E+02  0.30583631460E+02  0.00000000000E+00 0. -1.
</event>
<event>
 7    1  0.6489567E-013  0.5930195E+02  0.7816164E-02  0.1266605E+00
        -11   -1    0    0    0    0  0.00000000000E+00  0.00000000000E+00  0.45593999997E+02  0.45594000000E+02  0.51100000000E-03 0. -1.
         11   -1    0    0    0    0 -0.00000000000E+00 -0.00000000000E+00 -0.45593999997E+02  0.45594000000E+02  0.51100000000E-03 0.  1.
    9900012    2    1    2    0    0  0.18095333216E+02  0.43729305388E+01  0.25887381764E+02  0.59301950695E+02  0.50000012160E+02 0.  0.
        -12    1    1    2    0    0 -0.18095333216E+02 -0.43729305388E+01 -0.25887381764E+02  0.31886049305E+02  0.00000000000E+00 0.  1.
         11    1    3    3    0    0 -0.11974498635E+02  0.43599085677E+01  0.23036245228E+02  0.26326146978E+02  0.51100000000E-03 0. -1.
        -11    1    3    3    0    0  0.33479284748E+01 -0.38531570977E+01  0.31046594903E+01  0.59744753329E+01  0.51100000000E-03 0.  1.
        -12    1    3    3    0    0  0.26721903376E+02  0.38661790688E+01 -0.25352295384E+00  0.27001328384E+02  0.00000000000E+00 0.  1.
</event>
<event>
 7    1  0.6489567E-013  0.5930196E+02  0.7816164E-02  0.1266605E+00
        -11   -1    0    0    0    0  0.00000000000E+00  0.00000000000E+00  0.45593999997E+02  0.45594000000E+02  0.51100000000E-03 0. -1.
         11   -1    0    0    0    0 -0.00000000000E+00 -0.00000000000E+00 -0.45593999997E+02  0.45594000000E+02  0.51100000000E-03 0.  1.
    9900012    2    1    2    0    0  0.20074619503E+00  0.31761343391E+02 -0.28100935912E+01  0.59301955106E+02  0.50000020203E+02 0.  0.
        -12    1    1    2    0    0 -0.20074619503E+00 -0.31761343391E+02  0.28100935912E+01  0.31886044894E+02  0.00000000000E+00 0.  1.
         11    1    3    3    0    0 -0.44429938931E+01 -0.59598777331E+01  0.25870476180E+01  0.78710325222E+01  0.51100000000E-03 0. -1.
        -11    1    3    3    0    0  0.67276911071E+01  0.18676145799E+01 -0.12967380471E+02  0.14727619237E+02  0.51100000000E-03 0.  1.
         12    1    3    3    0    0 -0.20839510190E+01  0.35853606544E+02  0.75702392618E+01  0.36703303346E+02  0.00000000000E+00 0. -1.
</event>
<event>
 7    1  0.6489567E-013  0.5930197E+02  0.7816164E-02  0.1266605E+00
        -11   -1    0    0    0    0  0.00000000000E+00  0.00000000000E+00  0.45593999997E+02  0.45594000000E+02  0.51100000000E-03 0. -1.
         11   -1    0    0    0    0 -0.00000000000E+00 -0.00000000000E+00 -0.45593999997E+02  0.45594000000E+02  0.51100000000E-03 0.  1.
    9900012    2    1    2    0    0  0.76689515768E+01 -0.12203839263E+02  0.28442436489E+02  0.59301973210E+02  0.50000053221E+02 0.  0.
        -12    1    1    2    0    0 -0.76689515768E+01  0.12203839263E+02 -0.28442436489E+02  0.31886026790E+02  0.00000000000E+00 0.  1.
         11    1    3    3    0    0 -0.39614077240E+01 -0.17763623599E+01  0.16581044490E+02  0.17139989820E+02  0.51100000000E-03 0. -1.
        -11    1    3    3    0    0 -0.49427854461E+01 -0.20192140645E+02  0.92364134536E+01  0.22747857163E+02  0.51100000000E-03 0.  1.
        -12    1    3    3    0    0  0.16573144747E+02  0.97646637411E+01  0.26249785457E+01  0.19414126227E+02  0.00000000000E+00 0.  1.
</event>
<event>
 7    1  0.6489567E-013  0.5930197E+02  0.7816164E-02  0.1266605E+00
        -11   -1    0    0    0    0  0.00000000000E+00  0.00000000000E+00  0.45593999997E+02  0.45594000000E+02  0.51100000000E-03 0.  1.
         11   -1    0    0    0    0 -0.00000000000E+00 -0.00000000000E+00 -0.45593999997E+02  0.45594000000E+02  0.51100000000E-03 0. -1.
    9900012    2    1    2    0    0  0.28853961818E+02 -0.13391831778E+02  0.21969741814E+01  0.59301969101E+02  0.50000045727E+02 0.  0.
        -12    1    1    2    0    0 -0.28853961818E+02  0.13391831778E+02 -0.21969741814E+01  0.31886030899E+02  0.00000000000E+00 0.  1.
         11    1    3    3    0    0  0.11730028364E+01  0.62904325346E+00  0.13833032274E+02  0.13896920998E+02  0.51100000000E-03 0. -1.
        -11    1    3    3    0    0  0.53664822223E+01  0.75965848917E+01  0.45709023208E+01  0.10363415544E+02  0.51100000000E-03 0.  1.
         12    1    3    3    0    0  0.22314476759E+02 -0.21617459923E+02 -0.16206960413E+02  0.35041632559E+02  0.00000000000E+00 0. -1.
</event>
<event>
 7    1  0.6489567E-013  0.5930194E+02  0.7816164E-02  0.1266605E+00
        -11   -1    0    0    0    0  0.00000000000E+00  0.00000000000E+00  0.45593999997E+02  0.45594000000E+02  0.51100000000E-03 0.  1.
         11   -1    0    0    0    0 -0.00000000000E+00 -0.00000000000E+00 -0.45593999997E+02  0.45594000000E+02  0.51100000000E-03 0. -1.
    9900012    2    1    2    0    0  0.16391160008E+02  0.11613929194E+02 -0.24762213147E+02  0.59301942268E+02  0.49999996790E+02 0.  0.
        -12    1    1    2    0    0 -0.16391160008E+02 -0.11613929194E+02  0.24762213147E+02  0.31886057732E+02  0.00000000000E+00 0.  1.
         11    1    3    3    0    0  0.11089109463E+02  0.18292477557E+01 -0.12556645988E+02  0.16851820518E+02  0.51100000000E-03 0. -1.
        -11    1    3    3    0    0  0.17456329314E+02 -0.67215248411E+01 -0.22418349189E+00  0.18707019747E+02  0.51100000000E-03 0.  1.
        -12    1    3    3    0    0 -0.12154278769E+02  0.16506206280E+02 -0.11981383668E+02  0.23743102003E+02  0.00000000000E+00 0.  1.
</event>
<event>
 7    1  0.6489567E-013  0.5930195E+02  0.7816164E-02  0.1266605E+00
        -11   -1    0    0    0    0  0.00000000000E+00  0.00000000000E+00  0.45593999997E+02  0.45594000000E+02  0.51100000000E-03 0.  1.
         11   -1    0    0    0    0 -0.00000000000E+00 -0.00000000000E+00 -0.45593999997E+02  0.45594000000E+02  0.51100000000E-03 0. -1.
    9900012    2    1    2    0    0 -0.25565446349E+02 -0.78780229360E+01 -0.17351224753E+02  0.59301948303E+02  0.50000007797E+02 0.  0.
        -12    1    1    2    0    0  0.25565446349E+02  0.78780229360E+01  0.17351224753E+02  0.31886051697E+02  0.00000000000E+00 0.  1.
         11    1    3    3    0    0 -0.19190369884E+02  0.75497120701E+01 -0.18874961062E+02  0.27955904635E+02  0.51100000000E-03 0. -1.
        -11    1    3    3    0    0 -0.15450522688E+02 -0.63135152997E+01  0.59864007667E+01  0.17731782797E+02  0.51100000000E-03 0.  1.
        -12    1    3    3    0    0  0.90754462227E+01 -0.91142197064E+01 -0.44626644581E+01  0.13614260871E+02  0.00000000000E+00 0.  1.
</event>
<event>
 7    1  0.6489567E-013  0.5930185E+02  0.7816164E-02  0.1266605E+00
        -11   -1    0    0    0    0  0.00000000000E+00  0.00000000000E+00  0.45593999997E+02  0.45594000000E+02  0.51100000000E-03 0.  1.
         11   -1    0    0    0    0 -0.00000000000E+00 -0.00000000000E+00 -0.45593999997E+02  0.45594000000E+02  0.51100000000E-03 0. -1.
    9900012    2    1    2    0    0 -0.47745570834E+01 -0.17628110393E+02 -0.26137707569E+02  0.59301852093E+02  0.49999832333E+02 0.  0.
        -12    1    1    2    0    0  0.47745570834E+01  0.17628110393E+02  0.26137707569E+02  0.31886147907E+02  0.00000000000E+00 0.  1.
         11    1    3    3    0    0 -0.11091467364E+02 -0.50635215966E+01 -0.76240576023E+01  0.14380060982E+02  0.51100000000E-03 0. -1.
        -11    1    3    3    0    0 -0.13007280916E+02  0.97092209266E+00  0.25543031858E+01  0.13291219341E+02  0.51100000000E-03 0.  1.
         12    1    3    3    0    0  0.19324191197E+02 -0.13535510890E+02 -0.21067953153E+02  0.31630571770E+02  0.00000000000E+00 0. -1.
</event>
<event>
 7    1  0.6489567E-013  0.5930194E+02  0.7816164E-02  0.1266605E+00
        -11   -1    0    0    0    0  0.00000000000E+00  0.00000000000E+00  0.45593999997E+02  0.45594000000E+02  0.51100000000E-03 0.  1.
         11   -1    0    0    0    0 -0.00000000000E+00 -0.00000000000E+00 -0.45593999997E+02  0.45594000000E+02  0.51100000000E-03 0. -1.
    9900012    2    1    2    0    0 -0.27167931463E+02  0.53351847761E+01 -0.15816460199E+02  0.59301935492E+02  0.49999984433E+02 0.  0.
        -12    1    1    2    0    0  0.27167931463E+02 -0.53351847761E+01  0.15816460199E+02  0.31886064508E+02  0.00000000000E+00 0.  1.
         11    1    3    3    0    0 -0.82922685471E+01  0.63403481176E+01 -0.43331275060E+01  0.11302111579E+02  0.51100000000E-03 0. -1.
        -11    1    3    3    0    0 -0.30057092345E+02 -0.50362774977E+01  0.13524090448E+01  0.30506096141E+02  0.51100000000E-03 0.  1.
        -12    1    3    3    0    0  0.11181429429E+02  0.40311141561E+01 -0.12835741738E+02  0.17493727772E+02  0.00000000000E+00 0.  1.
</event>
<event>
 7    1  0.6489567E-013  0.5930193E+02  0.7816164E-02  0.1266605E+00
        -11   -1    0    0    0    0  0.00000000000E+00  0.00000000000E+00  0.45593999997E+02  0.45594000000E+02  0.51100000000E-03 0. -1.
         11   -1    0    0    0    0 -0.00000000000E+00 -0.00000000000E+00 -0.45593999997E+02  0.45594000000E+02  0.51100000000E-03 0.  1.
    9900012    2    1    2    0    0 -0.14209913979E+02 -0.11074055719E+02  0.26309032054E+02  0.59301928856E+02  0.49999972331E+02 0.  0.
        -12    1    1    2    0    0  0.14209913979E+02  0.11074055719E+02 -0.26309032054E+02  0.31886071144E+02  0.00000000000E+00 0.  1.
         11    1    3    3    0    0 -0.35550417530E+01  0.11443618719E+02  0.94586426731E+00  0.12020373985E+02  0.51100000000E-03 0. -1.
        -11    1    3    3    0    0 -0.66174823310E+01 -0.27584250647E+01 -0.64306534718E+01  0.96308507191E+01  0.51100000000E-03 0.  1.
         12    1    3    3    0    0 -0.40373898954E+01 -0.19759249374E+02  0.31793821258E+02  0.37650704153E+02  0.00000000000E+00 0. -1.
</event>
<event>
 7    1  0.6489567E-013  0.5930194E+02  0.7816164E-02  0.1266605E+00
        -11   -1    0    0    0    0  0.00000000000E+00  0.00000000000E+00  0.45593999997E+02  0.45594000000E+02  0.51100000000E-03 0.  1.
         11   -1    0    0    0    0 -0.00000000000E+00 -0.00000000000E+00 -0.45593999997E+02  0.45594000000E+02  0.51100000000E-03 0. -1.
    9900012    2    1    2    0    0 -0.55599567010E+01 -0.45886837228E+01 -0.31060447078E+02  0.59301944905E+02  0.50000001600E+02 0.  0.
        -12    1    1    2    0    0  0.55599567010E+01  0.45886837228E+01  0.31060447078E+02  0.31886055095E+02  0.00000000000E+00 0.  1.
         11    1    3    3    0    0 -0.11606162181E+02  0.45789811160E+01 -0.18489016102E+01  0.12613029218E+02  0.51100000000E-03 0. -1.
        -11    1    3    3    0    0  0.12100243573E+02  0.60484240845E+01 -0.38229464703E+00  0.13533125208E+02  0.51100000000E-03 0.  1.
         12    1    3    3    0    0 -0.60540380936E+01 -0.15216088923E+02 -0.28829250821E+02  0.33155790479E+02  0.00000000000E+00 0. -1.
</event>
<event>
 7    1  0.6489567E-013  0.5930187E+02  0.7816164E-02  0.1266605E+00
        -11   -1    0    0    0    0  0.00000000000E+00  0.00000000000E+00  0.45593999997E+02  0.45594000000E+02  0.51100000000E-03 0. -1.
         11   -1    0    0    0    0 -0.00000000000E+00 -0.00000000000E+00 -0.45593999997E+02  0.45594000000E+02  0.51100000000E-03 0.  1.
    9900012    2    1    2    0    0  0.28892779864E+02 -0.12458614840E+02 -0.51686935378E+01  0.59301871278E+02  0.49999867322E+02 0.  0.
        -12    1    1    2    0    0 -0.28892779864E+02  0.12458614840E+02  0.51686935378E+01  0.31886128722E+02  0.00000000000E+00 0.  1.
         11    1    3    3    0    0  0.26098951706E+02 -0.21772868707E+02 -0.90688190515E+01  0.35177500922E+02  0.51100000000E-03 0. -1.
        -11    1    3    3    0    0  0.25486248760E+01  0.70139343382E+00 -0.85692148396E+01  0.89676577063E+01  0.51100000000E-03 0.  1.
         12    1    3    3    0    0  0.24520328231E+00  0.86128604338E+01  0.12469340353E+02  0.15156712650E+02  0.00000000000E+00 0. -1.
</event>
<event>
 7    1  0.6489567E-013  0.5930192E+02  0.7816164E-02  0.1266605E+00
        -11   -1    0    0    0    0  0.00000000000E+00  0.00000000000E+00  0.45593999997E+02  0.45594000000E+02  0.51100000000E-03 0. -1.
         11   -1    0    0    0    0 -0.00000000000E+00 -0.00000000000E+00 -0.45593999997E+02  0.45594000000E+02  0.51100000000E-03 0.  1.
    9900012    2    1    2    0    0  0.42613003448E+01 -0.15016063876E+01  0.31564351646E+02  0.59301924713E+02  0.49999964775E+02 0.  0.
        -12    1    1    2    0    0 -0.42613003448E+01  0.15016063876E+01 -0.31564351646E+02  0.31886075287E+02  0.00000000000E+00 0.  1.
         11    1    3    3    0    0 -0.12221924050E+02  0.74306528705E+01 -0.36887863990E+01  0.14771498736E+02  0.51100000000E-03 0. -1.
        -11    1    3    3    0    0  0.93315060142E+01 -0.34960352612E+01  0.21026417817E+01  0.10184319799E+02  0.51100000000E-03 0.  1.
        -12    1    3    3    0    0  0.71517183802E+01 -0.54362239969E+01  0.33150496263E+02  0.34346106178E+02  0.00000000000E+00 0.  1.
</event>
<event>
 7    1  0.6489567E-013  0.5930195E+02  0.7816164E-02  0.1266605E+00
        -11   -1    0    0    0    0  0.00000000000E+00  0.00000000000E+00  0.45593999997E+02  0.45594000000E+02  0.51100000000E-03 0.  1.
         11   -1    0    0    0    0 -0.00000000000E+00 -0.00000000000E+00 -0.45593999997E+02  0.45594000000E+02  0.51100000000E-03 0. -1.
    9900012    2    1    2    0    0 -0.15013003766E+02  0.27870463385E+02 -0.38167349455E+01  0.59301945415E+02  0.50000002530E+02 0.  0.
        -12    1    1    2    0    0  0.15013003766E+02 -0.27870463385E+02  0.38167349455E+01  0.31886054585E+02  0.00000000000E+00 0.  1.
         11    1    3    3    0    0  0.77269438448E+01  0.17461802524E+02 -0.54835901124E+01  0.19866805716E+02  0.51100000000E-03 0. -1.
        -11    1    3    3    0    0 -0.12088625482E+02  0.18477053257E+02 -0.73998808615E+01  0.23287219673E+02  0.51100000000E-03 0.  1.
         12    1    3    3    0    0 -0.10651322129E+02 -0.80683923962E+01  0.90667360284E+01  0.16147920026E+02  0.00000000000E+00 0. -1.
</event>
<event>
 7    1  0.6489567E-013  0.5930196E+02  0.7816164E-02  0.1266605E+00
        -11   -1    0    0    0    0  0.00000000000E+00  0.00000000000E+00  0.45593999997E+02  0.45594000000E+02  0.51100000000E-03 0. -1.
         11   -1    0    0    0    0 -0.00000000000E+00 -0.00000000000E+00 -0.45593999997E+02  0.45594000000E+02  0.51100000000E-03 0.  1.
    9900012    2    1    2    0    0 -0.90911823286E+01 -0.22139780352E+02  0.21068935827E+02  0.59301960311E+02  0.50000029696E+02 0.  0.
        -12    1    1    2    0    0  0.90911823286E+01  0.22139780352E+02 -0.21068935827E+02  0.31886039689E+02  0.00000000000E+00 0.  1.
         11    1    3    3    0    0  0.45712307744E+00 -0.34494080746E+01  0.14032329266E+02  0.14457304121E+02  0.51100000000E-03 0. -1.
        -11    1    3    3    0    0 -0.17854280592E+02 -0.51654813559E+01  0.17745963605E+02  0.25697796747E+02  0.51100000000E-03 0.  1.
        -12    1    3    3    0    0  0.83059751859E+01 -0.13524890922E+02 -0.10709357044E+02  0.19146859443E+02  0.00000000000E+00 0.  1.
</event>
<event>
 7    1  0.6489567E-013  0.5930189E+02  0.7816164E-02  0.1266605E+00
        -11   -1    0    0    0    0  0.00000000000E+00  0.00000000000E+00  0.45593999997E+02  0.45594000000E+02  0.51100000000E-03 0.  1.
         11   -1    0    0    0    0 -0.00000000000E+00 -0.00000000000E+00 -0.45593999997E+02  0.45594000000E+02  0.51100000000E-03 0. -1.
    9900012    2    1    2    0    0 -0.27163460338E+02 -0.12030981867E+02 -0.11581282011E+02  0.59301887110E+02  0.49999896196E+02 0.  0.
        -12    1    1    2    0    0  0.27163460338E+02  0.12030981867E+02  0.11581282011E+02  0.31886112890E+02  0.00000000000E+00 0.  1.
         11    1    3    3    0    0 -0.11406133024E+02 -0.10430856135E+02  0.12295204828E+02  0.19750308663E+02  0.51100000000E-03 0. -1.
        -11    1    3    3    0    0 -0.87209732558E+01 -0.11502235475E+02 -0.20595221212E+01  0.14580755367E+02  0.51100000000E-03 0.  1.
         12    1    3    3    0    0 -0.70363540585E+01  0.99021097431E+01 -0.21816964718E+02  0.24970823080E+02  0.00000000000E+00 0. -1.
</event>
<event>
 7    1  0.6489567E-013  0.5930201E+02  0.7816164E-02  0.1266605E+00
        -11   -1    0    0    0    0  0.00000000000E+00  0.00000000000E+00  0.45593999997E+02  0.45594000000E+02  0.51100000000E-03 0. -1.
         11   -1    0    0    0    0 -0.00000000000E+00 -0.00000000000E+00 -0.45593999997E+02  0.45594000000E+02  0.51100000000E-03 0.  1.
    9900012    2    1    2    0    0 -0.13394456229E+02  0.20286348079E+02  0.20634175244E+02  0.59302006774E+02  0.50000114433E+02 0.  0.
        -12    1    1    2    0    0  0.13394456229E+02 -0.20286348079E+02 -0.20634175244E+02  0.31885993226E+02  0.00000000000E+00 0.  1.
         11    1    3    3    0    0  0.14775027621E+02  0.11850806397E+02  0.63729663251E+01  0.19983937387E+02  0.51100000000E-03 0.  1.
        -11    1    3    3    0    0  0.24300614116E+00  0.82232834027E+01  0.32763844753E+01  0.88552886682E+01  0.51100000000E-03 0. -1.
         12    1    3    3    0    0 -0.28412489991E+02  0.21225827956E+00  0.10984824443E+02  0.30462780718E+02  0.00000000000E+00 0. -1.
</event>
<event>
 7    1  0.6489567E-013  0.5930194E+02  0.7816164E-02  0.1266605E+00
        -11   -1    0    0    0    0  0.00000000000E+00  0.00000000000E+00  0.45593999997E+02  0.45594000000E+02  0.51100000000E-03 0. -1.
         11   -1    0    0    0    0 -0.00000000000E+00 -0.00000000000E+00 -0.45593999997E+02  0.45594000000E+02  0.51100000000E-03 0.  1.
    9900012    2    1    2    0    0 -0.26539364983E+02  0.17530266866E+02  0.22521908413E+01  0.59301944840E+02  0.50000001482E+02 0.  0.
        -12    1    1    2    0    0  0.26539364983E+02 -0.17530266866E+02 -0.22521908413E+01  0.31886055160E+02  0.00000000000E+00 0.  1.
         11    1    3    3    0    0 -0.66897803886E+01  0.25827589361E+02 -0.77569389055E+01  0.27784665471E+02  0.51100000000E-03 0. -1.
        -11    1    3    3    0    0 -0.17723059141E+02  0.30484260069E+01  0.36917215054E+01  0.18358336917E+02  0.51100000000E-03 0.  1.
        -12    1    3    3    0    0 -0.21265254534E+01 -0.11345748503E+02  0.63174082414E+01  0.13158942453E+02  0.00000000000E+00 0.  1.
</event>
<event>
 7    1  0.6489567E-013  0.5930196E+02  0.7816164E-02  0.1266605E+00
        -11   -1    0    0    0    0  0.00000000000E+00  0.00000000000E+00  0.45593999997E+02  0.45594000000E+02  0.51100000000E-03 0.  1.
         11   -1    0    0    0    0 -0.00000000000E+00 -0.00000000000E+00 -0.45593999997E+02  0.45594000000E+02  0.51100000000E-03 0. -1.
    9900012    2    1    2    0    0  0.12221739030E+02 -0.23906967840E+02 -0.17198990947E+02  0.59301963781E+02  0.50000036024E+02 0.  0.
        -12    1    1    2    0    0 -0.12221739030E+02  0.23906967840E+02  0.17198990947E+02  0.31886036219E+02  0.00000000000E+00 0.  1.
         11    1    3    3    0    0  0.11139519609E+02 -0.73496988163E+01 -0.24730210864E+02  0.28101428780E+02  0.51100000000E-03 0. -1.
        -11    1    3    3    0    0  0.11601935649E+02 -0.12291483277E+01  0.34616654274E+01  0.12169586855E+02  0.51100000000E-03 0.  1.
         12    1    3    3    0    0 -0.10519716228E+02 -0.15328120696E+02  0.40695544904E+01  0.19030948146E+02  0.00000000000E+00 0. -1.
</event>
<event>
 7    1  0.6489567E-013  0.5930195E+02  0.7816164E-02  0.1266605E+00
        -11   -1    0    0    0    0  0.00000000000E+00  0.00000000000E+00  0.45593999997E+02  0.45594000000E+02  0.51100000000E-03 0.  1.
         11   -1    0    0    0    0 -0.00000000000E+00 -0.00000000000E+00 -0.45593999997E+02  0.45594000000E+02  0.51100000000E-03 0. -1.
    9900012    2    1    2    0    0  0.56341833316E+00 -0.30837350946E+02  0.80907675614E+01  0.59301950177E+02  0.50000011214E+02 0.  0.
        -12    1    1    2    0    0 -0.56341833316E+00  0.30837350946E+02 -0.80907675614E+01  0.31886049823E+02  0.00000000000E+00 0.  1.
         11    1    3    3    0    0  0.64565154780E+01  0.21089509477E+00 -0.79828546980E+01  0.10269227734E+02  0.51100000000E-03 0. -1.
        -11    1    3    3    0    0 -0.13578123678E+02 -0.15783389149E+02 -0.54765594487E+01  0.21528435133E+02  0.51100000000E-03 0.  1.
        -12    1    3    3    0    0  0.76850265329E+01 -0.15264856892E+02  0.21550181708E+02  0.27504287310E+02  0.00000000000E+00 0.  1.
</event>
<event>
 7    1  0.6489567E-013  0.5930199E+02  0.7816164E-02  0.1266605E+00
        -11   -1    0    0    0    0  0.00000000000E+00  0.00000000000E+00  0.45593999997E+02  0.45594000000E+02  0.51100000000E-03 0.  1.
         11   -1    0    0    0    0 -0.00000000000E+00 -0.00000000000E+00 -0.45593999997E+02  0.45594000000E+02  0.51100000000E-03 0. -1.
    9900012    2    1    2    0    0  0.59056424433E+01  0.23493279499E+02 -0.20734200859E+02  0.59301986145E+02  0.50000076812E+02 0.  0.
        -12    1    1    2    0    0 -0.59056424433E+01 -0.23493279499E+02  0.20734200859E+02  0.31886013855E+02  0.00000000000E+00 0.  1.
         11    1    3    3    0    0 -0.26783277929E+01 -0.86827842154E+01  0.13538536289E+01  0.91867895049E+01  0.51100000000E-03 0. -1.
        -11    1    3    3    0    0  0.10921280466E+02  0.20418535826E+01 -0.15682156591E+02  0.19219093857E+02  0.51100000000E-03 0.  1.
         12    1    3    3    0    0 -0.23373102300E+01  0.30134210132E+02 -0.64058978973E+01  0.30896102784E+02  0.00000000000E+00 0. -1.
</event>
<event>
 7    1  0.6489567E-013  0.5930194E+02  0.7816164E-02  0.1266605E+00
        -11   -1    0    0    0    0  0.00000000000E+00  0.00000000000E+00  0.45593999997E+02  0.45594000000E+02  0.51100000000E-03 0. -1.
         11   -1    0    0    0    0 -0.00000000000E+00 -0.00000000000E+00 -0.45593999997E+02  0.45594000000E+02  0.51100000000E-03 0.  1.
    9900012    2    1    2    0    0 -0.12091193257E+01 -0.23720979966E+02 -0.21273781687E+02  0.59301942744E+02  0.49999997659E+02 0.  0.
        -12    1    1    2    0    0  0.12091193257E+01  0.23720979966E+02  0.21273781687E+02  0.31886057256E+02  0.00000000000E+00 0.  1.
         11    1    3    3    0    0  0.54152267003E+00  0.52885062530E+01 -0.16055784871E+02  0.16913006039E+02  0.51100000000E-03 0. -1.
        -11    1    3    3    0    0 -0.52437940564E+01 -0.15310053339E+02 -0.17374184653E+02  0.23743576015E+02  0.51100000000E-03 0.  1.
        -12    1    3    3    0    0  0.34931520607E+01 -0.13699432880E+02  0.12156187837E+02  0.18645360691E+02  0.00000000000E+00 0.  1.
</event>
<event>
 7    1  0.6489567E-013  0.5930197E+02  0.7816164E-02  0.1266605E+00
        -11   -1    0    0    0    0  0.00000000000E+00  0.00000000000E+00  0.45593999997E+02  0.45594000000E+02  0.51100000000E-03 0.  1.
         11   -1    0    0    0    0 -0.00000000000E+00 -0.00000000000E+00 -0.45593999997E+02  0.45594000000E+02  0.51100000000E-03 0. -1.
    9900012    2    1    2    0    0  0.23517437105E+02  0.11952666508E+02 -0.17910413520E+02  0.59301968621E+02  0.50000044853E+02 0.  0.
        -12    1    1    2    0    0 -0.23517437105E+02 -0.11952666508E+02  0.17910413520E+02  0.31886031379E+02  0.00000000000E+00 0.  1.
         11    1    3    3    0    0 -0.68127150667E+01  0.20892166429E+01 -0.14650797866E+02  0.16291832038E+02  0.51100000000E-03 0. -1.
        -11    1    3    3    0    0 -0.85616832134E+00 -0.45812250944E+01  0.58256555747E+01  0.74604899769E+01  0.51100000000E-03 0.  1.
        -12    1    3    3    0    0  0.31186320493E+02  0.14444674960E+02 -0.90852712285E+01  0.35549646607E+02  0.00000000000E+00 0.  1.
</event>
<event>
 7    1  0.6489567E-013  0.5930186E+02  0.7816164E-02  0.1266605E+00
        -11   -1    0    0    0    0  0.00000000000E+00  0.00000000000E+00  0.45593999997E+02  0.45594000000E+02  0.51100000000E-03 0.  1.
         11   -1    0    0    0    0 -0.00000000000E+00 -0.00000000000E+00 -0.45593999997E+02  0.45594000000E+02  0.51100000000E-03 0. -1.
    9900012    2    1    2    0    0  0.21199405550E+01 -0.16081549299E+02 -0.27452054558E+02  0.59301863901E+02  0.49999853868E+02 0.  0.
        -12    1    1    2    0    0 -0.21199405550E+01  0.16081549299E+02  0.27452054558E+02  0.31886136099E+02  0.00000000000E+00 0.  1.
         11    1    3    3    0    0 -0.25858909739E+01  0.11582023130E+02  0.10774118016E+01  0.11915993806E+02  0.51100000000E-03 0. -1.
        -11    1    3    3    0    0  0.99559932586E+01 -0.10439225516E+02 -0.96086118934E+00  0.14457609956E+02  0.51100000000E-03 0.  1.
        -12    1    3    3    0    0 -0.52501617297E+01 -0.17224346914E+02 -0.27568605171E+02  0.32928260140E+02  0.00000000000E+00 0.  1.
</event>
<event>
 7    1  0.6489567E-013  0.5930195E+02  0.7816164E-02  0.1266605E+00
        -11   -1    0    0    0    0  0.00000000000E+00  0.00000000000E+00  0.45593999997E+02  0.45594000000E+02  0.51100000000E-03 0.  1.
         11   -1    0    0    0    0 -0.00000000000E+00 -0.00000000000E+00 -0.45593999997E+02  0.45594000000E+02  0.51100000000E-03 0. -1.
    9900012    2    1    2    0    0  0.76857133924E+01  0.19017111974E+02 -0.24413103399E+02  0.59301947316E+02  0.50000005998E+02 0.  0.
        -12    1    1    2    0    0 -0.76857133924E+01 -0.19017111974E+02  0.24413103399E+02  0.31886052684E+02  0.00000000000E+00 0.  1.
         11    1    3    3    0    0 -0.70042429319E+01  0.10936721804E+02 -0.16293188886E+02  0.20836009867E+02  0.51100000000E-03 0.  1.
        -11    1    3    3    0    0 -0.10394378031E+02 -0.12849397435E+01 -0.46754046307E+01  0.11469680620E+02  0.51100000000E-03 0. -1.
        -12    1    3    3    0    0  0.25084334356E+02  0.93653299136E+01 -0.34445098821E+01  0.26996256829E+02  0.00000000000E+00 0.  1.
</event>
<event>
 7    1  0.6489567E-013  0.5930194E+02  0.7816164E-02  0.1266605E+00
        -11   -1    0    0    0    0  0.00000000000E+00  0.00000000000E+00  0.45593999997E+02  0.45594000000E+02  0.51100000000E-03 0. -1.
         11   -1    0    0    0    0 -0.00000000000E+00 -0.00000000000E+00 -0.45593999997E+02  0.45594000000E+02  0.51100000000E-03 0.  1.
    9900012    2    1    2    0    0  0.23234404162E+02 -0.93384152835E+01  0.19740246293E+02  0.59301939402E+02  0.49999991563E+02 0.  0.
        -12    1    1    2    0    0 -0.23234404162E+02  0.93384152835E+01 -0.19740246293E+02  0.31886060598E+02  0.00000000000E+00 0.  1.
         11    1    3    3    0    0  0.14440576282E+02 -0.14938249528E+02  0.98087379916E+01  0.22975919646E+02  0.51100000000E-03 0. -1.
        -11    1    3    3    0    0  0.66543553841E+01 -0.13415128362E+02  0.83010700998E+01  0.17121737050E+02  0.51100000000E-03 0.  1.
        -12    1    3    3    0    0  0.21394724963E+01  0.19014962607E+02  0.16304382015E+01  0.19204282705E+02  0.00000000000E+00 0.  1.
</event>
<event>
 7    1  0.6489567E-013  0.5930204E+02  0.7816164E-02  0.1266604E+00
        -11   -1    0    0    0    0  0.00000000000E+00  0.00000000000E+00  0.45593999997E+02  0.45594000000E+02  0.51100000000E-03 0.  1.
         11   -1    0    0    0    0 -0.00000000000E+00 -0.00000000000E+00 -0.45593999997E+02  0.45594000000E+02  0.51100000000E-03 0. -1.
    9900012    2    1    2    0    0  0.61033841948E+01  0.37233217457E+01 -0.31074102925E+02  0.59302042338E+02  0.50000179294E+02 0.  0.
        -12    1    1    2    0    0 -0.61033841948E+01 -0.37233217457E+01  0.31074102925E+02  0.31885957662E+02  0.00000000000E+00 0.  1.
         11    1    3    3    0    0  0.95159889101E+01  0.85811344117E+01 -0.12070176240E+02  0.17603382273E+02  0.51100000000E-03 0. -1.
        -11    1    3    3    0    0 -0.11748957982E+01  0.15767687722E+02 -0.46863131468E+01  0.16491267004E+02  0.51100000000E-03 0.  1.
         12    1    3    3    0    0 -0.22377089171E+01 -0.20625500388E+02 -0.14317613538E+02  0.25207393060E+02  0.00000000000E+00 0. -1.
</event>
<event>
 7    1  0.6489567E-013  0.5930196E+02  0.7816164E-02  0.1266605E+00
        -11   -1    0    0    0    0  0.00000000000E+00  0.00000000000E+00  0.45593999997E+02  0.45594000000E+02  0.51100000000E-03 0. -1.
         11   -1    0    0    0    0 -0.00000000000E+00 -0.00000000000E+00 -0.45593999997E+02  0.45594000000E+02  0.51100000000E-03 0.  1.
    9900012    2    1    2    0    0  0.26103296965E+02 -0.18201780293E+02 -0.20081141568E+01  0.59301961665E+02  0.50000032165E+02 0.  0.
        -12    1    1    2    0    0 -0.26103296965E+02  0.18201780293E+02  0.20081141568E+01  0.31886038335E+02  0.00000000000E+00 0.  1.
         11    1    3    3    0    0  0.34185223092E+02 -0.27595261699E+02 -0.15109361343E+01  0.43959195561E+02  0.51100000000E-03 0. -1.
        -11    1    3    3    0    0 -0.30712112443E+01 -0.16866633139E+00 -0.29612812569E+01  0.42696573378E+01  0.51100000000E-03 0.  1.
        -12    1    3    3    0    0 -0.50107148830E+01  0.95621477376E+01  0.24641032344E+01  0.11073108766E+02  0.00000000000E+00 0.  1.
</event>
<event>
 7    1  0.6489567E-013  0.5930197E+02  0.7816164E-02  0.1266605E+00
        -11   -1    0    0    0    0  0.00000000000E+00  0.00000000000E+00  0.45593999997E+02  0.45594000000E+02  0.51100000000E-03 0.  1.
         11   -1    0    0    0    0 -0.00000000000E+00 -0.00000000000E+00 -0.45593999997E+02  0.45594000000E+02  0.51100000000E-03 0. -1.
    9900012    2    1    2    0    0 -0.47507225118E+01  0.31499611778E+02 -0.13871473991E+01  0.59301967251E+02  0.50000042354E+02 0.  0.
        -12    1    1    2    0    0  0.47507225118E+01 -0.31499611778E+02  0.13871473991E+01  0.31886032749E+02  0.00000000000E+00 0.  1.
         11    1    3    3    0    0 -0.12347128719E+02  0.56481051277E+01  0.10288856912E+02  0.17035646626E+02  0.51100000000E-03 0. -1.
        -11    1    3    3    0    0  0.45217949373E+01 -0.65964409596E+01 -0.16508963554E+01  0.81660958741E+01  0.51100000000E-03 0.  1.
         12    1    3    3    0    0  0.30746112704E+01  0.32447947610E+02 -0.10025107955E+02  0.34100224751E+02  0.00000000000E+00 0. -1.
</event>
<event>
 7    1  0.6489567E-013  0.5930209E+02  0.7816164E-02  0.1266604E+00
        -11   -1    0    0    0    0  0.00000000000E+00  0.00000000000E+00  0.45593999997E+02  0.45594000000E+02  0.51100000000E-03 0.  1.
         11   -1    0    0    0    0 -0.00000000000E+00 -0.00000000000E+00 -0.45593999997E+02  0.45594000000E+02  0.51100000000E-03 0. -1.
    9900012    2    1    2    0    0 -0.23227877337E+02  0.93065524835E+01 -0.19762724460E+02  0.59302086452E+02  0.50000259748E+02 0.  0.
        -12    1    1    2    0    0  0.23227877337E+02 -0.93065524835E+01  0.19762724460E+02  0.31885913548E+02  0.00000000000E+00 0.  1.
         11    1    3    3    0    0 -0.19436859175E+02 -0.38959454699E+01 -0.39325027889E+01  0.20209761606E+02  0.51100000000E-03 0. -1.
        -11    1    3    3    0    0 -0.23538230117E+01 -0.90674349362E+01 -0.13806257439E+02  0.16684471937E+02  0.51100000000E-03 0.  1.
        -12    1    3    3    0    0 -0.14371951496E+01  0.22269932890E+02 -0.20239642321E+01  0.22407852910E+02  0.00000000000E+00 0.  1.
</event>
<event>
 7    1  0.6489567E-013  0.5930196E+02  0.7816164E-02  0.1266605E+00
        -11   -1    0    0    0    0  0.00000000000E+00  0.00000000000E+00  0.45593999997E+02  0.45594000000E+02  0.51100000000E-03 0.  1.
         11   -1    0    0    0    0 -0.00000000000E+00 -0.00000000000E+00 -0.45593999997E+02  0.45594000000E+02  0.51100000000E-03 0. -1.
    9900012    2    1    2    0    0  0.45359320716E+01 -0.12006706455E+02 -0.29188763397E+02  0.59301959351E+02  0.50000027945E+02 0.  0.
        -12    1    1    2    0    0 -0.45359320716E+01  0.12006706455E+02  0.29188763397E+02  0.31886040649E+02  0.00000000000E+00 0.  1.
         11    1    3    3    0    0 -0.55695532476E+01 -0.48736114864E+01 -0.12582173405E+02  0.14597366206E+02  0.51100000000E-03 0. -1.
        -11    1    3    3    0    0  0.12133464568E+02  0.80776522642E+01 -0.23680619178E+02  0.27807214054E+02  0.51100000000E-03 0.  1.
        -12    1    3    3    0    0 -0.20279792490E+01 -0.15210747233E+02  0.70740291860E+01  0.16897379091E+02  0.00000000000E+00 0.  1.
</event>
<event>
 7    1  0.6489567E-013  0.5930195E+02  0.7816164E-02  0.1266605E+00
        -11   -1    0    0    0    0  0.00000000000E+00  0.00000000000E+00  0.45593999997E+02  0.45594000000E+02  0.51100000000E-03 0.  1.
         11   -1    0    0    0    0 -0.00000000000E+00 -0.00000000000E+00 -0.45593999997E+02  0.45594000000E+02  0.51100000000E-03 0. -1.
    9900012    2    1    2    0    0 -0.55422875455E+00 -0.30049366372E+01 -0.31739305200E+02  0.59301948060E+02  0.50000007355E+02 0.  0.
        -12    1    1    2    0    0  0.55422875455E+00  0.30049366372E+01  0.31739305200E+02  0.31886051940E+02  0.00000000000E+00 0.  1.
         11    1    3    3    0    0 -0.16007384872E+02  0.13311274418E+01 -0.16015660979E+02  0.22682805549E+02  0.51100000000E-03 0.  1.
        -11    1    3    3    0    0 -0.23845491891E+01  0.67410141699E+00  0.69264253693E+01  0.73563480215E+01  0.51100000000E-03 0. -1.
         12    1    3    3    0    0  0.17837705307E+02 -0.50101654960E+01 -0.22650069590E+02  0.29262794490E+02  0.00000000000E+00 0. -1.
</event>
<event>
 7    1  0.6489567E-013  0.5930205E+02  0.7816164E-02  0.1266604E+00
        -11   -1    0    0    0    0  0.00000000000E+00  0.00000000000E+00  0.45593999997E+02  0.45594000000E+02  0.51100000000E-03 0. -1.
         11   -1    0    0    0    0 -0.00000000000E+00 -0.00000000000E+00 -0.45593999997E+02  0.45594000000E+02  0.51100000000E-03 0.  1.
    9900012    2    1    2    0    0  0.11542185848E+02  0.25236445045E+01  0.29616263991E+02  0.59302048101E+02  0.50000189804E+02 0.  0.
        -12    1    1    2    0    0 -0.11542185848E+02 -0.25236445045E+01 -0.29616263991E+02  0.31885951899E+02  0.00000000000E+00 0.  1.
         11    1    3    3    0    0 -0.73101320640E+00  0.11605370585E+02  0.10189032787E+02  0.15460769584E+02  0.51100000000E-03 0. -1.
        -11    1    3    3    0    0 -0.17948090481E+01  0.36033729023E+01 -0.88977208928E+01  0.97660162369E+01  0.51100000000E-03 0.  1.
         12    1    3    3    0    0  0.14068008103E+02 -0.12685098983E+02  0.28324952096E+02  0.34075262280E+02  0.00000000000E+00 0. -1.
</event>
<event>
 7    1  0.6489567E-013  0.5930192E+02  0.7816164E-02  0.1266605E+00
        -11   -1    0    0    0    0  0.00000000000E+00  0.00000000000E+00  0.45593999997E+02  0.45594000000E+02  0.51100000000E-03 0.  1.
         11   -1    0    0    0    0 -0.00000000000E+00 -0.00000000000E+00 -0.45593999997E+02  0.45594000000E+02  0.51100000000E-03 0. -1.
    9900012    2    1    2    0    0 -0.27110845992E+02 -0.55157481233E+01 -0.15852459882E+02  0.59301922598E+02  0.49999960918E+02 0.  0.
        -12    1    1    2    0    0  0.27110845992E+02  0.55157481233E+01  0.15852459882E+02  0.31886077402E+02  0.00000000000E+00 0.  1.
         11    1    3    3    0    0 -0.15965453558E+01  0.14575397463E+02 -0.26582089758E+01  0.14901585268E+02  0.51100000000E-03 0. -1.
        -11    1    3    3    0    0 -0.15924086583E+02 -0.42808171536E+01  0.61877978167E+01  0.17612233564E+02  0.51100000000E-03 0.  1.
         12    1    3    3    0    0 -0.95902140531E+01 -0.15810328433E+02 -0.19382048723E+02  0.26788103767E+02  0.00000000000E+00 0. -1.
</event>
<event>
 7    1  0.6489567E-013  0.5930190E+02  0.7816164E-02  0.1266605E+00
        -11   -1    0    0    0    0  0.00000000000E+00  0.00000000000E+00  0.45593999997E+02  0.45594000000E+02  0.51100000000E-03 0.  1.
         11   -1    0    0    0    0 -0.00000000000E+00 -0.00000000000E+00 -0.45593999997E+02  0.45594000000E+02  0.51100000000E-03 0. -1.
    9900012    2    1    2    0    0 -0.26503252492E+02 -0.46188651817E+01 -0.17116275223E+02  0.59301902940E+02  0.49999925065E+02 0.  0.
        -12    1    1    2    0    0  0.26503252492E+02  0.46188651817E+01  0.17116275223E+02  0.31886097060E+02  0.00000000000E+00 0.  1.
         11    1    3    3    0    0 -0.20407828173E+02  0.78376318542E-01 -0.11021860177E+01  0.20437720222E+02  0.51100000000E-03 0. -1.
        -11    1    3    3    0    0 -0.13070437711E+01 -0.68973245837E+00  0.11019849619E+02  0.11118506202E+02  0.51100000000E-03 0.  1.
        -12    1    3    3    0    0 -0.47883805478E+01 -0.40075090419E+01 -0.27033938824E+02  0.27745676516E+02  0.00000000000E+00 0.  1.
</event>
<event>
 7    1  0.6489567E-013  0.5930195E+02  0.7816164E-02  0.1266605E+00
        -11   -1    0    0    0    0  0.00000000000E+00  0.00000000000E+00  0.45593999997E+02  0.45594000000E+02  0.51100000000E-03 0.  1.
         11   -1    0    0    0    0 -0.00000000000E+00 -0.00000000000E+00 -0.45593999997E+02  0.45594000000E+02  0.51100000000E-03 0. -1.
    9900012    2    1    2    0    0 -0.15912784887E+02 -0.20574335684E+02 -0.18444511460E+02  0.59301952664E+02  0.50000015751E+02 0.  0.
        -12    1    1    2    0    0  0.15912784887E+02  0.20574335684E+02  0.18444511460E+02  0.31886047336E+02  0.00000000000E+00 0.  1.
         11    1    3    3    0    0  0.79976134626E+00 -0.26225511765E+02 -0.10115143823E+02  0.28119979025E+02  0.51100000000E-03 0. -1.
        -11    1    3    3    0    0 -0.47604750158E+01 -0.60145660886E+01 -0.11847570025E+02  0.14113895400E+02  0.51100000000E-03 0.  1.
        -12    1    3    3    0    0 -0.11952071217E+02  0.11665742170E+02  0.35182023875E+01  0.17068078239E+02  0.00000000000E+00 0.  1.
</event>
<event>
 7    1  0.6489567E-013  0.5930193E+02  0.7816164E-02  0.1266605E+00
        -11   -1    0    0    0    0  0.00000000000E+00  0.00000000000E+00  0.45593999997E+02  0.45594000000E+02  0.51100000000E-03 0. -1.
         11   -1    0    0    0    0 -0.00000000000E+00 -0.00000000000E+00 -0.45593999997E+02  0.45594000000E+02  0.51100000000E-03 0.  1.
    9900012    2    1    2    0    0 -0.27775651602E+02 -0.13903745986E+02  0.72055852399E+01  0.59301930424E+02  0.49999975190E+02 0.  0.
        -12    1    1    2    0    0  0.27775651602E+02  0.13903745986E+02 -0.72055852399E+01  0.31886069576E+02  0.00000000000E+00 0.  1.
         11    1    3    3    0    0 -0.11911860994E+02 -0.21126646229E+02 -0.11724437244E+02  0.26938634750E+02  0.51100000000E-03 0. -1.
        -11    1    3    3    0    0  0.71735058944E+00 -0.53666380732E+01  0.34543337846E+01  0.64224464368E+01  0.51100000000E-03 0.  1.
         12    1    3    3    0    0 -0.16581141198E+02  0.12589538316E+02  0.15475688699E+02  0.25940849237E+02  0.00000000000E+00 0. -1.
</event>
<event>
 7    1  0.6489567E-013  0.5930194E+02  0.7816164E-02  0.1266605E+00
        -11   -1    0    0    0    0  0.00000000000E+00  0.00000000000E+00  0.45593999997E+02  0.45594000000E+02  0.51100000000E-03 0.  1.
         11   -1    0    0    0    0 -0.00000000000E+00 -0.00000000000E+00 -0.45593999997E+02  0.45594000000E+02  0.51100000000E-03 0. -1.
    9900012    2    1    2    0    0  0.30777690934E+01 -0.15020737201E+02 -0.27957569370E+02  0.59301938881E+02  0.49999990613E+02 0.  0.
        -12    1    1    2    0    0 -0.30777690934E+01  0.15020737201E+02  0.27957569370E+02  0.31886061119E+02  0.00000000000E+00 0.  1.
         11    1    3    3    0    0 -0.99975691496E+01 -0.44719503416E+01 -0.20572652708E+02  0.23306303192E+02  0.51100000000E-03 0. -1.
        -11    1    3    3    0    0 -0.87194401793E+01 -0.97562230164E+01 -0.38447413082E+00  0.13090467723E+02  0.51100000000E-03 0.  1.
        -12    1    3    3    0    0  0.21794778422E+02 -0.79256384271E+00 -0.70004425305E+01  0.22905167966E+02  0.00000000000E+00 0.  1.
</event>
<event>
 7    1  0.6489567E-013  0.5930194E+02  0.7816164E-02  0.1266605E+00
        -11   -1    0    0    0    0  0.00000000000E+00  0.00000000000E+00  0.45593999997E+02  0.45594000000E+02  0.51100000000E-03 0.  1.
         11   -1    0    0    0    0 -0.00000000000E+00 -0.00000000000E+00 -0.45593999997E+02  0.45594000000E+02  0.51100000000E-03 0. -1.
    9900012    2    1    2    0    0  0.18868276399E+02 -0.11866719065E-01 -0.25704258020E+02  0.59301939167E+02  0.49999991135E+02 0.  0.
        -12    1    1    2    0    0 -0.18868276399E+02  0.11866719065E-01  0.25704258020E+02  0.31886060833E+02  0.00000000000E+00 0.  1.
         11    1    3    3    0    0  0.17871354311E+01 -0.94778387339E+00  0.42974292467E+01  0.47497416468E+01  0.51100000000E-03 0. -1.
        -11    1    3    3    0    0  0.66159505813E+01  0.13884024341E+02  0.46845862535E+01  0.16077384197E+02  0.51100000000E-03 0.  1.
         12    1    3    3    0    0  0.10465190387E+02 -0.12948107187E+02 -0.34686273520E+02  0.38474813323E+02  0.00000000000E+00 0. -1.
</event>
<event>
 7    1  0.6489567E-013  0.5930193E+02  0.7816164E-02  0.1266605E+00
        -11   -1    0    0    0    0  0.00000000000E+00  0.00000000000E+00  0.45593999997E+02  0.45594000000E+02  0.51100000000E-03 0. -1.
         11   -1    0    0    0    0 -0.00000000000E+00 -0.00000000000E+00 -0.45593999997E+02  0.45594000000E+02  0.51100000000E-03 0.  1.
    9900012    2    1    2    0    0 -0.18243082315E+02  0.17464964498E+02  0.19465011667E+02  0.59301925979E+02  0.49999967084E+02 0.  0.
        -12    1    1    2    0    0  0.18243082315E+02 -0.17464964498E+02 -0.19465011667E+02  0.31886074021E+02  0.00000000000E+00 0.  1.
         11    1    3    3    0    0 -0.18041815480E+02  0.18182725843E+01  0.86118445163E+01  0.20074289209E+02  0.51100000000E-03 0. -1.
        -11    1    3    3    0    0 -0.81473328418E+01  0.20221169511E+02  0.17456480220E+02  0.27928541508E+02  0.51100000000E-03 0.  1.
        -12    1    3    3    0    0  0.79460660066E+01 -0.45744775970E+01 -0.66033130692E+01  0.11299095263E+02  0.00000000000E+00 0.  1.
</event>
<event>
 7    1  0.6489567E-013  0.5930194E+02  0.7816164E-02  0.1266605E+00
        -11   -1    0    0    0    0  0.00000000000E+00  0.00000000000E+00  0.45593999997E+02  0.45594000000E+02  0.51100000000E-03 0.  1.
         11   -1    0    0    0    0 -0.00000000000E+00 -0.00000000000E+00 -0.45593999997E+02  0.45594000000E+02  0.51100000000E-03 0. -1.
    9900012    2    1    2    0    0  0.23620302177E+01 -0.10719235642E+02 -0.29937256266E+02  0.59301944863E+02  0.50000001523E+02 0.  0.
        -12    1    1    2    0    0 -0.23620302177E+01  0.10719235642E+02  0.29937256266E+02  0.31886055137E+02  0.00000000000E+00 0.  1.
         11    1    3    3    0    0 -0.11234965690E+02 -0.23217850315E+02 -0.22575068990E+02  0.34277204779E+02  0.51100000000E-03 0. -1.
        -11    1    3    3    0    0 -0.12370025201E+01  0.84508551712E+01 -0.26135603100E+01  0.89318433772E+01  0.51100000000E-03 0.  1.
        -12    1    3    3    0    0  0.14833998428E+02  0.40477595012E+01 -0.47486269660E+01  0.16092896707E+02  0.00000000000E+00 0.  1.
</event>
<event>
 7    1  0.6489567E-013  0.5930195E+02  0.7816164E-02  0.1266605E+00
        -11   -1    0    0    0    0  0.00000000000E+00  0.00000000000E+00  0.45593999997E+02  0.45594000000E+02  0.51100000000E-03 0. -1.
         11   -1    0    0    0    0 -0.00000000000E+00 -0.00000000000E+00 -0.45593999997E+02  0.45594000000E+02  0.51100000000E-03 0.  1.
    9900012    2    1    2    0    0  0.21331251831E+01 -0.18453460348E+02  0.25916015895E+02  0.59301948164E+02  0.50000007543E+02 0.  0.
        -12    1    1    2    0    0 -0.21331251831E+01  0.18453460348E+02 -0.25916015895E+02  0.31886051836E+02  0.00000000000E+00 0.  1.
         11    1    3    3    0    0  0.12249767931E+02 -0.87956960970E+01 -0.39458521435E+01  0.15588163253E+02  0.51100000000E-03 0. -1.
        -11    1    3    3    0    0  0.89147431537E+01 -0.30768517779E+01  0.18057497992E+02  0.20371865314E+02  0.51100000000E-03 0.  1.
         12    1    3    3    0    0 -0.19031385901E+02 -0.65809124730E+01  0.11804370046E+02  0.23341919597E+02  0.00000000000E+00 0. -1.
</event>
<event>
 7    1  0.6489567E-013  0.5930190E+02  0.7816164E-02  0.1266605E+00
        -11   -1    0    0    0    0  0.00000000000E+00  0.00000000000E+00  0.45593999997E+02  0.45594000000E+02  0.51100000000E-03 0.  1.
         11   -1    0    0    0    0 -0.00000000000E+00 -0.00000000000E+00 -0.45593999997E+02  0.45594000000E+02  0.51100000000E-03 0. -1.
    9900012    2    1    2    0    0 -0.30046159994E+02  0.25907664865E+01 -0.10355645006E+02  0.59301902953E+02  0.49999925090E+02 0.  0.
        -12    1    1    2    0    0  0.30046159994E+02 -0.25907664865E+01  0.10355645006E+02  0.31886097047E+02  0.00000000000E+00 0.  1.
         11    1    3    3    0    0 -0.74843558886E+01  0.11180810975E+02 -0.29529642345E+01  0.13774836303E+02  0.51100000000E-03 0. -1.
        -11    1    3    3    0    0 -0.29408321646E+02  0.40340103247E+01 -0.73307096231E+00  0.29692760307E+02  0.51100000000E-03 0.  1.
        -12    1    3    3    0    0  0.68465175408E+01 -0.12624054814E+02 -0.66696098090E+01  0.15834306343E+02  0.00000000000E+00 0.  1.
</event>
<event>
 7    1  0.6489567E-013  0.5930200E+02  0.7816164E-02  0.1266605E+00
        -11   -1    0    0    0    0  0.00000000000E+00  0.00000000000E+00  0.45593999997E+02  0.45594000000E+02  0.51100000000E-03 0. -1.
         11   -1    0    0    0    0 -0.00000000000E+00 -0.00000000000E+00 -0.45593999997E+02  0.45594000000E+02  0.51100000000E-03 0.  1.
    9900012    2    1    2    0    0  0.30304955430E+02  0.96529102060E+01  0.22689723256E+01  0.59301996260E+02  0.50000095260E+02 0.  0.
        -12    1    1    2    0    0 -0.30304955430E+02 -0.96529102060E+01 -0.22689723256E+01  0.31886003740E+02  0.00000000000E+00 0.  1.
         11    1    3    3    0    0  0.99382027137E+01  0.16965412239E+02  0.10689590318E+02  0.22379911238E+02  0.51100000000E-03 0. -1.
        -11    1    3    3    0    0 -0.65330841587E+01  0.25891002242E+01  0.66390236132E-01  0.70277333843E+01  0.51100000000E-03 0.  1.
        -12    1    3    3    0    0  0.26899836875E+02 -0.99016022569E+01 -0.84870082289E+01  0.29894351638E+02  0.00000000000E+00 0.  1.
</event>
<event>
 7    1  0.6489567E-013  0.5930215E+02  0.7816164E-02  0.1266604E+00
        -11   -1    0    0    0    0  0.00000000000E+00  0.00000000000E+00  0.45593999997E+02  0.45594000000E+02  0.51100000000E-03 0. -1.
         11   -1    0    0    0    0 -0.00000000000E+00 -0.00000000000E+00 -0.45593999997E+02  0.45594000000E+02  0.51100000000E-03 0.  1.
    9900012    2    1    2    0    0 -0.10279073768E+02  0.17058000456E+02  0.24901252854E+02  0.59302154696E+02  0.50000384207E+02 0.  0.
        -12    1    1    2    0    0  0.10279073768E+02 -0.17058000456E+02 -0.24901252854E+02  0.31885845304E+02  0.00000000000E+00 0.  1.
         11    1    3    3    0    0  0.25447628944E+01  0.21162378002E+02  0.23332414835E+02  0.31602589185E+02  0.51100000000E-03 0. -1.
        -11    1    3    3    0    0  0.23556630491E+01  0.31858690954E+01 -0.75670074615E+01  0.85415755266E+01  0.51100000000E-03 0.  1.
        -12    1    3    3    0    0 -0.15179499711E+02 -0.72902466422E+01  0.91358454803E+01  0.19157989984E+02  0.00000000000E+00 0.  1.
</event>
<event>
 7    1  0.6489567E-013  0.5930195E+02  0.7816164E-02  0.1266605E+00
        -11   -1    0    0    0    0  0.00000000000E+00  0.00000000000E+00  0.45593999997E+02  0.45594000000E+02  0.51100000000E-03 0. -1.
         11   -1    0    0    0    0 -0.00000000000E+00 -0.00000000000E+00 -0.45593999997E+02  0.45594000000E+02  0.51100000000E-03 0.  1.
    9900012    2    1    2    0    0 -0.76189528130E+01 -0.30891299335E+02 -0.20974420937E+01  0.59301951641E+02  0.50000013886E+02 0.  0.
        -12    1    1    2    0    0  0.76189528130E+01  0.30891299335E+02  0.20974420937E+01  0.31886048359E+02  0.00000000000E+00 0.  1.
         11    1    3    3    0    0 -0.12462043458E+02  0.46059069705E+01 -0.53214386462E+00  0.13296619252E+02  0.51100000000E-03 0. -1.
        -11    1    3    3    0    0 -0.47654068367E+01 -0.18241602061E+02 -0.13262245717E+02  0.23051080447E+02  0.51100000000E-03 0.  1.
         12    1    3    3    0    0  0.96084974817E+01 -0.17255604245E+02  0.11696947488E+02  0.22954251942E+02  0.00000000000E+00 0. -1.
</event>
<event>
 7    1  0.6489567E-013  0.5930194E+02  0.7816164E-02  0.1266605E+00
        -11   -1    0    0    0    0  0.00000000000E+00  0.00000000000E+00  0.45593999997E+02  0.45594000000E+02  0.51100000000E-03 0. -1.
         11   -1    0    0    0    0 -0.00000000000E+00 -0.00000000000E+00 -0.45593999997E+02  0.45594000000E+02  0.51100000000E-03 0.  1.
    9900012    2    1    2    0    0  0.40603578401E+00 -0.29803463986E+02 -0.11327366180E+02  0.59301944189E+02  0.50000000295E+02 0.  0.
        -12    1    1    2    0    0 -0.40603578401E+00  0.29803463986E+02  0.11327366180E+02  0.31886055811E+02  0.00000000000E+00 0.  1.
         11    1    3    3    0    0  0.43244455647E+01 -0.14364661610E+00  0.10939854605E+00  0.43282134993E+01  0.51100000000E-03 0. -1.
        -11    1    3    3    0    0  0.62659797520E+00 -0.17044964908E+01  0.15667094055E+02  0.15771993206E+02  0.51100000000E-03 0.  1.
        -12    1    3    3    0    0 -0.45450077559E+01 -0.27955320879E+02 -0.27103858781E+02  0.39201737484E+02  0.00000000000E+00 0.  1.
</event>
<event>
 7    1  0.6489567E-013  0.5930204E+02  0.7816164E-02  0.1266604E+00
        -11   -1    0    0    0    0  0.00000000000E+00  0.00000000000E+00  0.45593999997E+02  0.45594000000E+02  0.51100000000E-03 0. -1.
         11   -1    0    0    0    0 -0.00000000000E+00 -0.00000000000E+00 -0.45593999997E+02  0.45594000000E+02  0.51100000000E-03 0.  1.
    9900012    2    1    2    0    0 -0.29034518024E+02 -0.45750210207E+01  0.12360425411E+02  0.59302044305E+02  0.50000182882E+02 0.  0.
        -12    1    1    2    0    0  0.29034518024E+02  0.45750210207E+01 -0.12360425411E+02  0.31885955695E+02  0.00000000000E+00 0.  1.
         11    1    3    3    0    0 -0.74010359700E+01 -0.83700360892E+01 -0.52132365590E+00  0.11185017487E+02  0.51100000000E-03 0. -1.
        -11    1    3    3    0    0 -0.79046211964E+01 -0.33288866158E+01 -0.14397116709E+02  0.16758326054E+02  0.51100000000E-03 0.  1.
        -12    1    3    3    0    0 -0.13728860857E+02  0.71239016843E+01  0.27278865775E+02  0.31358700764E+02  0.00000000000E+00 0.  1.
</event>
<event>
 7    1  0.6489567E-013  0.5930198E+02  0.7816164E-02  0.1266605E+00
        -11   -1    0    0    0    0  0.00000000000E+00  0.00000000000E+00  0.45593999997E+02  0.45594000000E+02  0.51100000000E-03 0.  1.
         11   -1    0    0    0    0 -0.00000000000E+00 -0.00000000000E+00 -0.45593999997E+02  0.45594000000E+02  0.51100000000E-03 0. -1.
    9900012    2    1    2    0    0 -0.56066663582E+01  0.29515141794E+02  0.10683633491E+02  0.59301979123E+02  0.50000064005E+02 0.  0.
        -12    1    1    2    0    0  0.56066663582E+01 -0.29515141794E+02 -0.10683633491E+02  0.31886020877E+02  0.00000000000E+00 0.  1.
         11    1    3    3    0    0 -0.15764703729E+02  0.17822071602E+02  0.12447772616E+02  0.26853289616E+02  0.51100000000E-03 0. -1.
        -11    1    3    3    0    0 -0.54699055358E+01  0.84222276033E+01 -0.10264694149E+02  0.14360283097E+02  0.51100000000E-03 0.  1.
        -12    1    3    3    0    0  0.15627942907E+02  0.32708425896E+01  0.85005550239E+01  0.18088406410E+02  0.00000000000E+00 0.  1.
</event>
<event>
 7    1  0.6489567E-013  0.5930195E+02  0.7816164E-02  0.1266605E+00
        -11   -1    0    0    0    0  0.00000000000E+00  0.00000000000E+00  0.45593999997E+02  0.45594000000E+02  0.51100000000E-03 0.  1.
         11   -1    0    0    0    0 -0.00000000000E+00 -0.00000000000E+00 -0.45593999997E+02  0.45594000000E+02  0.51100000000E-03 0. -1.
    9900012    2    1    2    0    0 -0.24606466972E+01 -0.29255208764E+02 -0.12441801074E+02  0.59301946059E+02  0.50000003704E+02 0.  0.
        -12    1    1    2    0    0  0.24606466972E+01  0.29255208764E+02  0.12441801074E+02  0.31886053941E+02  0.00000000000E+00 0.  1.
         11    1    3    3    0    0 -0.94417361094E+01  0.36331301081E+01 -0.28063254348E+01  0.10498641714E+02  0.51100000000E-03 0. -1.
        -11    1    3    3    0    0 -0.12264402143E+02 -0.12476938877E+02  0.34750455971E+01  0.17837194449E+02  0.51100000000E-03 0.  1.
         12    1    3    3    0    0  0.19245491555E+02 -0.20411399995E+02 -0.13110521236E+02  0.30966109895E+02  0.00000000000E+00 0. -1.
</event>
<event>
 7    1  0.6489567E-013  0.5930171E+02  0.7816164E-02  0.1266606E+00
        -11   -1    0    0    0    0  0.00000000000E+00  0.00000000000E+00  0.45593999997E+02  0.45594000000E+02  0.51100000000E-03 0.  1.
         11   -1    0    0    0    0 -0.00000000000E+00 -0.00000000000E+00 -0.45593999997E+02  0.45594000000E+02  0.51100000000E-03 0. -1.
    9900012    2    1    2    0    0 -0.39022721577E+01 -0.22933338746E+02 -0.21807567324E+02  0.59301705976E+02  0.49999565848E+02 0.  0.
        -12    1    1    2    0    0  0.39022721577E+01  0.22933338746E+02  0.21807567324E+02  0.31886294024E+02  0.00000000000E+00 0.  1.
         11    1    3    3    0    0  0.43727676837E+01 -0.18622983677E+02 -0.27766349667E+02  0.33718048465E+02  0.51100000000E-03 0. -1.
        -11    1    3    3    0    0  0.84902968672E+00 -0.11224677033E+02 -0.22722492590E+01  0.11483786085E+02  0.51100000000E-03 0.  1.
        -12    1    3    3    0    0 -0.91240695282E+01  0.69143219638E+01  0.82310316018E+01  0.14099871425E+02  0.00000000000E+00 0.  1.
</event>
<event>
 7    1  0.6489567E-013  0.5930198E+02  0.7816164E-02  0.1266605E+00
        -11   -1    0    0    0    0  0.00000000000E+00  0.00000000000E+00  0.45593999997E+02  0.45594000000E+02  0.51100000000E-03 0. -1.
         11   -1    0    0    0    0 -0.00000000000E+00 -0.00000000000E+00 -0.45593999997E+02  0.45594000000E+02  0.51100000000E-03 0.  1.
    9900012    2    1    2    0    0  0.72181391304E+01 -0.30744647658E+01  0.30905731965E+02  0.59301982149E+02  0.50000069525E+02 0.  0.
        -12    1    1    2    0    0 -0.72181391304E+01  0.30744647658E+01 -0.30905731965E+02  0.31886017851E+02  0.00000000000E+00 0.  1.
         11    1    3    3    0    0  0.45127258377E+01 -0.59799071641E+01  0.15173998712E+02  0.16922594994E+02  0.51100000000E-03 0. -1.
        -11    1    3    3    0    0 -0.11653626241E+02 -0.13310866906E+02  0.70703738077E+01  0.19051938704E+02  0.51100000000E-03 0.  1.
         12    1    3    3    0    0  0.14359039534E+02  0.16216309304E+02  0.86613594451E+01  0.23327448451E+02  0.00000000000E+00 0. -1.
</event>
<event>
 7    1  0.6489567E-013  0.5930197E+02  0.7816164E-02  0.1266605E+00
        -11   -1    0    0    0    0  0.00000000000E+00  0.00000000000E+00  0.45593999997E+02  0.45594000000E+02  0.51100000000E-03 0.  1.
         11   -1    0    0    0    0 -0.00000000000E+00 -0.00000000000E+00 -0.45593999997E+02  0.45594000000E+02  0.51100000000E-03 0. -1.
    9900012    2    1    2    0    0  0.21286060991E+02  0.11764285043E+02 -0.20620964185E+02  0.59301969219E+02  0.50000045942E+02 0.  0.
        -12    1    1    2    0    0 -0.21286060991E+02 -0.11764285043E+02  0.20620964185E+02  0.31886030781E+02  0.00000000000E+00 0.  1.
         11    1    3    3    0    0  0.28744252533E+01 -0.22313661162E+01  0.27912225032E+01  0.45860918661E+01  0.51100000000E-03 0. -1.
        -11    1    3    3    0    0  0.63737796206E+01  0.21541609394E+01  0.12967172403E+02  0.14608663059E+02  0.51100000000E-03 0.  1.
         12    1    3    3    0    0  0.12037856117E+02  0.11841490220E+02 -0.36379359091E+02  0.40107214293E+02  0.00000000000E+00 0. -1.
</event>
<event>
 7    1  0.6489567E-013  0.5930175E+02  0.7816164E-02  0.1266605E+00
        -11   -1    0    0    0    0  0.00000000000E+00  0.00000000000E+00  0.45593999997E+02  0.45594000000E+02  0.51100000000E-03 0.  1.
         11   -1    0    0    0    0 -0.00000000000E+00 -0.00000000000E+00 -0.45593999997E+02  0.45594000000E+02  0.51100000000E-03 0. -1.
    9900012    2    1    2    0    0  0.10795359800E+02 -0.73670886253E+01 -0.29084689791E+02  0.59301749542E+02  0.49999645303E+02 0.  0.
        -12    1    1    2    0    0 -0.10795359800E+02  0.73670886253E+01  0.29084689791E+02  0.31886250458E+02  0.00000000000E+00 0.  1.
         11    1    3    3    0    0  0.43416168072E+01  0.14702847341E+02  0.43434126370E+01  0.15933881826E+02  0.51100000000E-03 0. -1.
        -11    1    3    3    0    0 -0.31413271181E+01  0.43283624365E-01 -0.65468403462E+01  0.72616064555E+01  0.51100000000E-03 0.  1.
         12    1    3    3    0    0  0.95950701111E+01 -0.22113219591E+02 -0.26881262082E+02  0.36106261261E+02  0.00000000000E+00 0. -1.
</event>
<event>
 7    1  0.6489567E-013  0.5930198E+02  0.7816164E-02  0.1266605E+00
        -11   -1    0    0    0    0  0.00000000000E+00  0.00000000000E+00  0.45593999997E+02  0.45594000000E+02  0.51100000000E-03 0.  1.
         11   -1    0    0    0    0 -0.00000000000E+00 -0.00000000000E+00 -0.45593999997E+02  0.45594000000E+02  0.51100000000E-03 0. -1.
    9900012    2    1    2    0    0  0.23435693807E+02  0.33420480462E+01 -0.21361576843E+02  0.59301984342E+02  0.50000073523E+02 0.  0.
        -12    1    1    2    0    0 -0.23435693807E+02 -0.33420480462E+01  0.21361576843E+02  0.31886015658E+02  0.00000000000E+00 0.  1.
         11    1    3    3    0    0  0.11690145720E+02  0.23944296768E+01  0.32962950251E+01  0.12379756120E+02  0.51100000000E-03 0. -1.
        -11    1    3    3    0    0 -0.82454780773E+01 -0.30510316376E+01  0.56096457377E+01  0.10429037748E+02  0.51100000000E-03 0.  1.
         12    1    3    3    0    0  0.19991026164E+02  0.39986500070E+01 -0.30267517606E+02  0.36493190474E+02  0.00000000000E+00 0. -1.
</event>
<event>
 7    1  0.6489567E-013  0.5930195E+02  0.7816164E-02  0.1266605E+00
        -11   -1    0    0    0    0  0.00000000000E+00  0.00000000000E+00  0.45593999997E+02  0.45594000000E+02  0.51100000000E-03 0.  1.
         11   -1    0    0    0    0 -0.00000000000E+00 -0.00000000000E+00 -0.45593999997E+02  0.45594000000E+02  0.51100000000E-03 0. -1.
    9900012    2    1    2    0    0  0.40949272210E+01 -0.21197356487E+02 -0.23465376853E+02  0.59301948789E+02  0.50000008683E+02 0.  0.
        -12    1    1    2    0    0 -0.40949272210E+01  0.21197356487E+02  0.23465376853E+02  0.31886051211E+02  0.00000000000E+00 0.  1.
         11    1    3    3    0    0  0.32773431798E+01 -0.28965002213E+02 -0.93276638102E+01  0.30605843297E+02  0.51100000000E-03 0. -1.
        -11    1    3    3    0    0  0.75369301818E+01 -0.53327713917E+01 -0.16261223991E+01  0.93748622177E+01  0.51100000000E-03 0.  1.
        -12    1    3    3    0    0 -0.67193461406E+01  0.13100417118E+02 -0.12511590644E+02  0.19321243274E+02  0.00000000000E+00 0.  1.
</event>
<event>
 7    1  0.6489567E-013  0.5930195E+02  0.7816164E-02  0.1266605E+00
        -11   -1    0    0    0    0  0.00000000000E+00  0.00000000000E+00  0.45593999997E+02  0.45594000000E+02  0.51100000000E-03 0. -1.
         11   -1    0    0    0    0 -0.00000000000E+00 -0.00000000000E+00 -0.45593999997E+02  0.45594000000E+02  0.51100000000E-03 0.  1.
    9900012    2    1    2    0    0 -0.15319673943E+02  0.25254469650E+00  0.27963624683E+02  0.59301945149E+02  0.50000002044E+02 0.  0.
        -12    1    1    2    0    0  0.15319673943E+02 -0.25254469650E+00 -0.27963624683E+02  0.31886054851E+02  0.00000000000E+00 0.  1.
         11    1    3    3    0    0 -0.26829373015E+02  0.24558982851E+01  0.29711277602E+02  0.40107439582E+02  0.51100000000E-03 0. -1.
        -11    1    3    3    0    0 -0.37380170170E+01 -0.35352193634E+00 -0.28465889351E+00  0.37654720721E+01  0.51100000000E-03 0.  1.
        -12    1    3    3    0    0  0.15247716089E+02 -0.18498316523E+01 -0.14629940251E+01  0.15429033495E+02  0.00000000000E+00 0.  1.
</event>
<event>
 7    1  0.6489567E-013  0.5930194E+02  0.7816164E-02  0.1266605E+00
        -11   -1    0    0    0    0  0.00000000000E+00  0.00000000000E+00  0.45593999997E+02  0.45594000000E+02  0.51100000000E-03 0.  1.
         11   -1    0    0    0    0 -0.00000000000E+00 -0.00000000000E+00 -0.45593999997E+02  0.45594000000E+02  0.51100000000E-03 0. -1.
    9900012    2    1    2    0    0  0.10792215129E+02 -0.19635457149E+02 -0.22686950784E+02  0.59301940025E+02  0.49999992701E+02 0.  0.
        -12    1    1    2    0    0 -0.10792215129E+02  0.19635457149E+02  0.22686950784E+02  0.31886059975E+02  0.00000000000E+00 0.  1.
         11    1    3    3    0    0  0.16530043558E+02 -0.16914974646E+02 -0.16898670361E+02  0.29067572440E+02  0.51100000000E-03 0. -1.
        -11    1    3    3    0    0  0.93274601582E+00 -0.38651683258E+01  0.11233490211E+02  0.11916410697E+02  0.51100000000E-03 0.  1.
         12    1    3    3    0    0 -0.66705744447E+01  0.11446858226E+01 -0.17021770634E+02  0.18317956888E+02  0.00000000000E+00 0. -1.
</event>
<event>
 7    1  0.6489567E-013  0.5930192E+02  0.7816164E-02  0.1266605E+00
        -11   -1    0    0    0    0  0.00000000000E+00  0.00000000000E+00  0.45593999997E+02  0.45594000000E+02  0.51100000000E-03 0.  1.
         11   -1    0    0    0    0 -0.00000000000E+00 -0.00000000000E+00 -0.45593999997E+02  0.45594000000E+02  0.51100000000E-03 0. -1.
    9900012    2    1    2    0    0  0.25414052862E+02  0.13350095123E+01 -0.19211092241E+02  0.59301915286E+02  0.49999947583E+02 0.  0.
        -12    1    1    2    0    0 -0.25414052862E+02 -0.13350095123E+01  0.19211092241E+02  0.31886084714E+02  0.00000000000E+00 0.  1.
         11    1    3    3    0    0  0.29412418655E+01 -0.11920186251E+02 -0.14179182309E+02  0.18756091148E+02  0.51100000000E-03 0. -1.
        -11    1    3    3    0    0 -0.24404181278E+01 -0.48319532337E+01  0.57770128075E+01  0.79168990097E+01  0.51100000000E-03 0.  1.
        -12    1    3    3    0    0  0.24913229125E+02  0.18087148997E+02 -0.10808922739E+02  0.32628925128E+02  0.00000000000E+00 0.  1.
</event>
<event>
 7    1  0.6489567E-013  0.5930200E+02  0.7816164E-02  0.1266605E+00
        -11   -1    0    0    0    0  0.00000000000E+00  0.00000000000E+00  0.45593999997E+02  0.45594000000E+02  0.51100000000E-03 0.  1.
         11   -1    0    0    0    0 -0.00000000000E+00 -0.00000000000E+00 -0.45593999997E+02  0.45594000000E+02  0.51100000000E-03 0. -1.
    9900012    2    1    2    0    0 -0.13071592154E+02  0.84643553668E+01 -0.27824542426E+02  0.59302000025E+02  0.50000102126E+02 0.  0.
        -12    1    1    2    0    0  0.13071592154E+02 -0.84643553668E+01  0.27824542426E+02  0.31885999975E+02  0.00000000000E+00 0.  1.
         11    1    3    3    0    0 -0.29614322462E+01 -0.90696980755E+01 -0.12538065488E+02  0.15755398775E+02  0.51100000000E-03 0. -1.
        -11    1    3    3    0    0  0.10991630799E+01 -0.10370151518E+02 -0.17712251286E+01  0.10577591441E+02  0.51100000000E-03 0.  1.
         12    1    3    3    0    0 -0.11209322987E+02  0.27904204960E+02 -0.13515251809E+02  0.32969009809E+02  0.00000000000E+00 0. -1.
</event>
<event>
 7    1  0.6489567E-013  0.5930195E+02  0.7816164E-02  0.1266605E+00
        -11   -1    0    0    0    0  0.00000000000E+00  0.00000000000E+00  0.45593999997E+02  0.45594000000E+02  0.51100000000E-03 0.  1.
         11   -1    0    0    0    0 -0.00000000000E+00 -0.00000000000E+00 -0.45593999997E+02  0.45594000000E+02  0.51100000000E-03 0. -1.
    9900012    2    1    2    0    0  0.67251102930E+01  0.81528022783E+01 -0.30083629387E+02  0.59301952102E+02  0.50000014726E+02 0.  0.
        -12    1    1    2    0    0 -0.67251102930E+01 -0.81528022783E+01  0.30083629387E+02  0.31886047898E+02  0.00000000000E+00 0.  1.
         11    1    3    3    0    0  0.17252843765E+02 -0.22379001292E+01 -0.13327560618E+01  0.17448353903E+02  0.51100000000E-03 0. -1.
        -11    1    3    3    0    0  0.41360266854E+01  0.13020089218E+02 -0.66329673541E+01  0.15186365469E+02  0.51100000000E-03 0.  1.
        -12    1    3    3    0    0 -0.14663760157E+02 -0.26293868100E+01 -0.22117905971E+02  0.26667232730E+02  0.00000000000E+00 0.  1.
</event>
<event>
 7    1  0.6489567E-013  0.5930194E+02  0.7816164E-02  0.1266605E+00
        -11   -1    0    0    0    0  0.00000000000E+00  0.00000000000E+00  0.45593999997E+02  0.45594000000E+02  0.51100000000E-03 0. -1.
         11   -1    0    0    0    0 -0.00000000000E+00 -0.00000000000E+00 -0.45593999997E+02  0.45594000000E+02  0.51100000000E-03 0.  1.
    9900012    2    1    2    0    0  0.21208882017E+02  0.22344515163E+02  0.82235701192E+01  0.59301935021E+02  0.49999983574E+02 0.  0.
        -12    1    1    2    0    0 -0.21208882017E+02 -0.22344515163E+02 -0.82235701192E+01  0.31886064979E+02  0.00000000000E+00 0.  1.
         11    1    3    3    0    0  0.10404302791E+02  0.18043491944E+02  0.89701211513E+01  0.22677746622E+02  0.51100000000E-03 0. -1.
        -11    1    3    3    0    0  0.13600849695E+01  0.13567625422E+02 -0.12817377893E+02  0.18714044646E+02  0.51100000000E-03 0.  1.
        -12    1    3    3    0    0  0.94444942570E+01 -0.92666022027E+01  0.12070826861E+02  0.17910143753E+02  0.00000000000E+00 0.  1.
</event>
<event>
 7    1  0.6489567E-013  0.5930195E+02  0.7816164E-02  0.1266605E+00
        -11   -1    0    0    0    0  0.00000000000E+00  0.00000000000E+00  0.45593999997E+02  0.45594000000E+02  0.51100000000E-03 0. -1.
         11   -1    0    0    0    0 -0.00000000000E+00 -0.00000000000E+00 -0.45593999997E+02  0.45594000000E+02  0.51100000000E-03 0.  1.
    9900012    2    1    2    0    0 -0.15410454261E+02 -0.25986359253E+02  0.10195439249E+02  0.59301953691E+02  0.50000017624E+02 0.  0.
        -12    1    1    2    0    0  0.15410454261E+02  0.25986359253E+02 -0.10195439249E+02  0.31886046309E+02  0.00000000000E+00 0.  1.
         11    1    3    3    0    0 -0.55103837040E+01 -0.59606914377E+01  0.16943134425E+01  0.82924585789E+01  0.51100000000E-03 0. -1.
        -11    1    3    3    0    0 -0.92714826690E+01 -0.21231604231E+02 -0.14915229390E+02  0.27553683549E+02  0.51100000000E-03 0.  1.
        -12    1    3    3    0    0 -0.62858788763E+00  0.12059364159E+01  0.23416355197E+02  0.23455811563E+02  0.00000000000E+00 0.  1.
</event>
<event>
 7    1  0.6489567E-013  0.5930196E+02  0.7816164E-02  0.1266605E+00
        -11   -1    0    0    0    0  0.00000000000E+00  0.00000000000E+00  0.45593999997E+02  0.45594000000E+02  0.51100000000E-03 0. -1.
         11   -1    0    0    0    0 -0.00000000000E+00 -0.00000000000E+00 -0.45593999997E+02  0.45594000000E+02  0.51100000000E-03 0.  1.
    9900012    2    1    2    0    0 -0.24774089491E+02 -0.62626868801E+01  0.19072041808E+02  0.59301960174E+02  0.50000029447E+02 0.  0.
        -12    1    1    2    0    0  0.24774089491E+02  0.62626868801E+01 -0.19072041808E+02  0.31886039826E+02  0.00000000000E+00 0.  1.
         11    1    3    3    0    0 -0.79744496649E+01  0.79005612063E+01  0.11380430828E+02  0.15985146885E+02  0.51100000000E-03 0. -1.
        -11    1    3    3    0    0 -0.19782513151E+02  0.36864330469E+01 -0.55711529869E+01  0.20880023014E+02  0.51100000000E-03 0.  1.
        -12    1    3    3    0    0  0.29828733255E+01 -0.17849681133E+02  0.13262763967E+02  0.22436790276E+02  0.00000000000E+00 0.  1.
</event>
<event>
 7    1  0.6489567E-013  0.5930191E+02  0.7816164E-02  0.1266605E+00
        -11   -1    0    0    0    0  0.00000000000E+00  0.00000000000E+00  0.45593999997E+02  0.45594000000E+02  0.51100000000E-03 0. -1.
         11   -1    0    0    0    0 -0.00000000000E+00 -0.00000000000E+00 -0.45593999997E+02  0.45594000000E+02  0.51100000000E-03 0.  1.
    9900012    2    1    2    0    0 -0.23910741799E+02  0.53706649584E+01  0.20399887278E+02  0.59301905595E+02  0.49999929907E+02 0.  0.
        -12    1    1    2    0    0  0.23910741799E+02 -0.53706649584E+01 -0.20399887278E+02  0.31886094405E+02  0.00000000000E+00 0.  1.
         11    1    3    3    0    0 -0.18569315165E+02  0.78567588269E+01  0.91353022012E+01  0.22135985895E+02  0.51100000000E-03 0. -1.
        -11    1    3    3    0    0  0.11175261357E+02  0.95107030328E+01  0.22328516487E+01  0.14843367722E+02  0.51100000000E-03 0.  1.
         12    1    3    3    0    0 -0.16516687992E+02 -0.11996796901E+02  0.90317334276E+01  0.22322551978E+02  0.00000000000E+00 0. -1.
</event>
<event>
 7    1  0.6489567E-013  0.5930193E+02  0.7816164E-02  0.1266605E+00
        -11   -1    0    0    0    0  0.00000000000E+00  0.00000000000E+00  0.45593999997E+02  0.45594000000E+02  0.51100000000E-03 0.  1.
         11   -1    0    0    0    0 -0.00000000000E+00 -0.00000000000E+00 -0.45593999997E+02  0.45594000000E+02  0.51100000000E-03 0. -1.
    9900012    2    1    2    0    0 -0.17700666339E+02  0.13780704942E+02 -0.22660534137E+02  0.59301933687E+02  0.49999981141E+02 0.  0.
        -12    1    1    2    0    0  0.17700666339E+02 -0.13780704942E+02  0.22660534137E+02  0.31886066313E+02  0.00000000000E+00 0.  1.
         11    1    3    3    0    0  0.16777807358E+00  0.19061452803E+01 -0.67671954321E+01  0.70325296721E+01  0.51100000000E-03 0. -1.
        -11    1    3    3    0    0 -0.15328548853E+02 -0.81773349432E+00 -0.29645380250E+02  0.33383853409E+02  0.51100000000E-03 0.  1.
        -12    1    3    3    0    0 -0.25398955603E+01  0.12692293156E+02  0.13752041545E+02  0.18885550606E+02  0.00000000000E+00 0.  1.
</event>
<event>
 7    1  0.6489567E-013  0.5930199E+02  0.7816164E-02  0.1266605E+00
        -11   -1    0    0    0    0  0.00000000000E+00  0.00000000000E+00  0.45593999997E+02  0.45594000000E+02  0.51100000000E-03 0.  1.
         11   -1    0    0    0    0 -0.00000000000E+00 -0.00000000000E+00 -0.45593999997E+02  0.45594000000E+02  0.51100000000E-03 0. -1.
    9900012    2    1    2    0    0  0.96071985543E+01  0.29665426405E+02  0.66619878255E+01  0.59301986300E+02  0.50000077095E+02 0.  0.
        -12    1    1    2    0    0 -0.96071985543E+01 -0.29665426405E+02 -0.66619878255E+01  0.31886013700E+02  0.00000000000E+00 0.  1.
         11    1    3    3    0    0  0.11771969609E+02  0.62847268574E+01 -0.15254099874E+01  0.13431453236E+02  0.51100000000E-03 0.  1.
        -11    1    3    3    0    0 -0.11393362712E+02  0.25888913114E+02 -0.58513319390E+01  0.28883950938E+02  0.51100000000E-03 0. -1.
         12    1    3    3    0    0  0.92285916571E+01 -0.25082135658E+01  0.14038729752E+02  0.16986582126E+02  0.00000000000E+00 0. -1.
</event>
<event>
 7    1  0.6489567E-013  0.5930191E+02  0.7816164E-02  0.1266605E+00
        -11   -1    0    0    0    0  0.00000000000E+00  0.00000000000E+00  0.45593999997E+02  0.45594000000E+02  0.51100000000E-03 0.  1.
         11   -1    0    0    0    0 -0.00000000000E+00 -0.00000000000E+00 -0.45593999997E+02  0.45594000000E+02  0.51100000000E-03 0. -1.
    9900012    2    1    2    0    0  0.27625939667E+02  0.21670964547E+01 -0.15774471759E+02  0.59301908850E+02  0.49999935845E+02 0.  0.
        -12    1    1    2    0    0 -0.27625939667E+02 -0.21670964547E+01  0.15774471759E+02  0.31886091150E+02  0.00000000000E+00 0.  1.
         11    1    3    3    0    0  0.16441132449E+02 -0.12449795987E+01  0.10230013625E+02  0.19403968395E+02  0.51100000000E-03 0. -1.
        -11    1    3    3    0    0 -0.51959580481E+01  0.82270625099E+01 -0.12271389880E+01  0.98075689107E+01  0.51100000000E-03 0.  1.
         12    1    3    3    0    0  0.16380765266E+02 -0.48149864565E+01 -0.24777346396E+02  0.30090371545E+02  0.00000000000E+00 0. -1.
</event>
<event>
 7    1  0.6489567E-013  0.5930194E+02  0.7816164E-02  0.1266605E+00
        -11   -1    0    0    0    0  0.00000000000E+00  0.00000000000E+00  0.45593999997E+02  0.45594000000E+02  0.51100000000E-03 0. -1.
         11   -1    0    0    0    0 -0.00000000000E+00 -0.00000000000E+00 -0.45593999997E+02  0.45594000000E+02  0.51100000000E-03 0.  1.
    9900012    2    1    2    0    0 -0.11875894858E+02 -0.23246904784E+02  0.18310255169E+02  0.59301938702E+02  0.49999990287E+02 0.  0.
        -12    1    1    2    0    0  0.11875894858E+02  0.23246904784E+02 -0.18310255169E+02  0.31886061298E+02  0.00000000000E+00 0.  1.
         11    1    3    3    0    0  0.45690940863E+01  0.44074911718E+00  0.98155171120E+01  0.10835832086E+02  0.51100000000E-03 0. -1.
        -11    1    3    3    0    0  0.55268087204E+00 -0.29512947506E+02  0.29668712591E+01  0.29666847692E+02  0.51100000000E-03 0.  1.
         12    1    3    3    0    0 -0.16997669817E+02  0.58252936041E+01  0.55278667982E+01  0.18799258925E+02  0.00000000000E+00 0. -1.
</event>
<event>
 7    1  0.6489567E-013  0.5930195E+02  0.7816164E-02  0.1266605E+00
        -11   -1    0    0    0    0  0.00000000000E+00  0.00000000000E+00  0.45593999997E+02  0.45594000000E+02  0.51100000000E-03 0.  1.
         11   -1    0    0    0    0 -0.00000000000E+00 -0.00000000000E+00 -0.45593999997E+02  0.45594000000E+02  0.51100000000E-03 0. -1.
    9900012    2    1    2    0    0  0.12547402027E+02 -0.28662058233E+02 -0.61456575539E+01  0.59301953106E+02  0.50000016556E+02 0.  0.
        -12    1    1    2    0    0 -0.12547402027E+02  0.28662058233E+02  0.61456575539E+01  0.31886046894E+02  0.00000000000E+00 0.  1.
         11    1    3    3    0    0  0.21361176270E+02 -0.12952612229E+01  0.11104131196E+00  0.21400698206E+02  0.51100000000E-03 0. -1.
        -11    1    3    3    0    0 -0.94872899005E+01 -0.30616649910E+01  0.49477829721E+01  0.11129376387E+02  0.51100000000E-03 0.  1.
        -12    1    3    3    0    0  0.67351565742E+00 -0.24305132019E+02 -0.11204481838E+02  0.26771878512E+02  0.00000000000E+00 0.  1.
</event>
<event>
 7    1  0.6489567E-013  0.5930191E+02  0.7816164E-02  0.1266605E+00
        -11   -1    0    0    0    0  0.00000000000E+00  0.00000000000E+00  0.45593999997E+02  0.45594000000E+02  0.51100000000E-03 0. -1.
         11   -1    0    0    0    0 -0.00000000000E+00 -0.00000000000E+00 -0.45593999997E+02  0.45594000000E+02  0.51100000000E-03 0.  1.
    9900012    2    1    2    0    0  0.19977894564E+02  0.80535470973E+01  0.23510562965E+02  0.59301914273E+02  0.49999945734E+02 0.  0.
        -12    1    1    2    0    0 -0.19977894564E+02 -0.80535470973E+01 -0.23510562965E+02  0.31886085727E+02  0.00000000000E+00 0.  1.
         11    1    3    3    0    0  0.66090038994E+01 -0.14194197046E+01  0.31476277067E+01  0.74566242551E+01  0.51100000000E-03 0. -1.
        -11    1    3    3    0    0 -0.64536579808E+01 -0.11224121033E+02  0.19207359655E+02  0.23163619309E+02  0.51100000000E-03 0.  1.
         12    1    3    3    0    0  0.19822548646E+02  0.20697087835E+02  0.11555756038E+01  0.28681670709E+02  0.00000000000E+00 0. -1.
</event>
<event>
 7    1  0.6489567E-013  0.5930191E+02  0.7816164E-02  0.1266605E+00
        -11   -1    0    0    0    0  0.00000000000E+00  0.00000000000E+00  0.45593999997E+02  0.45594000000E+02  0.51100000000E-03 0.  1.
         11   -1    0    0    0    0 -0.00000000000E+00 -0.00000000000E+00 -0.45593999997E+02  0.45594000000E+02  0.51100000000E-03 0. -1.
    9900012    2    1    2    0    0 -0.50083797382E+01  0.12885617295E+01 -0.31463921816E+02  0.59301911576E+02  0.49999940816E+02 0.  0.
        -12    1    1    2    0    0  0.50083797382E+01 -0.12885617295E+01  0.31463921816E+02  0.31886088424E+02  0.00000000000E+00 0.  1.
         11    1    3    3    0    0  0.10298759560E+02  0.23927209896E+00 -0.26967708666E+01  0.10648674705E+02  0.51100000000E-03 0. -1.
        -11    1    3    3    0    0 -0.71549888490E+01 -0.12055966902E+02  0.20681927323E+01  0.14171013542E+02  0.51100000000E-03 0.  1.
        -12    1    3    3    0    0 -0.81521504490E+01  0.13105256533E+02 -0.30835343682E+02  0.34482223329E+02  0.00000000000E+00 0.  1.
</event>
<event>
 7    1  0.6489567E-013  0.5930193E+02  0.7816164E-02  0.1266605E+00
        -11   -1    0    0    0    0  0.00000000000E+00  0.00000000000E+00  0.45593999997E+02  0.45594000000E+02  0.51100000000E-03 0.  1.
         11   -1    0    0    0    0 -0.00000000000E+00 -0.00000000000E+00 -0.45593999997E+02  0.45594000000E+02  0.51100000000E-03 0. -1.
    9900012    2    1    2    0    0  0.12365805254E+02 -0.74199461670E+00 -0.29381250553E+02  0.59301928124E+02  0.49999970996E+02 0.  0.
        -12    1    1    2    0    0 -0.12365805254E+02  0.74199461670E+00  0.29381250553E+02  0.31886071876E+02  0.00000000000E+00 0.  1.
         11    1    3    3    0    0 -0.75384245187E+01  0.11601924317E+02 -0.24431087221E+02  0.28076867973E+02  0.51100000000E-03 0. -1.
        -11    1    3    3    0    0  0.88624889641E+01  0.35165045664E+01 -0.69465257244E+01  0.11796767986E+02  0.51100000000E-03 0.  1.
        -12    1    3    3    0    0  0.11041740808E+02 -0.15860423500E+02  0.19963623925E+01  0.19428292166E+02  0.00000000000E+00 0.  1.
</event>
<event>
 7    1  0.6489567E-013  0.5930197E+02  0.7816164E-02  0.1266605E+00
        -11   -1    0    0    0    0  0.00000000000E+00  0.00000000000E+00  0.45593999997E+02  0.45594000000E+02  0.51100000000E-03 0.  1.
         11   -1    0    0    0    0 -0.00000000000E+00 -0.00000000000E+00 -0.45593999997E+02  0.45594000000E+02  0.51100000000E-03 0. -1.
    9900012    2    1    2    0    0 -0.37528054010E+01 -0.89643649923E+01 -0.30368987482E+02  0.59301971888E+02  0.50000050811E+02 0.  0.
        -12    1    1    2    0    0  0.37528054010E+01  0.89643649923E+01  0.30368987482E+02  0.31886028112E+02  0.00000000000E+00 0.  1.
         11    1    3    3    0    0 -0.83568597559E+01 -0.82259140327E+01 -0.20220562981E+02  0.23374642974E+02  0.51100000000E-03 0. -1.
        -11    1    3    3    0    0  0.16601025704E+02 -0.90663487328E+01 -0.15473546100E+01  0.18978594267E+02  0.51100000000E-03 0.  1.
         12    1    3    3    0    0 -0.11996971349E+02  0.83278977732E+01 -0.86010698908E+01  0.16948734647E+02  0.00000000000E+00 0. -1.
</event>
<event>
 7    1  0.6489567E-013  0.5930196E+02  0.7816164E-02  0.1266605E+00
        -11   -1    0    0    0    0  0.00000000000E+00  0.00000000000E+00  0.45593999997E+02  0.45594000000E+02  0.51100000000E-03 0.  1.
         11   -1    0    0    0    0 -0.00000000000E+00 -0.00000000000E+00 -0.45593999997E+02  0.45594000000E+02  0.51100000000E-03 0. -1.
    9900012    2    1    2    0    0 -0.22110784576E+02 -0.21602748597E+02 -0.78201185788E+01  0.59301956092E+02  0.50000022003E+02 0.  0.
        -12    1    1    2    0    0  0.22110784576E+02  0.21602748597E+02  0.78201185788E+01  0.31886043908E+02  0.00000000000E+00 0.  1.
         11    1    3    3    0    0 -0.12230414186E+02 -0.56058712671E+01 -0.23200608832E+02  0.26819341421E+02  0.51100000000E-03 0. -1.
        -11    1    3    3    0    0  0.27981401074E+01  0.84711235231E+00 -0.32332549387E+01  0.43590280060E+01  0.51100000000E-03 0.  1.
        -12    1    3    3    0    0 -0.12678510497E+02 -0.16843989682E+02  0.18613745192E+02  0.28123586665E+02  0.00000000000E+00 0.  1.
</event>
<event>
 7    1  0.6489567E-013  0.5930194E+02  0.7816164E-02  0.1266605E+00
        -11   -1    0    0    0    0  0.00000000000E+00  0.00000000000E+00  0.45593999997E+02  0.45594000000E+02  0.51100000000E-03 0.  1.
         11   -1    0    0    0    0 -0.00000000000E+00 -0.00000000000E+00 -0.45593999997E+02  0.45594000000E+02  0.51100000000E-03 0. -1.
    9900012    2    1    2    0    0 -0.19024175127E+02 -0.14845095318E+02 -0.20842859650E+02  0.59301938897E+02  0.49999990643E+02 0.  0.
        -12    1    1    2    0    0  0.19024175127E+02  0.14845095318E+02  0.20842859650E+02  0.31886061103E+02  0.00000000000E+00 0.  1.
         11    1    3    3    0    0  0.41563849859E+01 -0.61189495168E+01  0.55222790970E+01  0.92310696036E+01  0.51100000000E-03 0. -1.
        -11    1    3    3    0    0 -0.15464708702E+02 -0.20890256247E+02 -0.24182756181E+02  0.35501629794E+02  0.51100000000E-03 0.  1.
        -12    1    3    3    0    0 -0.77158514112E+01  0.12164110445E+02 -0.21823825661E+01  0.14569239499E+02  0.00000000000E+00 0.  1.
</event>
<event>
 7    1  0.6489567E-013  0.5930193E+02  0.7816164E-02  0.1266605E+00
        -11   -1    0    0    0    0  0.00000000000E+00  0.00000000000E+00  0.45593999997E+02  0.45594000000E+02  0.51100000000E-03 0.  1.
         11   -1    0    0    0    0 -0.00000000000E+00 -0.00000000000E+00 -0.45593999997E+02  0.45594000000E+02  0.51100000000E-03 0. -1.
    9900012    2    1    2    0    0 -0.19654506950E+02 -0.24575259555E+02  0.51457065136E+01  0.59301932178E+02  0.49999978389E+02 0.  0.
        -12    1    1    2    0    0  0.19654506950E+02  0.24575259555E+02 -0.51457065136E+01  0.31886067822E+02  0.00000000000E+00 0.  1.
         11    1    3    3    0    0  0.23945117713E+01  0.38157052544E+01 -0.72866940053E+01  0.85667498504E+01  0.51100000000E-03 0. -1.
        -11    1    3    3    0    0 -0.17156251555E+02 -0.73586881758E+00  0.14637709234E+02  0.22564153035E+02  0.51100000000E-03 0.  1.
        -12    1    3    3    0    0 -0.48927671664E+01 -0.27655095992E+02 -0.22053087153E+01  0.28171029292E+02  0.00000000000E+00 0.  1.
</event>
<event>
 7    1  0.6489567E-013  0.5930195E+02  0.7816164E-02  0.1266605E+00
        -11   -1    0    0    0    0  0.00000000000E+00  0.00000000000E+00  0.45593999997E+02  0.45594000000E+02  0.51100000000E-03 0. -1.
         11   -1    0    0    0    0 -0.00000000000E+00 -0.00000000000E+00 -0.45593999997E+02  0.45594000000E+02  0.51100000000E-03 0.  1.
    9900012    2    1    2    0    0  0.19707340659E+02  0.16059651228E+02  0.19246526023E+02  0.59301946037E+02  0.50000003664E+02 0.  0.
        -12    1    1    2    0    0 -0.19707340659E+02 -0.16059651228E+02 -0.19246526023E+02  0.31886053963E+02  0.00000000000E+00 0.  1.
         11    1    3    3    0    0 -0.24573763133E+01 -0.87488370801E+01  0.86607416801E+01  0.12553457504E+02  0.51100000000E-03 0. -1.
        -11    1    3    3    0    0  0.22692025470E+02  0.21147887963E+01  0.42760033514E+01  0.23188026145E+02  0.51100000000E-03 0.  1.
        -12    1    3    3    0    0 -0.52730849736E+00  0.22693699512E+02  0.63097809912E+01  0.23560462388E+02  0.00000000000E+00 0.  1.
</event>
<event>
 7    1  0.6489567E-013  0.5930194E+02  0.7816164E-02  0.1266605E+00
        -11   -1    0    0    0    0  0.00000000000E+00  0.00000000000E+00  0.45593999997E+02  0.45594000000E+02  0.51100000000E-03 0. -1.
         11   -1    0    0    0    0 -0.00000000000E+00 -0.00000000000E+00 -0.45593999997E+02  0.45594000000E+02  0.51100000000E-03 0.  1.
    9900012    2    1    2    0    0 -0.24797713421E+02 -0.44147658988E+01  0.19552598081E+02  0.59301939714E+02  0.49999992132E+02 0.  0.
        -12    1    1    2    0    0  0.24797713421E+02  0.44147658988E+01 -0.19552598081E+02  0.31886060286E+02  0.00000000000E+00 0.  1.
         11    1    3    3    0    0 -0.14225730051E+02  0.15857754384E+02 -0.53704206731E+01  0.21970006556E+02  0.51100000000E-03 0. -1.
        -11    1    3    3    0    0 -0.29770845627E+01 -0.19250602015E+01 -0.18498011180E+01  0.39988315431E+01  0.51100000000E-03 0.  1.
         12    1    3    3    0    0 -0.75948988073E+01 -0.18347460082E+02  0.26772819873E+02  0.33333101615E+02  0.00000000000E+00 0. -1.
</event>
<event>
 7    1  0.6489567E-013  0.5930195E+02  0.7816164E-02  0.1266605E+00
        -11   -1    0    0    0    0  0.00000000000E+00  0.00000000000E+00  0.45593999997E+02  0.45594000000E+02  0.51100000000E-03 0.  1.
         11   -1    0    0    0    0 -0.00000000000E+00 -0.00000000000E+00 -0.45593999997E+02  0.45594000000E+02  0.51100000000E-03 0. -1.
    9900012    2    1    2    0    0  0.18747939866E+02  0.70460118757E+01 -0.24811059710E+02  0.59301949500E+02  0.50000009980E+02 0.  0.
        -12    1    1    2    0    0 -0.18747939866E+02 -0.70460118757E+01  0.24811059710E+02  0.31886050500E+02  0.00000000000E+00 0.  1.
         11    1    3    3    0    0  0.97229505899E+01  0.18882273060E+02 -0.36165255781E+01  0.21544262847E+02  0.51100000000E-03 0. -1.
        -11    1    3    3    0    0  0.10327620983E+02  0.64107599924E+01 -0.12727998140E+02  0.17599986811E+02  0.51100000000E-03 0.  1.
        -12    1    3    3    0    0 -0.13026317069E+01 -0.18247021177E+02 -0.84665359924E+01  0.20157699842E+02  0.00000000000E+00 0.  1.
</event>
<event>
 7    1  0.6489567E-013  0.5930195E+02  0.7816164E-02  0.1266605E+00
        -11   -1    0    0    0    0  0.00000000000E+00  0.00000000000E+00  0.45593999997E+02  0.45594000000E+02  0.51100000000E-03 0. -1.
         11   -1    0    0    0    0 -0.00000000000E+00 -0.00000000000E+00 -0.45593999997E+02  0.45594000000E+02  0.51100000000E-03 0.  1.
    9900012    2    1    2    0    0  0.24227767488E+02 -0.17980997587E+02  0.10315965089E+02  0.59301950897E+02  0.50000012528E+02 0.  0.
        -12    1    1    2    0    0 -0.24227767488E+02  0.17980997587E+02 -0.10315965089E+02  0.31886049103E+02  0.00000000000E+00 0.  1.
         11    1    3    3    0    0 -0.35656850576E+00 -0.80794732373E+01  0.57654074287E+01  0.99320165109E+01  0.51100000000E-03 0. -1.
        -11    1    3    3    0    0  0.95060562491E+01 -0.15771710482E+02 -0.15171468483E+02  0.23859702704E+02  0.51100000000E-03 0.  1.
         12    1    3    3    0    0  0.15078279744E+02  0.58701861318E+01  0.19722026143E+02  0.25510231682E+02  0.00000000000E+00 0. -1.
</event>
<event>
 7    1  0.6489567E-013  0.5930172E+02  0.7816164E-02  0.1266606E+00
        -11   -1    0    0    0    0  0.00000000000E+00  0.00000000000E+00  0.45593999997E+02  0.45594000000E+02  0.51100000000E-03 0.  1.
         11   -1    0    0    0    0 -0.00000000000E+00 -0.00000000000E+00 -0.45593999997E+02  0.45594000000E+02  0.51100000000E-03 0. -1.
    9900012    2    1    2    0    0  0.31772877171E+02 -0.74793189721E+00  0.25805997547E+01  0.59301723627E+02  0.49999598040E+02 0.  0.
        -12    1    1    2    0    0 -0.31772877171E+02  0.74793189721E+00 -0.25805997547E+01  0.31886276373E+02  0.00000000000E+00 0.  1.
         11    1    3    3    0    0  0.19237521934E+01  0.94561650225E+00  0.15914280483E+02  0.16057999148E+02  0.51100000000E-03 0. -1.
        -11    1    3    3    0    0  0.10852424249E+02  0.58340192323E+01  0.72038289713E+01  0.14272562650E+02  0.51100000000E-03 0.  1.
         12    1    3    3    0    0  0.18996700729E+02 -0.75275676318E+01 -0.20537509700E+02  0.28971161829E+02  0.00000000000E+00 0. -1.
</event>
<event>
 7    1  0.6489567E-013  0.5930156E+02  0.7816164E-02  0.1266606E+00
        -11   -1    0    0    0    0  0.00000000000E+00  0.00000000000E+00  0.45593999997E+02  0.45594000000E+02  0.51100000000E-03 0.  1.
         11   -1    0    0    0    0 -0.00000000000E+00 -0.00000000000E+00 -0.45593999997E+02  0.45594000000E+02  0.51100000000E-03 0. -1.
    9900012    2    1    2    0    0  0.15924780999E+02 -0.10943683266E+02 -0.25364981225E+02  0.59301558903E+02  0.49999297620E+02 0.  0.
        -12    1    1    2    0    0 -0.15924780999E+02  0.10943683266E+02  0.25364981225E+02  0.31886441097E+02  0.00000000000E+00 0.  1.
         11    1    3    3    0    0  0.16695866176E+02 -0.33166891613E+01 -0.26879373219E+02  0.31815924932E+02  0.51100000000E-03 0. -1.
        -11    1    3    3    0    0  0.48204500702E+01  0.78178526302E+01  0.53346337090E+01  0.10621387654E+02  0.51100000000E-03 0.  1.
         12    1    3    3    0    0 -0.55915352478E+01 -0.15444846735E+02 -0.38202417153E+01  0.16864246317E+02  0.00000000000E+00 0. -1.
</event>
<event>
 7    1  0.6489567E-013  0.5930207E+02  0.7816164E-02  0.1266604E+00
        -11   -1    0    0    0    0  0.00000000000E+00  0.00000000000E+00  0.45593999997E+02  0.45594000000E+02  0.51100000000E-03 0.  1.
         11   -1    0    0    0    0 -0.00000000000E+00 -0.00000000000E+00 -0.45593999997E+02  0.45594000000E+02  0.51100000000E-03 0. -1.
    9900012    2    1    2    0    0  0.20351505734E+02  0.23219021957E+02  0.79627935600E+01  0.59302065051E+02  0.50000220717E+02 0.  0.
        -12    1    1    2    0    0 -0.20351505734E+02 -0.23219021957E+02 -0.79627935600E+01  0.31885934949E+02  0.00000000000E+00 0.  1.
         11    1    3    3    0    0  0.25607044440E+01  0.78437912368E+01  0.17998910956E+01  0.84452280273E+01  0.51100000000E-03 0. -1.
        -11    1    3    3    0    0  0.28458674332E+02  0.22442550652E+02 -0.87292808858E+00  0.36253637448E+02  0.51100000000E-03 0.  1.
        -12    1    3    3    0    0 -0.10667873042E+02 -0.70673199322E+01  0.70358305530E+01  0.14603199576E+02  0.00000000000E+00 0.  1.
</event>
<event>
 7    1  0.6489567E-013  0.5930193E+02  0.7816164E-02  0.1266605E+00
        -11   -1    0    0    0    0  0.00000000000E+00  0.00000000000E+00  0.45593999997E+02  0.45594000000E+02  0.51100000000E-03 0. -1.
         11   -1    0    0    0    0 -0.00000000000E+00 -0.00000000000E+00 -0.45593999997E+02  0.45594000000E+02  0.51100000000E-03 0.  1.
    9900012    2    1    2    0    0 -0.13278549426E+02 -0.22302077664E+02  0.18520763190E+02  0.59301933887E+02  0.49999981506E+02 0.  0.
        -12    1    1    2    0    0  0.13278549426E+02  0.22302077664E+02 -0.18520763190E+02  0.31886066113E+02  0.00000000000E+00 0.  1.
         11    1    3    3    0    0 -0.35499395075E+01 -0.21414555422E+02  0.28554056475E+02  0.35868083248E+02  0.51100000000E-03 0. -1.
        -11    1    3    3    0    0  0.39571482840E+01 -0.34457149434E+01 -0.76985760631E+01  0.93166543176E+01  0.51100000000E-03 0.  1.
        -12    1    3    3    0    0 -0.13685758203E+02  0.25581927010E+01 -0.23347172219E+01  0.14117196322E+02  0.00000000000E+00 0.  1.
</event>
<event>
 7    1  0.6489567E-013  0.5930195E+02  0.7816164E-02  0.1266605E+00
        -11   -1    0    0    0    0  0.00000000000E+00  0.00000000000E+00  0.45593999997E+02  0.45594000000E+02  0.51100000000E-03 0.  1.
         11   -1    0    0    0    0 -0.00000000000E+00 -0.00000000000E+00 -0.45593999997E+02  0.45594000000E+02  0.51100000000E-03 0. -1.
    9900012    2    1    2    0    0  0.22768777000E+02 -0.18404950457E+02 -0.12631735395E+02  0.59301950598E+02  0.50000011982E+02 0.  0.
        -12    1    1    2    0    0 -0.22768777000E+02  0.18404950457E+02  0.12631735395E+02  0.31886049402E+02  0.00000000000E+00 0.  1.
         11    1    3    3    0    0  0.26636970497E+02 -0.13355916905E+02 -0.29122447791E+01  0.29939770934E+02  0.51100000000E-03 0. -1.
        -11    1    3    3    0    0 -0.44382986481E+01 -0.16061043667E+02 -0.63524049518E+01  0.17832797523E+02  0.51100000000E-03 0.  1.
        -12    1    3    3    0    0  0.57010515141E+00  0.11012010116E+02 -0.33670856637E+01  0.11529382141E+02  0.00000000000E+00 0.  1.
</event>
<event>
 7    1  0.6489567E-013  0.5930195E+02  0.7816164E-02  0.1266605E+00
        -11   -1    0    0    0    0  0.00000000000E+00  0.00000000000E+00  0.45593999997E+02  0.45594000000E+02  0.51100000000E-03 0. -1.
         11   -1    0    0    0    0 -0.00000000000E+00 -0.00000000000E+00 -0.45593999997E+02  0.45594000000E+02  0.51100000000E-03 0.  1.
    9900012    2    1    2    0    0 -0.65887323807E+01 -0.28327526923E+02  0.13071354289E+02  0.59301945385E+02  0.50000002475E+02 0.  0.
        -12    1    1    2    0    0  0.65887323807E+01  0.28327526923E+02 -0.13071354289E+02  0.31886054615E+02  0.00000000000E+00 0.  1.
         11    1    3    3    0    0 -0.95229240045E+01 -0.49933291588E+01  0.13338693611E+02  0.17133013897E+02  0.51100000000E-03 0.  1.
        -11    1    3    3    0    0  0.24606342763E+01 -0.21531645225E+02  0.15275797526E+02  0.26514457518E+02  0.51100000000E-03 0. -1.
        -12    1    3    3    0    0  0.47355734750E+00 -0.18025525390E+01 -0.15543136848E+02  0.15654473970E+02  0.00000000000E+00 0.  1.
</event>
<event>
 7    1  0.6489567E-013  0.5930195E+02  0.7816164E-02  0.1266605E+00
        -11   -1    0    0    0    0  0.00000000000E+00  0.00000000000E+00  0.45593999997E+02  0.45594000000E+02  0.51100000000E-03 0. -1.
         11   -1    0    0    0    0 -0.00000000000E+00 -0.00000000000E+00 -0.45593999997E+02  0.45594000000E+02  0.51100000000E-03 0.  1.
    9900012    2    1    2    0    0 -0.26801330873E+01 -0.31735281809E+02 -0.15520282766E+01  0.59301952633E+02  0.50000015695E+02 0.  0.
        -12    1    1    2    0    0  0.26801330873E+01  0.31735281809E+02  0.15520282766E+01  0.31886047367E+02  0.00000000000E+00 0.  1.
         11    1    3    3    0    0 -0.10640553692E+01 -0.16447523724E+02  0.17347218757E+02  0.23928628238E+02  0.51100000000E-03 0. -1.
        -11    1    3    3    0    0  0.11300710858E+02 -0.70850328000E+01 -0.37821763093E+01  0.13863932110E+02  0.51100000000E-03 0.  1.
        -12    1    3    3    0    0 -0.12916788576E+02 -0.82027252852E+01 -0.15117070724E+02  0.21509392285E+02  0.00000000000E+00 0.  1.
</event>
<event>
 7    1  0.6489567E-013  0.5930194E+02  0.7816164E-02  0.1266605E+00
        -11   -1    0    0    0    0  0.00000000000E+00  0.00000000000E+00  0.45593999997E+02  0.45594000000E+02  0.51100000000E-03 0.  1.
         11   -1    0    0    0    0 -0.00000000000E+00 -0.00000000000E+00 -0.45593999997E+02  0.45594000000E+02  0.51100000000E-03 0. -1.
    9900012    2    1    2    0    0 -0.18476471379E+02 -0.19145113723E+02 -0.17572864390E+02  0.59301938203E+02  0.49999989377E+02 0.  0.
        -12    1    1    2    0    0  0.18476471379E+02  0.19145113723E+02  0.17572864390E+02  0.31886061797E+02  0.00000000000E+00 0.  1.
         11    1    3    3    0    0 -0.20432955696E+02  0.20680371328E+01 -0.36395819106E+01  0.20857349132E+02  0.51100000000E-03 0.  1.
        -11    1    3    3    0    0  0.20063298009E+01 -0.97951258973E+01 -0.22200242837E+02  0.24347908183E+02  0.51100000000E-03 0. -1.
        -12    1    3    3    0    0 -0.49845483628E-01 -0.11418024958E+02  0.82669603576E+01  0.14096680888E+02  0.00000000000E+00 0.  1.
</event>
<event>
 7    1  0.6489567E-013  0.5930195E+02  0.7816164E-02  0.1266605E+00
        -11   -1    0    0    0    0  0.00000000000E+00  0.00000000000E+00  0.45593999997E+02  0.45594000000E+02  0.51100000000E-03 0.  1.
         11   -1    0    0    0    0 -0.00000000000E+00 -0.00000000000E+00 -0.45593999997E+02  0.45594000000E+02  0.51100000000E-03 0. -1.
    9900012    2    1    2    0    0  0.63663433008E+01  0.19872689327E+02 -0.24109466369E+02  0.59301945419E+02  0.50000002537E+02 0.  0.
        -12    1    1    2    0    0 -0.63663433008E+01 -0.19872689327E+02  0.24109466369E+02  0.31886054581E+02  0.00000000000E+00 0.  1.
         11    1    3    3    0    0 -0.70288586132E+01  0.45482031046E+01 -0.85454801803E+01  0.11963119855E+02  0.51100000000E-03 0. -1.
        -11    1    3    3    0    0  0.25777630639E+01  0.34048578783E+01 -0.27164278212E+02  0.27497925933E+02  0.51100000000E-03 0.  1.
        -12    1    3    3    0    0  0.10817438850E+02  0.11919628344E+02  0.11600292023E+02  0.19840899631E+02  0.00000000000E+00 0.  1.
</event>
<event>
 7    1  0.6489567E-013  0.5930195E+02  0.7816164E-02  0.1266605E+00
        -11   -1    0    0    0    0  0.00000000000E+00  0.00000000000E+00  0.45593999997E+02  0.45594000000E+02  0.51100000000E-03 0.  1.
         11   -1    0    0    0    0 -0.00000000000E+00 -0.00000000000E+00 -0.45593999997E+02  0.45594000000E+02  0.51100000000E-03 0. -1.
    9900012    2    1    2    0    0  0.10173309420E+01  0.14984618919E+02 -0.28127329942E+02  0.59301945743E+02  0.50000003128E+02 0.  0.
        -12    1    1    2    0    0 -0.10173309420E+01 -0.14984618919E+02  0.28127329942E+02  0.31886054257E+02  0.00000000000E+00 0.  1.
         11    1    3    3    0    0  0.11480068433E+02  0.65254043091E+01 -0.62443974609E+01  0.14607031613E+02  0.51100000000E-03 0. -1.
        -11    1    3    3    0    0  0.13447204993E+02  0.59466970862E+01 -0.59995624296E+01  0.15880342502E+02  0.51100000000E-03 0.  1.
        -12    1    3    3    0    0 -0.23909942485E+02  0.25125175233E+01 -0.15883370052E+02  0.28814571628E+02  0.00000000000E+00 0.  1.
</event>
<event>
 7    1  0.6489567E-013  0.5930194E+02  0.7816164E-02  0.1266605E+00
        -11   -1    0    0    0    0  0.00000000000E+00  0.00000000000E+00  0.45593999997E+02  0.45594000000E+02  0.51100000000E-03 0. -1.
         11   -1    0    0    0    0 -0.00000000000E+00 -0.00000000000E+00 -0.45593999997E+02  0.45594000000E+02  0.51100000000E-03 0.  1.
    9900012    2    1    2    0    0  0.30882274620E+02 -0.39491398594E+00  0.79277956906E+01  0.59301940549E+02  0.49999993656E+02 0.  0.
        -12    1    1    2    0    0 -0.30882274620E+02  0.39491398594E+00 -0.79277956906E+01  0.31886059451E+02  0.00000000000E+00 0.  1.
         11    1    3    3    0    0  0.18940225949E+02  0.21067593445E+01  0.12600269335E+02  0.22845948909E+02  0.51100000000E-03 0. -1.
        -11    1    3    3    0    0  0.20463472338E+02 -0.11721348777E+02 -0.35970751281E+01  0.23855453612E+02  0.51100000000E-03 0.  1.
         12    1    3    3    0    0 -0.85214236667E+01  0.92196754470E+01 -0.10753985166E+01  0.12600538029E+02  0.00000000000E+00 0. -1.
</event>
<event>
 7    1  0.6489567E-013  0.5930193E+02  0.7816164E-02  0.1266605E+00
        -11   -1    0    0    0    0  0.00000000000E+00  0.00000000000E+00  0.45593999997E+02  0.45594000000E+02  0.51100000000E-03 0. -1.
         11   -1    0    0    0    0 -0.00000000000E+00 -0.00000000000E+00 -0.45593999997E+02  0.45594000000E+02  0.51100000000E-03 0.  1.
    9900012    2    1    2    0    0  0.16705118087E+02 -0.16204776790E+02  0.21796002193E+02  0.59301929801E+02  0.49999974054E+02 0.  0.
        -12    1    1    2    0    0 -0.16705118087E+02  0.16204776790E+02 -0.21796002193E+02  0.31886070199E+02  0.00000000000E+00 0.  1.
         11    1    3    3    0    0  0.68429751776E+01 -0.31183158648E+01  0.10429466707E+01  0.75919655645E+01  0.51100000000E-03 0. -1.
        -11    1    3    3    0    0  0.96603426927E+01 -0.29449474024E+02  0.13221923227E+02  0.33695889888E+02  0.51100000000E-03 0.  1.
        -12    1    3    3    0    0  0.20180021635E+00  0.16363013099E+02  0.75311322957E+01  0.18014074349E+02  0.00000000000E+00 0.  1.
</event>
<event>
 7    1  0.6489567E-013  0.5930202E+02  0.7816164E-02  0.1266604E+00
        -11   -1    0    0    0    0  0.00000000000E+00  0.00000000000E+00  0.45593999997E+02  0.45594000000E+02  0.51100000000E-03 0. -1.
         11   -1    0    0    0    0 -0.00000000000E+00 -0.00000000000E+00 -0.45593999997E+02  0.45594000000E+02  0.51100000000E-03 0.  1.
    9900012    2    1    2    0    0  0.23312477834E+02 -0.21437267971E+02  0.36996408050E+01  0.59302024668E+02  0.50000147068E+02 0.  0.
        -12    1    1    2    0    0 -0.23312477834E+02  0.21437267971E+02 -0.36996408050E+01  0.31885975332E+02  0.00000000000E+00 0.  1.
         11    1    3    3    0    0  0.14700341225E+02 -0.15211430680E+02 -0.81279483310E+01  0.22661668072E+02  0.51100000000E-03 0. -1.
        -11    1    3    3    0    0  0.27024278352E+01 -0.10444085396E+02  0.21789126160E+02  0.24313536457E+02  0.51100000000E-03 0.  1.
         12    1    3    3    0    0  0.59097087731E+01  0.42182481058E+01 -0.99615370237E+01  0.12326820139E+02  0.00000000000E+00 0. -1.
</event>
<event>
 7    1  0.6489567E-013  0.5930191E+02  0.7816164E-02  0.1266605E+00
        -11   -1    0    0    0    0  0.00000000000E+00  0.00000000000E+00  0.45593999997E+02  0.45594000000E+02  0.51100000000E-03 0.  1.
         11   -1    0    0    0    0 -0.00000000000E+00 -0.00000000000E+00 -0.45593999997E+02  0.45594000000E+02  0.51100000000E-03 0. -1.
    9900012    2    1    2    0    0  0.15336622898E+02 -0.21392886815E+02 -0.17995967612E+02  0.59301914344E+02  0.49999945864E+02 0.  0.
        -12    1    1    2    0    0 -0.15336622898E+02  0.21392886815E+02  0.17995967612E+02  0.31886085656E+02  0.00000000000E+00 0.  1.
         11    1    3    3    0    0 -0.28433258589E+01 -0.24354227056E+02 -0.14690076571E+02  0.28583408253E+02  0.51100000000E-03 0. -1.
        -11    1    3    3    0    0  0.10327005521E+01 -0.90775215908E+01  0.14063790625E+01  0.92436881703E+01  0.51100000000E-03 0.  1.
        -12    1    3    3    0    0  0.17147248205E+02  0.12038861832E+02 -0.47122701033E+01  0.21474817921E+02  0.00000000000E+00 0.  1.
</event>
<event>
 7    1  0.6489567E-013  0.5930193E+02  0.7816164E-02  0.1266605E+00
        -11   -1    0    0    0    0  0.00000000000E+00  0.00000000000E+00  0.45593999997E+02  0.45594000000E+02  0.51100000000E-03 0. -1.
         11   -1    0    0    0    0 -0.00000000000E+00 -0.00000000000E+00 -0.45593999997E+02  0.45594000000E+02  0.51100000000E-03 0.  1.
    9900012    2    1    2    0    0 -0.25513766792E+02 -0.17173056277E+02  0.84175597234E+01  0.59301929852E+02  0.49999974146E+02 0.  0.
        -12    1    1    2    0    0  0.25513766792E+02  0.17173056277E+02 -0.84175597234E+01  0.31886070148E+02  0.00000000000E+00 0.  1.
         11    1    3    3    0    0  0.64031199667E+01 -0.54475200882E+01 -0.37347122199E+01  0.91991030022E+01  0.51100000000E-03 0.  1.
        -11    1    3    3    0    0 -0.46666931968E+01 -0.15920527904E+02 -0.53663844532E+01  0.17436723216E+02  0.51100000000E-03 0. -1.
        -12    1    3    3    0    0 -0.27250193562E+02  0.41949917154E+01  0.17518656396E+02  0.32666103633E+02  0.00000000000E+00 0.  1.
</event>
<event>
 7    1  0.6489567E-013  0.5930191E+02  0.7816164E-02  0.1266605E+00
        -11   -1    0    0    0    0  0.00000000000E+00  0.00000000000E+00  0.45593999997E+02  0.45594000000E+02  0.51100000000E-03 0. -1.
         11   -1    0    0    0    0 -0.00000000000E+00 -0.00000000000E+00 -0.45593999997E+02  0.45594000000E+02  0.51100000000E-03 0.  1.
    9900012    2    1    2    0    0 -0.24872775785E+02 -0.12349489798E+02 -0.15670295314E+02  0.59301905401E+02  0.49999929555E+02 0.  0.
        -12    1    1    2    0    0  0.24872775785E+02  0.12349489798E+02  0.15670295314E+02  0.31886094599E+02  0.00000000000E+00 0.  1.
         11    1    3    3    0    0 -0.12343658766E+02  0.16365987582E+02 -0.13875926782E+02  0.24753844259E+02  0.51100000000E-03 0. -1.
        -11    1    3    3    0    0  0.78724788658E-01 -0.37632948274E+01 -0.51628133044E+01  0.63893056765E+01  0.51100000000E-03 0.  1.
         12    1    3    3    0    0 -0.12607841808E+02 -0.24952182553E+02  0.33684447729E+01  0.28158755466E+02  0.00000000000E+00 0. -1.
</event>
<event>
 7    1  0.6489567E-013  0.5930198E+02  0.7816164E-02  0.1266605E+00
        -11   -1    0    0    0    0  0.00000000000E+00  0.00000000000E+00  0.45593999997E+02  0.45594000000E+02  0.51100000000E-03 0. -1.
         11   -1    0    0    0    0 -0.00000000000E+00 -0.00000000000E+00 -0.45593999997E+02  0.45594000000E+02  0.51100000000E-03 0.  1.
    9900012    2    1    2    0    0  0.12240749216E+02 -0.38639480708E+01  0.29188221771E+02  0.59301979141E+02  0.50000064039E+02 0.  0.
        -12    1    1    2    0    0 -0.12240749216E+02  0.38639480708E+01 -0.29188221771E+02  0.31886020859E+02  0.00000000000E+00 0.  1.
         11    1    3    3    0    0  0.15034846765E+02 -0.20212737948E+01  0.41812895679E+02  0.44479775295E+02  0.51100000000E-03 0. -1.
        -11    1    3    3    0    0 -0.33009986796E+01  0.15228248610E+01 -0.33527368477E+01  0.49453445250E+01  0.51100000000E-03 0.  1.
        -12    1    3    3    0    0  0.50690113072E+00 -0.33654991370E+01 -0.92719370605E+01  0.98768593212E+01  0.00000000000E+00 0.  1.
</event>
<event>
 7    1  0.6489567E-013  0.5930195E+02  0.7816164E-02  0.1266605E+00
        -11   -1    0    0    0    0  0.00000000000E+00  0.00000000000E+00  0.45593999997E+02  0.45594000000E+02  0.51100000000E-03 0.  1.
         11   -1    0    0    0    0 -0.00000000000E+00 -0.00000000000E+00 -0.45593999997E+02  0.45594000000E+02  0.51100000000E-03 0. -1.
    9900012    2    1    2    0    0 -0.14407530922E+02  0.11739568391E+02 -0.25909953610E+02  0.59301951180E+02  0.50000013044E+02 0.  0.
        -12    1    1    2    0    0  0.14407530922E+02 -0.11739568391E+02  0.25909953610E+02  0.31886048820E+02  0.00000000000E+00 0.  1.
         11    1    3    3    0    0 -0.10828055058E+02  0.84063879168E+01 -0.13317272816E+02  0.19111878235E+02  0.51100000000E-03 0. -1.
        -11    1    3    3    0    0  0.11691654008E+02  0.74910993519E+01 -0.18643057608E+02  0.23245966106E+02  0.51100000000E-03 0.  1.
         12    1    3    3    0    0 -0.15271129872E+02 -0.41579188781E+01  0.60503768143E+01  0.16944106839E+02  0.00000000000E+00 0. -1.
</event>
<event>
 7    1  0.6489567E-013  0.5930195E+02  0.7816164E-02  0.1266605E+00
        -11   -1    0    0    0    0  0.00000000000E+00  0.00000000000E+00  0.45593999997E+02  0.45594000000E+02  0.51100000000E-03 0.  1.
         11   -1    0    0    0    0 -0.00000000000E+00 -0.00000000000E+00 -0.45593999997E+02  0.45594000000E+02  0.51100000000E-03 0. -1.
    9900012    2    1    2    0    0  0.23220080525E+02 -0.22246257442E+01 -0.21739337824E+02  0.59301954333E+02  0.50000018794E+02 0.  0.
        -12    1    1    2    0    0 -0.23220080525E+02  0.22246257442E+01  0.21739337824E+02  0.31886045667E+02  0.00000000000E+00 0.  1.
         11    1    3    3    0    0 -0.97958775197E+00 -0.26157057332E+01  0.41455440974E+01  0.49987043092E+01  0.51100000000E-03 0. -1.
        -11    1    3    3    0    0  0.19178415387E+01  0.18724229723E+02 -0.88929946137E+01  0.20817306462E+02  0.51100000000E-03 0.  1.
         12    1    3    3    0    0  0.22281826738E+02 -0.18333149734E+02 -0.16991887307E+02  0.33485943562E+02  0.00000000000E+00 0. -1.
</event>
<event>
 7    1  0.6489567E-013  0.5930197E+02  0.7816164E-02  0.1266605E+00
        -11   -1    0    0    0    0  0.00000000000E+00  0.00000000000E+00  0.45593999997E+02  0.45594000000E+02  0.51100000000E-03 0. -1.
         11   -1    0    0    0    0 -0.00000000000E+00 -0.00000000000E+00 -0.45593999997E+02  0.45594000000E+02  0.51100000000E-03 0.  1.
    9900012    2    1    2    0    0  0.13989804107E+02  0.22176670847E+02  0.18143865330E+02  0.59301965471E+02  0.50000039108E+02 0.  0.
        -12    1    1    2    0    0 -0.13989804107E+02 -0.22176670847E+02 -0.18143865330E+02  0.31886034529E+02  0.00000000000E+00 0.  1.
         11    1    3    3    0    0  0.40514980095E+01  0.98717012921E+01  0.24942043281E+02  0.27128778923E+02  0.51100000000E-03 0. -1.
        -11    1    3    3    0    0  0.14829823222E+01 -0.42928511334E+01  0.74472881329E+01  0.87229529528E+01  0.51100000000E-03 0.  1.
        -12    1    3    3    0    0  0.84553237754E+01  0.16597820689E+02 -0.14245466084E+02  0.23450233596E+02  0.00000000000E+00 0.  1.
</event>
<event>
 7    1  0.6489567E-013  0.5930191E+02  0.7816164E-02  0.1266605E+00
        -11   -1    0    0    0    0  0.00000000000E+00  0.00000000000E+00  0.45593999997E+02  0.45594000000E+02  0.51100000000E-03 0. -1.
         11   -1    0    0    0    0 -0.00000000000E+00 -0.00000000000E+00 -0.45593999997E+02  0.45594000000E+02  0.51100000000E-03 0.  1.
    9900012    2    1    2    0    0 -0.95437891742E+01  0.28585871594E+02  0.10415692918E+02  0.59301911724E+02  0.49999941085E+02 0.  0.
        -12    1    1    2    0    0  0.95437891742E+01 -0.28585871594E+02 -0.10415692918E+02  0.31886088276E+02  0.00000000000E+00 0.  1.
         11    1    3    3    0    0 -0.72695285557E+01  0.94827874451E+01  0.10234019522E+02  0.15732274438E+02  0.51100000000E-03 0. -1.
        -11    1    3    3    0    0 -0.10675594926E+02 -0.90698914591E+01 -0.16972068336E+01  0.14110696985E+02  0.51100000000E-03 0.  1.
        -12    1    3    3    0    0  0.84013343071E+01  0.28172975608E+02  0.18788802297E+01  0.29458940301E+02  0.00000000000E+00 0.  1.
</event>
<event>
 7    1  0.6489567E-013  0.5930195E+02  0.7816164E-02  0.1266605E+00
        -11   -1    0    0    0    0  0.00000000000E+00  0.00000000000E+00  0.45593999997E+02  0.45594000000E+02  0.51100000000E-03 0.  1.
         11   -1    0    0    0    0 -0.00000000000E+00 -0.00000000000E+00 -0.45593999997E+02  0.45594000000E+02  0.51100000000E-03 0. -1.
    9900012    2    1    2    0    0 -0.69933987922E+01 -0.29182386161E+02  0.10779641022E+02  0.59301953690E+02  0.50000017622E+02 0.  0.
        -12    1    1    2    0    0  0.69933987922E+01  0.29182386161E+02 -0.10779641022E+02  0.31886046310E+02  0.00000000000E+00 0.  1.
         11    1    3    3    0    0 -0.13329266433E+02 -0.11667516759E+02 -0.71754203763E+01  0.19112481493E+02  0.51100000000E-03 0. -1.
        -11    1    3    3    0    0 -0.27275492311E+00  0.87544987862E+01  0.57601813094E+01  0.10483097501E+02  0.51100000000E-03 0.  1.
        -12    1    3    3    0    0  0.66086225643E+01 -0.26269368188E+02  0.12194880089E+02  0.29706374696E+02  0.00000000000E+00 0.  1.
</event>
<event>
 7    1  0.6489567E-013  0.5930203E+02  0.7816164E-02  0.1266604E+00
        -11   -1    0    0    0    0  0.00000000000E+00  0.00000000000E+00  0.45593999997E+02  0.45594000000E+02  0.51100000000E-03 0. -1.
         11   -1    0    0    0    0 -0.00000000000E+00 -0.00000000000E+00 -0.45593999997E+02  0.45594000000E+02  0.51100000000E-03 0.  1.
    9900012    2    1    2    0    0  0.12495382839E+02 -0.70377356528E+01  0.28478952335E+02  0.59302030648E+02  0.50000157975E+02 0.  0.
        -12    1    1    2    0    0 -0.12495382839E+02  0.70377356528E+01 -0.28478952335E+02  0.31885969352E+02  0.00000000000E+00 0.  1.
         11    1    3    3    0    0  0.16981200955E+02  0.44548753938E+01  0.18449415726E+02  0.25467391730E+02  0.51100000000E-03 0. -1.
        -11    1    3    3    0    0 -0.14830586507E+01  0.54910022952E+01  0.14870482259E+02  0.15921112148E+02  0.51100000000E-03 0.  1.
        -12    1    3    3    0    0 -0.30027594652E+01 -0.16983613342E+02 -0.48409456500E+01  0.17913526770E+02  0.00000000000E+00 0.  1.
</event>
<event>
 7    1  0.6489567E-013  0.5930195E+02  0.7816164E-02  0.1266605E+00
        -11   -1    0    0    0    0  0.00000000000E+00  0.00000000000E+00  0.45593999997E+02  0.45594000000E+02  0.51100000000E-03 0. -1.
         11   -1    0    0    0    0 -0.00000000000E+00 -0.00000000000E+00 -0.45593999997E+02  0.45594000000E+02  0.51100000000E-03 0.  1.
    9900012    2    1    2    0    0  0.19793898821E+01  0.20049854055E+02  0.24714486077E+02  0.59301945776E+02  0.50000003189E+02 0.  0.
        -12    1    1    2    0    0 -0.19793898821E+01 -0.20049854055E+02 -0.24714486077E+02  0.31886054224E+02  0.00000000000E+00 0.  1.
         11    1    3    3    0    0  0.15027073193E+00 -0.85440658634E+01 -0.59083876120E+00  0.85657885494E+01  0.51100000000E-03 0. -1.
        -11    1    3    3    0    0  0.17019865156E+02  0.10119124215E+02  0.87534930224E+01  0.21649390872E+02  0.51100000000E-03 0.  1.
         12    1    3    3    0    0 -0.15190746006E+02  0.18474795704E+02  0.16551831815E+02  0.29086766354E+02  0.00000000000E+00 0. -1.
</event>
<event>
 7    1  0.7018927E-013  0.5930195E+02  0.7816164E-02  0.1266605E+00
        -11   -1    0    0    0    0  0.00000000000E+00  0.00000000000E+00  0.45593999997E+02  0.45594000000E+02  0.51100000000E-03 0. -1.
         11   -1    0    0    0    0 -0.00000000000E+00 -0.00000000000E+00 -0.45593999997E+02  0.45594000000E+02  0.51100000000E-03 0.  1.
    9900012    2    1    2    0    0 -0.16880893470E+02 -0.12385645187E+02  0.24048941063E+02  0.59301947605E+02  0.50000006525E+02 0.  0.
        -12    1    1    2    0    0  0.16880893470E+02  0.12385645187E+02 -0.24048941063E+02  0.31886052395E+02  0.00000000000E+00 0.  1.
         11    1    3    3    0    0 -0.27637154063E+01 -0.33407057629E+01 -0.78587245680E+01  0.89754102935E+01  0.51100000000E-03 0.  1.
        -11    1    3    3    0    0  0.83130009432E+01  0.67259539513E+01  0.13838895796E+02  0.17488838679E+02  0.51100000000E-03 0. -1.
         12    1    3    3    0    0 -0.22430179007E+02 -0.15770893376E+02  0.18068769836E+02  0.32837698633E+02  0.00000000000E+00 0. -1.
</event>
<event>
 7    1  0.6489567E-013  0.5930195E+02  0.7816164E-02  0.1266605E+00
        -11   -1    0    0    0    0  0.00000000000E+00  0.00000000000E+00  0.45593999997E+02  0.45594000000E+02  0.51100000000E-03 0.  1.
         11   -1    0    0    0    0 -0.00000000000E+00 -0.00000000000E+00 -0.45593999997E+02  0.45594000000E+02  0.51100000000E-03 0. -1.
    9900012    2    1    2    0    0 -0.19048912244E+02  0.23258165580E+02  0.10626242846E+02  0.59301947236E+02  0.50000005852E+02 0.  0.
        -12    1    1    2    0    0  0.19048912244E+02 -0.23258165580E+02 -0.10626242846E+02  0.31886052764E+02  0.00000000000E+00 0.  1.
         11    1    3    3    0    0 -0.57830956288E+01 -0.12163892789E+00  0.79508673458E+01  0.98323589689E+01  0.51100000000E-03 0. -1.
        -11    1    3    3    0    0 -0.49669268347E+01 -0.34501929305E+01 -0.15077271133E+02  0.16244946861E+02  0.51100000000E-03 0.  1.
         12    1    3    3    0    0 -0.82988897803E+01  0.26829997438E+02  0.17752646633E+02  0.33224641407E+02  0.00000000000E+00 0. -1.
</event>
<event>
 7    1  0.6489567E-013  0.5930194E+02  0.7816164E-02  0.1266605E+00
        -11   -1    0    0    0    0  0.00000000000E+00  0.00000000000E+00  0.45593999997E+02  0.45594000000E+02  0.51100000000E-03 0. -1.
         11   -1    0    0    0    0 -0.00000000000E+00 -0.00000000000E+00 -0.45593999997E+02  0.45594000000E+02  0.51100000000E-03 0.  1.
    9900012    2    1    2    0    0 -0.27516018946E+02  0.16017476140E+02  0.17407142949E+01  0.59301938362E+02  0.49999989667E+02 0.  0.
        -12    1    1    2    0    0  0.27516018946E+02 -0.16017476140E+02 -0.17407142949E+01  0.31886061638E+02  0.00000000000E+00 0.  1.
         11    1    3    3    0    0 -0.11004860901E+02  0.58019112919E+01  0.15436558285E+02  0.19825651819E+02  0.51100000000E-03 0. -1.
        -11    1    3    3    0    0 -0.68137522841E+01  0.86365120200E+01  0.93410951454E+01  0.14431653365E+02  0.51100000000E-03 0.  1.
        -12    1    3    3    0    0 -0.96974057607E+01  0.15790528285E+01 -0.23036939135E+02  0.25044633179E+02  0.00000000000E+00 0.  1.
</event>
<event>
 7    1  0.6489567E-013  0.5930200E+02  0.7816164E-02  0.1266605E+00
        -11   -1    0    0    0    0  0.00000000000E+00  0.00000000000E+00  0.45593999997E+02  0.45594000000E+02  0.51100000000E-03 0. -1.
         11   -1    0    0    0    0 -0.00000000000E+00 -0.00000000000E+00 -0.45593999997E+02  0.45594000000E+02  0.51100000000E-03 0.  1.
    9900012    2    1    2    0    0  0.22308624185E+02  0.11260670864E+02  0.19805031787E+02  0.59302004556E+02  0.50000110389E+02 0.  0.
        -12    1    1    2    0    0 -0.22308624185E+02 -0.11260670864E+02 -0.19805031787E+02  0.31885995444E+02  0.00000000000E+00 0.  1.
         11    1    3    3    0    0  0.82956548337E+01 -0.90672405089E+01  0.12169543618E+02  0.17295390475E+02  0.51100000000E-03 0. -1.
        -11    1    3    3    0    0  0.16734330923E+00  0.90335056537E+00 -0.11431703149E+02  0.11468560641E+02  0.51100000000E-03 0.  1.
         12    1    3    3    0    0  0.13845626043E+02  0.19424560808E+02  0.19067191319E+02  0.30538053440E+02  0.00000000000E+00 0. -1.
</event>
<event>
 7    1  0.6489567E-013  0.5930192E+02  0.7816164E-02  0.1266605E+00
        -11   -1    0    0    0    0  0.00000000000E+00  0.00000000000E+00  0.45593999997E+02  0.45594000000E+02  0.51100000000E-03 0. -1.
         11   -1    0    0    0    0 -0.00000000000E+00 -0.00000000000E+00 -0.45593999997E+02  0.45594000000E+02  0.51100000000E-03 0.  1.
    9900012    2    1    2    0    0 -0.10044585158E+01 -0.86547185475E+01  0.30672613257E+02  0.59301916922E+02  0.49999950566E+02 0.  0.
        -12    1    1    2    0    0  0.10044585158E+01  0.86547185475E+01 -0.30672613257E+02  0.31886083078E+02  0.00000000000E+00 0.  1.
         11    1    3    3    0    0  0.57200791768E+01  0.15541062283E+02  0.10643394859E+02  0.19685674412E+02  0.51100000000E-03 0. -1.
        -11    1    3    3    0    0 -0.30653779979E+01 -0.41253277555E+01 -0.51051981618E+01  0.72441645406E+01  0.51100000000E-03 0.  1.
         12    1    3    3    0    0 -0.36591596948E+01 -0.20070453075E+02  0.25134416560E+02  0.32372077970E+02  0.00000000000E+00 0. -1.
</event>
<event>
 7    1  0.6489567E-013  0.5930197E+02  0.7816164E-02  0.1266605E+00
        -11   -1    0    0    0    0  0.00000000000E+00  0.00000000000E+00  0.45593999997E+02  0.45594000000E+02  0.51100000000E-03 0.  1.
         11   -1    0    0    0    0 -0.00000000000E+00 -0.00000000000E+00 -0.45593999997E+02  0.45594000000E+02  0.51100000000E-03 0. -1.
    9900012    2    1    2    0    0 -0.17133640575E+02  0.18149368794E+02 -0.19843323888E+02  0.59301972811E+02  0.50000052494E+02 0.  0.
        -12    1    1    2    0    0  0.17133640575E+02 -0.18149368794E+02  0.19843323888E+02  0.31886027189E+02  0.00000000000E+00 0.  1.
         11    1    3    3    0    0 -0.17446094672E+02  0.24346755401E+01 -0.72610338434E+01  0.19052991288E+02  0.51100000000E-03 0. -1.
        -11    1    3    3    0    0 -0.12377347226E+02 -0.10180717283E+01  0.44680792476E+01  0.13198444106E+02  0.51100000000E-03 0.  1.
        -12    1    3    3    0    0  0.12689801323E+02  0.16732764983E+02 -0.17050369292E+02  0.27050537417E+02  0.00000000000E+00 0.  1.
</event>
<event>
 7    1  0.6489567E-013  0.5930195E+02  0.7816164E-02  0.1266605E+00
        -11   -1    0    0    0    0  0.00000000000E+00  0.00000000000E+00  0.45593999997E+02  0.45594000000E+02  0.51100000000E-03 0.  1.
         11   -1    0    0    0    0 -0.00000000000E+00 -0.00000000000E+00 -0.45593999997E+02  0.45594000000E+02  0.51100000000E-03 0. -1.
    9900012    2    1    2    0    0 -0.25224524406E+02  0.15727237035E+02 -0.11536782369E+02  0.59301953464E+02  0.50000017209E+02 0.  0.
        -12    1    1    2    0    0  0.25224524406E+02 -0.15727237035E+02  0.11536782369E+02  0.31886046536E+02  0.00000000000E+00 0.  1.
         11    1    3    3    0    0  0.83907154105E+01  0.11545345141E+01  0.52870040165E+01  0.99844612662E+01  0.51100000000E-03 0. -1.
        -11    1    3    3    0    0 -0.35279446358E+01 -0.43719381687E+01  0.50658864631E+01  0.75646178107E+01  0.51100000000E-03 0.  1.
         12    1    3    3    0    0 -0.30087295181E+02  0.18944640690E+02 -0.21889672848E+02  0.41752874387E+02  0.00000000000E+00 0. -1.
</event>
<event>
 7    1  0.6489567E-013  0.5930186E+02  0.7816164E-02  0.1266605E+00
        -11   -1    0    0    0    0  0.00000000000E+00  0.00000000000E+00  0.45593999997E+02  0.45594000000E+02  0.51100000000E-03 0.  1.
         11   -1    0    0    0    0 -0.00000000000E+00 -0.00000000000E+00 -0.45593999997E+02  0.45594000000E+02  0.51100000000E-03 0. -1.
    9900012    2    1    2    0    0  0.66854280943E+01 -0.28158094933E+02  0.13384801044E+02  0.59301856332E+02  0.49999840063E+02 0.  0.
        -12    1    1    2    0    0 -0.66854280943E+01  0.28158094933E+02 -0.13384801044E+02  0.31886143668E+02  0.00000000000E+00 0.  1.
         11    1    3    3    0    0 -0.11915424259E+00 -0.20701956667E+02 -0.72534791806E+01  0.21936229577E+02  0.51100000000E-03 0. -1.
        -11    1    3    3    0    0  0.81378718196E+01 -0.14178911081E+02  0.79001300456E+00  0.16367363807E+02  0.51100000000E-03 0.  1.
        -12    1    3    3    0    0 -0.13332894827E+01  0.67227728148E+01  0.19848267220E+02  0.20998262947E+02  0.00000000000E+00 0.  1.
</event>
<event>
 7    1  0.6489567E-013  0.5930193E+02  0.7816164E-02  0.1266605E+00
        -11   -1    0    0    0    0  0.00000000000E+00  0.00000000000E+00  0.45593999997E+02  0.45594000000E+02  0.51100000000E-03 0.  1.
         11   -1    0    0    0    0 -0.00000000000E+00 -0.00000000000E+00 -0.45593999997E+02  0.45594000000E+02  0.51100000000E-03 0. -1.
    9900012    2    1    2    0    0 -0.24108665654E+02 -0.80521881953E+01 -0.19252435370E+02  0.59301925264E+02  0.49999965780E+02 0.  0.
        -12    1    1    2    0    0  0.24108665654E+02  0.80521881953E+01  0.19252435370E+02  0.31886074736E+02  0.00000000000E+00 0.  1.
         11    1    3    3    0    0 -0.25408851101E+01 -0.21096465804E+02  0.22891035233E+01  0.21371873146E+02  0.51100000000E-03 0. -1.
        -11    1    3    3    0    0 -0.14103809861E+02 -0.13969388378E+01 -0.58389303897E+01  0.15328470213E+02  0.51100000000E-03 0.  1.
         12    1    3    3    0    0 -0.74639706832E+01  0.14441216447E+02 -0.15702608504E+02  0.22601581906E+02  0.00000000000E+00 0. -1.
</event>
<event>
 7    1  0.6489567E-013  0.5930197E+02  0.7816164E-02  0.1266605E+00
        -11   -1    0    0    0    0  0.00000000000E+00  0.00000000000E+00  0.45593999997E+02  0.45594000000E+02  0.51100000000E-03 0. -1.
         11   -1    0    0    0    0 -0.00000000000E+00 -0.00000000000E+00 -0.45593999997E+02  0.45594000000E+02  0.51100000000E-03 0.  1.
    9900012    2    1    2    0    0 -0.11908347950E+02 -0.12321945189E+02  0.26890146106E+02  0.59301967921E+02  0.50000043575E+02 0.  0.
        -12    1    1    2    0    0  0.11908347950E+02  0.12321945189E+02 -0.26890146106E+02  0.31886032079E+02  0.00000000000E+00 0.  1.
         11    1    3    3    0    0  0.68353613143E+01 -0.85950862966E+00 -0.48334979009E+01  0.84156771326E+01  0.51100000000E-03 0. -1.
        -11    1    3    3    0    0 -0.13063386821E+02  0.29885084794E+01 -0.21978854776E+01  0.13579910125E+02  0.51100000000E-03 0.  1.
         12    1    3    3    0    0 -0.56803224431E+01 -0.14450945039E+02  0.33921529485E+02  0.37306380663E+02  0.00000000000E+00 0. -1.
</event>
<event>
 7    1  0.6489567E-013  0.5930194E+02  0.7816164E-02  0.1266605E+00
        -11   -1    0    0    0    0  0.00000000000E+00  0.00000000000E+00  0.45593999997E+02  0.45594000000E+02  0.51100000000E-03 0.  1.
         11   -1    0    0    0    0 -0.00000000000E+00 -0.00000000000E+00 -0.45593999997E+02  0.45594000000E+02  0.51100000000E-03 0. -1.
    9900012    2    1    2    0    0  0.21931828474E+02 -0.22210193463E+02 -0.65133019775E+01  0.59301938837E+02  0.49999990533E+02 0.  0.
        -12    1    1    2    0    0 -0.21931828474E+02  0.22210193463E+02  0.65133019775E+01  0.31886061163E+02  0.00000000000E+00 0.  1.
         11    1    3    3    0    0 -0.25704809170E+01 -0.78720645633E+00  0.40250140440E+01  0.48402277286E+01  0.51100000000E-03 0. -1.
        -11    1    3    3    0    0  0.10969991502E+02  0.11992370285E+02 -0.85275239648E+01  0.18354190907E+02  0.51100000000E-03 0.  1.
         12    1    3    3    0    0  0.13532317888E+02 -0.33415357292E+02 -0.20107920567E+01  0.36107520201E+02  0.00000000000E+00 0. -1.
</event>
<event>
 7    1  0.6489567E-013  0.5930195E+02  0.7816164E-02  0.1266605E+00
        -11   -1    0    0    0    0  0.00000000000E+00  0.00000000000E+00  0.45593999997E+02  0.45594000000E+02  0.51100000000E-03 0.  1.
         11   -1    0    0    0    0 -0.00000000000E+00 -0.00000000000E+00 -0.45593999997E+02  0.45594000000E+02  0.51100000000E-03 0. -1.
    9900012    2    1    2    0    0 -0.10043024282E+02 -0.11405400764E+02 -0.28031678239E+02  0.59301945239E+02  0.50000002209E+02 0.  0.
        -12    1    1    2    0    0  0.10043024282E+02  0.11405400764E+02  0.28031678239E+02  0.31886054761E+02  0.00000000000E+00 0.  1.
         11    1    3    3    0    0 -0.35733120837E+01 -0.99114634764E+01 -0.28497518268E+02  0.30382794723E+02  0.51100000000E-03 0. -1.
        -11    1    3    3    0    0  0.63429704631E+01 -0.41312247158E+01 -0.97342845991E+01  0.12331122774E+02  0.51100000000E-03 0.  1.
         12    1    3    3    0    0 -0.12812682662E+02  0.26372874280E+01  0.10200124628E+02  0.16588027743E+02  0.00000000000E+00 0. -1.
</event>
<event>
 7    1  0.6489567E-013  0.5930194E+02  0.7816164E-02  0.1266605E+00
        -11   -1    0    0    0    0  0.00000000000E+00  0.00000000000E+00  0.45593999997E+02  0.45594000000E+02  0.51100000000E-03 0.  1.
         11   -1    0    0    0    0 -0.00000000000E+00 -0.00000000000E+00 -0.45593999997E+02  0.45594000000E+02  0.51100000000E-03 0. -1.
    9900012    2    1    2    0    0 -0.30213865601E+02 -0.18457131060E+01  0.10021803473E+02  0.59301939154E+02  0.49999991112E+02 0.  0.
        -12    1    1    2    0    0  0.30213865601E+02  0.18457131060E+01 -0.10021803473E+02  0.31886060846E+02  0.00000000000E+00 0.  1.
         11    1    3    3    0    0 -0.17033603452E+02  0.11383939352E+02  0.50317044390E+01  0.21096344981E+02  0.51100000000E-03 0. -1.
        -11    1    3    3    0    0 -0.17334533917E+02 -0.77446133375E+01 -0.10183668682E+02  0.21544656181E+02  0.51100000000E-03 0.  1.
        -12    1    3    3    0    0  0.41542717684E+01 -0.54850391204E+01  0.15173767716E+02  0.16660937993E+02  0.00000000000E+00 0.  1.
</event>
<event>
 7    1  0.6489567E-013  0.5930194E+02  0.7816164E-02  0.1266605E+00
        -11   -1    0    0    0    0  0.00000000000E+00  0.00000000000E+00  0.45593999997E+02  0.45594000000E+02  0.51100000000E-03 0.  1.
         11   -1    0    0    0    0 -0.00000000000E+00 -0.00000000000E+00 -0.45593999997E+02  0.45594000000E+02  0.51100000000E-03 0. -1.
    9900012    2    1    2    0    0  0.46235786060E+01 -0.22422606321E+02 -0.22193926769E+02  0.59301935038E+02  0.49999983605E+02 0.  0.
        -12    1    1    2    0    0 -0.46235786060E+01  0.22422606321E+02  0.22193926769E+02  0.31886064962E+02  0.00000000000E+00 0.  1.
         11    1    3    3    0    0 -0.12607648487E+02 -0.18359971172E+02 -0.15174347799E+02  0.26949993937E+02  0.51100000000E-03 0. -1.
        -11    1    3    3    0    0 -0.18180111754E+01 -0.45356283339E+01 -0.11743899529E+02  0.12719916093E+02  0.51100000000E-03 0.  1.
        -12    1    3    3    0    0  0.19049238268E+02  0.47299318581E+00  0.47243205588E+01  0.19632025008E+02  0.00000000000E+00 0.  1.
</event>
<event>
 7    1  0.6489567E-013  0.5930197E+02  0.7816164E-02  0.1266605E+00
        -11   -1    0    0    0    0  0.00000000000E+00  0.00000000000E+00  0.45593999997E+02  0.45594000000E+02  0.51100000000E-03 0.  1.
         11   -1    0    0    0    0 -0.00000000000E+00 -0.00000000000E+00 -0.45593999997E+02  0.45594000000E+02  0.51100000000E-03 0. -1.
    9900012    2    1    2    0    0  0.36329631121E+01  0.50668089188E+01 -0.31270565281E+02  0.59301965023E+02  0.50000038290E+02 0.  0.
        -12    1    1    2    0    0 -0.36329631121E+01 -0.50668089188E+01  0.31270565281E+02  0.31886034977E+02  0.00000000000E+00 0.  1.
         11    1    3    3    0    0  0.11823030565E+02  0.17060286822E+02 -0.54454809824E+01  0.21459047080E+02  0.51100000000E-03 0. -1.
        -11    1    3    3    0    0  0.15232304497E+01 -0.49125292892E+01  0.34519863097E+01  0.61943026051E+01  0.51100000000E-03 0.  1.
        -12    1    3    3    0    0 -0.97132979027E+01 -0.70809486139E+01 -0.29277070608E+02  0.31648615338E+02  0.00000000000E+00 0.  1.
</event>
<event>
 7    1  0.6489567E-013  0.5930196E+02  0.7816164E-02  0.1266605E+00
        -11   -1    0    0    0    0  0.00000000000E+00  0.00000000000E+00  0.45593999997E+02  0.45594000000E+02  0.51100000000E-03 0.  1.
         11   -1    0    0    0    0 -0.00000000000E+00 -0.00000000000E+00 -0.45593999997E+02  0.45594000000E+02  0.51100000000E-03 0. -1.
    9900012    2    1    2    0    0 -0.18763675075E+02  0.22107199573E+02 -0.13263335841E+02  0.59301955201E+02  0.50000020378E+02 0.  0.
        -12    1    1    2    0    0  0.18763675075E+02 -0.22107199573E+02  0.13263335841E+02  0.31886044799E+02  0.00000000000E+00 0.  1.
         11    1    3    3    0    0 -0.57760945568E+01  0.19380383073E+02 -0.11146845072E+02  0.23091441525E+02  0.51100000000E-03 0. -1.
        -11    1    3    3    0    0  0.17549768695E+01 -0.69487826211E+01 -0.13455687546E+02  0.15245361633E+02  0.51100000000E-03 0.  1.
         12    1    3    3    0    0 -0.14742557388E+02  0.96755991208E+01  0.11339196776E+02  0.20965152044E+02  0.00000000000E+00 0. -1.
</event>
<event>
 7    1  0.6489567E-013  0.5930196E+02  0.7816164E-02  0.1266605E+00
        -11   -1    0    0    0    0  0.00000000000E+00  0.00000000000E+00  0.45593999997E+02  0.45594000000E+02  0.51100000000E-03 0.  1.
         11   -1    0    0    0    0 -0.00000000000E+00 -0.00000000000E+00 -0.45593999997E+02  0.45594000000E+02  0.51100000000E-03 0. -1.
    9900012    2    1    2    0    0 -0.23518868309E+02  0.21229953263E+02 -0.35877005220E+01  0.59301957957E+02  0.50000025405E+02 0.  0.
        -12    1    1    2    0    0  0.23518868309E+02 -0.21229953263E+02  0.35877005220E+01  0.31886042043E+02  0.00000000000E+00 0.  1.
         11    1    3    3    0    0 -0.31688454078E+02  0.15599178495E+02  0.22030150082E+01  0.35388497664E+02  0.51100000000E-03 0. -1.
        -11    1    3    3    0    0 -0.13820242877E+01 -0.37618166643E+01  0.52144262506E+01  0.65765870428E+01  0.51100000000E-03 0.  1.
        -12    1    3    3    0    0  0.95516100562E+01  0.93925914325E+01 -0.11005141781E+02  0.17336873250E+02  0.00000000000E+00 0.  1.
</event>
<event>
 7    1  0.6489567E-013  0.5930193E+02  0.7816164E-02  0.1266605E+00
        -11   -1    0    0    0    0  0.00000000000E+00  0.00000000000E+00  0.45593999997E+02  0.45594000000E+02  0.51100000000E-03 0. -1.
         11   -1    0    0    0    0 -0.00000000000E+00 -0.00000000000E+00 -0.45593999997E+02  0.45594000000E+02  0.51100000000E-03 0.  1.
    9900012    2    1    2    0    0  0.17388037523E+02 -0.26662274820E+02 -0.18710214100E+01  0.59301929866E+02  0.49999974172E+02 0.  0.
        -12    1    1    2    0    0 -0.17388037523E+02  0.26662274820E+02  0.18710214100E+01  0.31886070134E+02  0.00000000000E+00 0.  1.
         11    1    3    3    0    0  0.76611363457E+01 -0.58497645279E+01  0.12165958971E+02  0.15521704581E+02  0.51100000000E-03 0. -1.
        -11    1    3    3    0    0  0.89076817887E+01 -0.16914897245E+02  0.84802214695E+01  0.20913505208E+02  0.51100000000E-03 0.  1.
        -12    1    3    3    0    0  0.81921938855E+00 -0.38976130478E+01 -0.22517201851E+02  0.22866720077E+02  0.00000000000E+00 0.  1.
</event>
<event>
 7    1  0.6489567E-013  0.5930197E+02  0.7816164E-02  0.1266605E+00
        -11   -1    0    0    0    0  0.00000000000E+00  0.00000000000E+00  0.45593999997E+02  0.45594000000E+02  0.51100000000E-03 0.  1.
         11   -1    0    0    0    0 -0.00000000000E+00 -0.00000000000E+00 -0.45593999997E+02  0.45594000000E+02  0.51100000000E-03 0. -1.
    9900012    2    1    2    0    0  0.79336915474E+01 -0.16520709501E+02 -0.26092945076E+02  0.59301967216E+02  0.50000042290E+02 0.  0.
        -12    1    1    2    0    0 -0.79336915474E+01  0.16520709501E+02  0.26092945076E+02  0.31886032784E+02  0.00000000000E+00 0.  1.
         11    1    3    3    0    0  0.16403880027E+02  0.10168493512E+02 -0.15867388354E+02  0.24985186685E+02  0.51100000000E-03 0. -1.
        -11    1    3    3    0    0 -0.16433834189E+01  0.20497886278E+01  0.86305560596E+00  0.27653585156E+01  0.51100000000E-03 0.  1.
        -12    1    3    3    0    0 -0.68268050611E+01 -0.28738991640E+02 -0.11088612328E+02  0.31551422016E+02  0.00000000000E+00 0.  1.
</event>
<event>
 7    1  0.6489567E-013  0.5930189E+02  0.7816164E-02  0.1266605E+00
        -11   -1    0    0    0    0  0.00000000000E+00  0.00000000000E+00  0.45593999997E+02  0.45594000000E+02  0.51100000000E-03 0.  1.
         11   -1    0    0    0    0 -0.00000000000E+00 -0.00000000000E+00 -0.45593999997E+02  0.45594000000E+02  0.51100000000E-03 0. -1.
    9900012    2    1    2    0    0  0.14705691994E+02 -0.27897147233E+02  0.47133419641E+01  0.59301893414E+02  0.49999907693E+02 0.  0.
        -12    1    1    2    0    0 -0.14705691994E+02  0.27897147233E+02 -0.47133419641E+01  0.31886106586E+02  0.00000000000E+00 0.  1.
         11    1    3    3    0    0  0.19371318699E+00 -0.89556102140E+01 -0.12782559471E+02  0.15608789383E+02  0.51100000000E-03 0. -1.
        -11    1    3    3    0    0 -0.59742335632E+01 -0.15003451909E+02  0.16071085603E+02  0.22783213745E+02  0.51100000000E-03 0.  1.
         12    1    3    3    0    0  0.20486212370E+02 -0.39380851098E+01  0.14248158323E+01  0.20909890286E+02  0.00000000000E+00 0. -1.
</event>
<event>
 7    1  0.6489567E-013  0.5930193E+02  0.7816164E-02  0.1266605E+00
        -11   -1    0    0    0    0  0.00000000000E+00  0.00000000000E+00  0.45593999997E+02  0.45594000000E+02  0.51100000000E-03 0.  1.
         11   -1    0    0    0    0 -0.00000000000E+00 -0.00000000000E+00 -0.45593999997E+02  0.45594000000E+02  0.51100000000E-03 0. -1.
    9900012    2    1    2    0    0 -0.38845107197E+01 -0.26060197258E+02 -0.17958237223E+02  0.59301927981E+02  0.49999970734E+02 0.  0.
        -12    1    1    2    0    0  0.38845107197E+01  0.26060197258E+02  0.17958237223E+02  0.31886072019E+02  0.00000000000E+00 0.  1.
         11    1    3    3    0    0  0.14008067326E+02 -0.40105254270E+01 -0.11288561968E+02  0.18432088758E+02  0.51100000000E-03 0. -1.
        -11    1    3    3    0    0 -0.85630838986E+01  0.48504116531E+01 -0.75192943094E+01  0.12385180105E+02  0.51100000000E-03 0.  1.
         12    1    3    3    0    0 -0.93294941475E+01 -0.26900083484E+02  0.84961905413E+00  0.28484659118E+02  0.00000000000E+00 0. -1.
</event>
<event>
 7    1  0.6489567E-013  0.5930210E+02  0.7816164E-02  0.1266604E+00
        -11   -1    0    0    0    0  0.00000000000E+00  0.00000000000E+00  0.45593999997E+02  0.45594000000E+02  0.51100000000E-03 0.  1.
         11   -1    0    0    0    0 -0.00000000000E+00 -0.00000000000E+00 -0.45593999997E+02  0.45594000000E+02  0.51100000000E-03 0. -1.
    9900012    2    1    2    0    0 -0.18319150599E+02 -0.23518427277E+02 -0.11313829503E+02  0.59302102831E+02  0.50000289618E+02 0.  0.
        -12    1    1    2    0    0  0.18319150599E+02  0.23518427277E+02  0.11313829503E+02  0.31885897169E+02  0.00000000000E+00 0.  1.
         11    1    3    3    0    0 -0.21098540386E+02 -0.25646764955E+02 -0.13180630030E+02  0.35730014936E+02  0.51100000000E-03 0. -1.
        -11    1    3    3    0    0 -0.77514698008E+01  0.20865807698E+01 -0.63334046307E+01  0.10225024101E+02  0.51100000000E-03 0.  1.
        -12    1    3    3    0    0  0.10530859588E+02  0.41756908052E-01  0.82002051570E+01  0.13347063794E+02  0.00000000000E+00 0.  1.
</event>
<event>
 7    1  0.6489567E-013  0.5930198E+02  0.7816164E-02  0.1266605E+00
        -11   -1    0    0    0    0  0.00000000000E+00  0.00000000000E+00  0.45593999997E+02  0.45594000000E+02  0.51100000000E-03 0. -1.
         11   -1    0    0    0    0 -0.00000000000E+00 -0.00000000000E+00 -0.45593999997E+02  0.45594000000E+02  0.51100000000E-03 0.  1.
    9900012    2    1    2    0    0  0.27475078626E+02 -0.15953234785E+02  0.27078788486E+01  0.59301980282E+02  0.50000066119E+02 0.  0.
        -12    1    1    2    0    0 -0.27475078626E+02  0.15953234785E+02 -0.27078788486E+01  0.31886019718E+02  0.00000000000E+00 0.  1.
         11    1    3    3    0    0  0.26863421198E+02 -0.78410087045E+01  0.32209209666E+01  0.28169116920E+02  0.51100000000E-03 0. -1.
        -11    1    3    3    0    0  0.72214361604E+01  0.70440081064E+01  0.76807580020E+01  0.12679165358E+02  0.51100000000E-03 0.  1.
        -12    1    3    3    0    0 -0.66097787320E+01 -0.15156234187E+02 -0.81938001200E+01  0.18453698004E+02  0.00000000000E+00 0.  1.
</event>
<event>
 7    1  0.6489567E-013  0.5930196E+02  0.7816164E-02  0.1266605E+00
        -11   -1    0    0    0    0  0.00000000000E+00  0.00000000000E+00  0.45593999997E+02  0.45594000000E+02  0.51100000000E-03 0. -1.
         11   -1    0    0    0    0 -0.00000000000E+00 -0.00000000000E+00 -0.45593999997E+02  0.45594000000E+02  0.51100000000E-03 0.  1.
    9900012    2    1    2    0    0 -0.25402863357E+00 -0.15470532666E+02  0.27880416461E+02  0.59301960209E+02  0.50000029510E+02 0.  0.
        -12    1    1    2    0    0  0.25402863357E+00  0.15470532666E+02 -0.27880416461E+02  0.31886039791E+02  0.00000000000E+00 0.  1.
         11    1    3    3    0    0 -0.13675876200E+01 -0.26775036120E+02  0.10575216876E+02  0.28820271813E+02  0.51100000000E-03 0. -1.
        -11    1    3    3    0    0  0.54852574893E+01  0.33195526760E+01  0.19988087685E+02  0.20991215526E+02  0.51100000000E-03 0.  1.
        -12    1    3    3    0    0 -0.43716985028E+01  0.79849507781E+01 -0.26828881001E+01  0.94904728694E+01  0.00000000000E+00 0.  1.
</event>
<event>
 7    1  0.6489567E-013  0.5930194E+02  0.7816164E-02  0.1266605E+00
        -11   -1    0    0    0    0  0.00000000000E+00  0.00000000000E+00  0.45593999997E+02  0.45594000000E+02  0.51100000000E-03 0. -1.
         11   -1    0    0    0    0 -0.00000000000E+00 -0.00000000000E+00 -0.45593999997E+02  0.45594000000E+02  0.51100000000E-03 0.  1.
    9900012    2    1    2    0    0  0.95230535619E+01  0.25292217490E+01  0.30325491051E+02  0.59301938480E+02  0.49999989882E+02 0.  0.
        -12    1    1    2    0    0 -0.95230535619E+01 -0.25292217490E+01 -0.30325491051E+02  0.31886061520E+02  0.00000000000E+00 0.  1.
         11    1    3    3    0    0  0.13386374929E+02 -0.48146095175E+00  0.26590773469E+01  0.13656409886E+02  0.51100000000E-03 0. -1.
        -11    1    3    3    0    0  0.14985829692E+02  0.62369451420E+01  0.17931386556E+02  0.24186963438E+02  0.51100000000E-03 0.  1.
         12    1    3    3    0    0 -0.18849151059E+02 -0.32262624412E+01  0.97350271479E+01  0.21458565156E+02  0.00000000000E+00 0. -1.
</event>
<event>
 7    1  0.6489567E-013  0.5930194E+02  0.7816164E-02  0.1266605E+00
        -11   -1    0    0    0    0  0.00000000000E+00  0.00000000000E+00  0.45593999997E+02  0.45594000000E+02  0.51100000000E-03 0. -1.
         11   -1    0    0    0    0 -0.00000000000E+00 -0.00000000000E+00 -0.45593999997E+02  0.45594000000E+02  0.51100000000E-03 0.  1.
    9900012    2    1    2    0    0 -0.20309359438E+02 -0.73974374334E+01  0.23442027541E+02  0.59301940090E+02  0.49999992818E+02 0.  0.
        -12    1    1    2    0    0  0.20309359438E+02  0.73974374334E+01 -0.23442027541E+02  0.31886059910E+02  0.00000000000E+00 0.  1.
         11    1    3    3    0    0 -0.31700367764E+01  0.28386122990E+01  0.14757365158E+02  0.15358602788E+02  0.51100000000E-03 0. -1.
        -11    1    3    3    0    0 -0.48271192610E+01  0.14585830917E+02  0.27751561927E+01  0.15612464125E+02  0.51100000000E-03 0.  1.
         12    1    3    3    0    0 -0.12312203401E+02 -0.24821880649E+02  0.59095061907E+01  0.28330873177E+02  0.00000000000E+00 0. -1.
</event>
<event>
 7    1  0.6489567E-013  0.5930196E+02  0.7816164E-02  0.1266605E+00
        -11   -1    0    0    0    0  0.00000000000E+00  0.00000000000E+00  0.45593999997E+02  0.45594000000E+02  0.51100000000E-03 0. -1.
         11   -1    0    0    0    0 -0.00000000000E+00 -0.00000000000E+00 -0.45593999997E+02  0.45594000000E+02  0.51100000000E-03 0.  1.
    9900012    2    1    2    0    0  0.17225092537E+02  0.21685929049E+00  0.26832236923E+02  0.59301956358E+02  0.50000022488E+02 0.  0.
        -12    1    1    2    0    0 -0.17225092537E+02 -0.21685929049E+00 -0.26832236923E+02  0.31886043642E+02  0.00000000000E+00 0.  1.
         11    1    3    3    0    0  0.88018719093E+01  0.13709085032E+01  0.17786497640E+02  0.19892507076E+02  0.51100000000E-03 0. -1.
        -11    1    3    3    0    0  0.45467834033E+01  0.14083028199E+02  0.16367458972E+02  0.22065779751E+02  0.51100000000E-03 0.  1.
         12    1    3    3    0    0  0.38764372240E+01 -0.15237077411E+02 -0.73217196888E+01  0.17343669531E+02  0.00000000000E+00 0. -1.
</event>
<event>
 7    1  0.6489567E-013  0.5930194E+02  0.7816164E-02  0.1266605E+00
        -11   -1    0    0    0    0  0.00000000000E+00  0.00000000000E+00  0.45593999997E+02  0.45594000000E+02  0.51100000000E-03 0.  1.
         11   -1    0    0    0    0 -0.00000000000E+00 -0.00000000000E+00 -0.45593999997E+02  0.45594000000E+02  0.51100000000E-03 0. -1.
    9900012    2    1    2    0    0  0.90995732450E+01  0.29479044472E+02 -0.80563207402E+01  0.59301943485E+02  0.49999999010E+02 0.  0.
        -12    1    1    2    0    0 -0.90995732450E+01 -0.29479044472E+02  0.80563207402E+01  0.31886056515E+02  0.00000000000E+00 0.  1.
         11    1    3    3    0    0  0.13151117000E+02  0.73695531418E+01 -0.13549951870E+02  0.20269765361E+02  0.51100000000E-03 0. -1.
        -11    1    3    3    0    0 -0.13812843983E+02  0.10518071578E+01 -0.32513611248E+01  0.14229276391E+02  0.51100000000E-03 0.  1.
         12    1    3    3    0    0  0.97613002275E+01  0.21057684172E+02  0.87449922545E+01  0.24802901733E+02  0.00000000000E+00 0. -1.
</event>
<event>
 7    1  0.6489567E-013  0.5930198E+02  0.7816164E-02  0.1266605E+00
        -11   -1    0    0    0    0  0.00000000000E+00  0.00000000000E+00  0.45593999997E+02  0.45594000000E+02  0.51100000000E-03 0. -1.
         11   -1    0    0    0    0 -0.00000000000E+00 -0.00000000000E+00 -0.45593999997E+02  0.45594000000E+02  0.51100000000E-03 0.  1.
    9900012    2    1    2    0    0  0.22746242822E+02  0.20502122054E+02  0.88876119305E+01  0.59301980853E+02  0.50000067160E+02 0.  0.
        -12    1    1    2    0    0 -0.22746242822E+02 -0.20502122054E+02 -0.88876119305E+01  0.31886019147E+02  0.00000000000E+00 0.  1.
         11    1    3    3    0    0  0.13187891488E+02 -0.32076087227E+01 -0.13949830833E+01  0.13643870920E+02  0.51100000000E-03 0. -1.
        -11    1    3    3    0    0  0.75308797619E+01  0.37922060871E+01 -0.12658480842E+02  0.15209605993E+02  0.51100000000E-03 0.  1.
         12    1    3    3    0    0  0.20274715719E+01  0.19917524690E+02  0.22941075855E+02  0.30448503939E+02  0.00000000000E+00 0. -1.
</event>
<event>
 7    1  0.6489567E-013  0.5930194E+02  0.7816164E-02  0.1266605E+00
        -11   -1    0    0    0    0  0.00000000000E+00  0.00000000000E+00  0.45593999997E+02  0.45594000000E+02  0.51100000000E-03 0. -1.
         11   -1    0    0    0    0 -0.00000000000E+00 -0.00000000000E+00 -0.45593999997E+02  0.45594000000E+02  0.51100000000E-03 0.  1.
    9900012    2    1    2    0    0  0.24468020958E+02  0.16216502658E+02 -0.12452369142E+02  0.59301944971E+02  0.50000001721E+02 0.  0.
        -12    1    1    2    0    0 -0.24468020958E+02 -0.16216502658E+02  0.12452369142E+02  0.31886055029E+02  0.00000000000E+00 0.  1.
         11    1    3    3    0    0  0.11578270351E+02  0.50283582628E+01 -0.65187110294E+01  0.14206840777E+02  0.51100000000E-03 0. -1.
        -11    1    3    3    0    0  0.43568408007E+01  0.24037594209E+02 -0.13503662801E+02  0.27913023957E+02  0.51100000000E-03 0.  1.
         12    1    3    3    0    0  0.85329098064E+01 -0.12849449814E+02  0.75700046883E+01  0.17182080237E+02  0.00000000000E+00 0. -1.
</event>
<event>
 7    1  0.6489567E-013  0.5930193E+02  0.7816164E-02  0.1266605E+00
        -11   -1    0    0    0    0  0.00000000000E+00  0.00000000000E+00  0.45593999997E+02  0.45594000000E+02  0.51100000000E-03 0. -1.
         11   -1    0    0    0    0 -0.00000000000E+00 -0.00000000000E+00 -0.45593999997E+02  0.45594000000E+02  0.51100000000E-03 0.  1.
    9900012    2    1    2    0    0  0.20719257124E+02  0.10773605823E+02  0.21710896535E+02  0.59301933661E+02  0.49999981093E+02 0.  0.
        -12    1    1    2    0    0 -0.20719257124E+02 -0.10773605823E+02 -0.21710896535E+02  0.31886066339E+02  0.00000000000E+00 0.  1.
         11    1    3    3    0    0  0.13144578382E+02  0.71494491266E+01  0.22251678850E+02  0.26814767863E+02  0.51100000000E-03 0. -1.
        -11    1    3    3    0    0  0.14337064721E+02  0.14036821276E+02 -0.52270911322E+00  0.20071297951E+02  0.51100000000E-03 0.  1.
        -12    1    3    3    0    0 -0.67623859783E+01 -0.10412664579E+02 -0.18073200979E-01  0.12415867847E+02  0.00000000000E+00 0.  1.
</event>
<event>
 7    1  0.6489567E-013  0.5930198E+02  0.7816164E-02  0.1266605E+00
        -11   -1    0    0    0    0  0.00000000000E+00  0.00000000000E+00  0.45593999997E+02  0.45594000000E+02  0.51100000000E-03 0.  1.
         11   -1    0    0    0    0 -0.00000000000E+00 -0.00000000000E+00 -0.45593999997E+02  0.45594000000E+02  0.51100000000E-03 0. -1.
    9900012    2    1    2    0    0 -0.11911429808E+02 -0.19345718474E+02 -0.22373635222E+02  0.59301975846E+02  0.50000058028E+02 0.  0.
        -12    1    1    2    0    0  0.11911429808E+02  0.19345718474E+02  0.22373635222E+02  0.31886024154E+02  0.00000000000E+00 0.  1.
         11    1    3    3    0    0  0.26174467020E+01  0.55049192500E+01 -0.33538056709E+01  0.69572391022E+01  0.51100000000E-03 0. -1.
        -11    1    3    3    0    0  0.10106975954E+02 -0.63529195116E+01  0.53326740752E+01  0.13074706968E+02  0.51100000000E-03 0.  1.
         12    1    3    3    0    0 -0.24635852464E+02 -0.18497718212E+02 -0.24352503626E+02  0.39270029775E+02  0.00000000000E+00 0. -1.
</event>
<event>
 7    1  0.6489567E-013  0.5930195E+02  0.7816164E-02  0.1266605E+00
        -11   -1    0    0    0    0  0.00000000000E+00  0.00000000000E+00  0.45593999997E+02  0.45594000000E+02  0.51100000000E-03 0.  1.
         11   -1    0    0    0    0 -0.00000000000E+00 -0.00000000000E+00 -0.45593999997E+02  0.45594000000E+02  0.51100000000E-03 0. -1.
    9900012    2    1    2    0    0 -0.21243025476E+02 -0.23416748132E+02 -0.41364442515E+01  0.59301946693E+02  0.50000004861E+02 0.  0.
        -12    1    1    2    0    0  0.21243025476E+02  0.23416748132E+02  0.41364442515E+01  0.31886053307E+02  0.00000000000E+00 0.  1.
         11    1    3    3    0    0  0.26959307225E+01 -0.83096646599E+01 -0.68622628109E+00  0.87629604581E+01  0.51100000000E-03 0. -1.
        -11    1    3    3    0    0  0.56733672178E+01 -0.41661927674E+01  0.13117555206E+02  0.14886722695E+02  0.51100000000E-03 0.  1.
         12    1    3    3    0    0 -0.29612323416E+02 -0.10940890704E+02 -0.16567773176E+02  0.35652263540E+02  0.00000000000E+00 0. -1.
</event>
<event>
 7    1  0.6489567E-013  0.5930195E+02  0.7816164E-02  0.1266605E+00
        -11   -1    0    0    0    0  0.00000000000E+00  0.00000000000E+00  0.45593999997E+02  0.45594000000E+02  0.51100000000E-03 0.  1.
         11   -1    0    0    0    0 -0.00000000000E+00 -0.00000000000E+00 -0.45593999997E+02  0.45594000000E+02  0.51100000000E-03 0. -1.
    9900012    2    1    2    0    0 -0.26582403857E+02 -0.14484402043E+02  0.10014893077E+02  0.59301950061E+02  0.50000011004E+02 0.  0.
        -12    1    1    2    0    0  0.26582403857E+02  0.14484402043E+02 -0.10014893077E+02  0.31886049939E+02  0.00000000000E+00 0.  1.
         11    1    3    3    0    0  0.26040656528E+01  0.96358139748E+01  0.11680911580E+02  0.15364692138E+02  0.51100000000E-03 0. -1.
        -11    1    3    3    0    0 -0.11359213696E+02 -0.61445560815E+01  0.97341074002E+01  0.16172203077E+02  0.51100000000E-03 0.  1.
         12    1    3    3    0    0 -0.17827255814E+02 -0.17975659936E+02 -0.11400125904E+02  0.27765054846E+02  0.00000000000E+00 0. -1.
</event>
<event>
 7    1  0.6489567E-013  0.5930194E+02  0.7816164E-02  0.1266605E+00
        -11   -1    0    0    0    0  0.00000000000E+00  0.00000000000E+00  0.45593999997E+02  0.45594000000E+02  0.51100000000E-03 0.  1.
         11   -1    0    0    0    0 -0.00000000000E+00 -0.00000000000E+00 -0.45593999997E+02  0.45594000000E+02  0.51100000000E-03 0. -1.
    9900012    2    1    2    0    0  0.26687971378E+02 -0.14372657400E+02 -0.98944316712E+01  0.59301939173E+02  0.49999991145E+02 0.  0.
        -12    1    1    2    0    0 -0.26687971378E+02  0.14372657400E+02  0.98944316712E+01  0.31886060827E+02  0.00000000000E+00 0.  1.
         11    1    3    3    0    0  0.51677964017E+01 -0.37157368520E+01 -0.13496828341E+02  0.14922372315E+02  0.51100000000E-03 0. -1.
        -11    1    3    3    0    0  0.22966136147E+02 -0.13634761673E+02 -0.11382823125E+02  0.29033063875E+02  0.51100000000E-03 0.  1.
        -12    1    3    3    0    0 -0.14459611708E+01  0.29778411257E+01  0.14985219795E+02  0.15346502982E+02  0.00000000000E+00 0.  1.
</event>
<event>
 7    1  0.6489567E-013  0.5930192E+02  0.7816164E-02  0.1266605E+00
        -11   -1    0    0    0    0  0.00000000000E+00  0.00000000000E+00  0.45593999997E+02  0.45594000000E+02  0.51100000000E-03 0.  1.
         11   -1    0    0    0    0 -0.00000000000E+00 -0.00000000000E+00 -0.45593999997E+02  0.45594000000E+02  0.51100000000E-03 0. -1.
    9900012    2    1    2    0    0 -0.50600737342E+01  0.30616751774E+02  0.73302378515E+01  0.59301918047E+02  0.49999952617E+02 0.  0.
        -12    1    1    2    0    0  0.50600737342E+01 -0.30616751774E+02 -0.73302378515E+01  0.31886081953E+02  0.00000000000E+00 0.  1.
         11    1    3    3    0    0 -0.63714387369E+01  0.92018821644E+01 -0.83341051591E+01  0.13954467959E+02  0.51100000000E-03 0. -1.
        -11    1    3    3    0    0 -0.24691884444E+01  0.28290545108E+01 -0.11567450043E+02  0.12161675121E+02  0.51100000000E-03 0.  1.
        -12    1    3    3    0    0  0.37805534471E+01  0.18585815098E+02  0.27231793054E+02  0.33185774967E+02  0.00000000000E+00 0.  1.
</event>
<event>
 7    1  0.6489567E-013  0.5930200E+02  0.7816164E-02  0.1266605E+00
        -11   -1    0    0    0    0  0.00000000000E+00  0.00000000000E+00  0.45593999997E+02  0.45594000000E+02  0.51100000000E-03 0.  1.
         11   -1    0    0    0    0 -0.00000000000E+00 -0.00000000000E+00 -0.45593999997E+02  0.45594000000E+02  0.51100000000E-03 0. -1.
    9900012    2    1    2    0    0  0.10000670274E+02  0.17113203743E+02 -0.24976831695E+02  0.59301995706E+02  0.50000094249E+02 0.  0.
        -12    1    1    2    0    0 -0.10000670274E+02 -0.17113203743E+02  0.24976831695E+02  0.31886004294E+02  0.00000000000E+00 0.  1.
         11    1    3    3    0    0  0.47243900200E+01  0.12271214362E+02 -0.29177691123E+01  0.13469073458E+02  0.51100000000E-03 0. -1.
        -11    1    3    3    0    0 -0.24195475333E+01  0.13299688319E+02  0.65514423123E+01  0.15021894563E+02  0.51100000000E-03 0.  1.
         12    1    3    3    0    0  0.76958277873E+01 -0.84576989371E+01 -0.28610504895E+02  0.30811027685E+02  0.00000000000E+00 0. -1.
</event>
<event>
 7    1  0.6489567E-013  0.5930196E+02  0.7816164E-02  0.1266605E+00
        -11   -1    0    0    0    0  0.00000000000E+00  0.00000000000E+00  0.45593999997E+02  0.45594000000E+02  0.51100000000E-03 0.  1.
         11   -1    0    0    0    0 -0.00000000000E+00 -0.00000000000E+00 -0.45593999997E+02  0.45594000000E+02  0.51100000000E-03 0. -1.
    9900012    2    1    2    0    0  0.70385928600E+01 -0.17795921019E+02 -0.25504570504E+02  0.59301957427E+02  0.50000024437E+02 0.  0.
        -12    1    1    2    0    0 -0.70385928600E+01  0.17795921019E+02  0.25504570504E+02  0.31886042573E+02  0.00000000000E+00 0.  1.
         11    1    3    3    0    0  0.89263956786E+01 -0.18946431835E+02 -0.11715893938E+02  0.23998124721E+02  0.51100000000E-03 0. -1.
        -11    1    3    3    0    0  0.62032285217E+01 -0.92902923507E+00  0.90352739163E+01  0.10999059706E+02  0.51100000000E-03 0.  1.
         12    1    3    3    0    0 -0.80910313403E+01  0.20795400503E+01 -0.22823950482E+02  0.24304773000E+02  0.00000000000E+00 0. -1.
</event>
<event>
 7    1  0.6489567E-013  0.5930186E+02  0.7816164E-02  0.1266605E+00
        -11   -1    0    0    0    0  0.00000000000E+00  0.00000000000E+00  0.45593999997E+02  0.45594000000E+02  0.51100000000E-03 0. -1.
         11   -1    0    0    0    0 -0.00000000000E+00 -0.00000000000E+00 -0.45593999997E+02  0.45594000000E+02  0.51100000000E-03 0.  1.
    9900012    2    1    2    0    0 -0.14314677832E+00  0.16102911575E+02  0.27520927733E+02  0.59301863271E+02  0.49999852719E+02 0.  0.
        -12    1    1    2    0    0  0.14314677832E+00 -0.16102911575E+02 -0.27520927733E+02  0.31886136729E+02  0.00000000000E+00 0.  1.
         11    1    3    3    0    0 -0.72645900919E+01 -0.14357101359E+02  0.18258479651E+02  0.24336653592E+02  0.51100000000E-03 0. -1.
        -11    1    3    3    0    0 -0.35154886886E+01  0.10501246952E+02  0.36883553781E+01  0.11672138361E+02  0.51100000000E-03 0.  1.
        -12    1    3    3    0    0  0.10636932002E+02  0.19958765982E+02  0.55740927033E+01  0.23293071318E+02  0.00000000000E+00 0.  1.
</event>
