<event>
 7    1  0.1096439E-011  0.5930195E+02  0.7816164E-02  0.1266605E+00
        -11   -1    0    0    0    0  0.00000000000E+00  0.00000000000E+00  0.45593999997E+02  0.45594000000E+02  0.51100000000E-03 0.  1.
         11   -1    0    0    0    0 -0.00000000000E+00 -0.00000000000E+00 -0.45593999997E+02  0.45594000000E+02  0.51100000000E-03 0. -1.
    9900012    2    1    2    0    0 -0.11066561430E+02 -0.10592330807E+02 -0.27965222889E+02  0.59301953756E+02  0.50000017743E+02 0.  0.
        -12    1    1    2    0    0  0.11066561430E+02  0.10592330807E+02  0.27965222889E+02  0.31886046244E+02  0.00000000000E+00 0.  1.
         11    1    3    3    0    0  0.12503079117E+02 -0.10079032224E+02 -0.86975741471E+01  0.18263670887E+02  0.51100000000E-03 0.  1.
        -11    1    3    3    0    0 -0.13998614111E+02  0.63030213431E+01 -0.23901632312E+02  0.28407345925E+02  0.51100000000E-03 0. -1.
        -12    1    3    3    0    0 -0.95710264356E+01 -0.68163199260E+01  0.46339835697E+01  0.12630936944E+02  0.00000000000E+00 0.  1.
</event>
<event>
 7    1  0.1096439E-011  0.5930194E+02  0.7816164E-02  0.1266605E+00
        -11   -1    0    0    0    0  0.00000000000E+00  0.00000000000E+00  0.45593999997E+02  0.45594000000E+02  0.51100000000E-03 0.  1.
         11   -1    0    0    0    0 -0.00000000000E+00 -0.00000000000E+00 -0.45593999997E+02  0.45594000000E+02  0.51100000000E-03 0. -1.
    9900012    2    1    2    0    0  0.39353651725E+01  0.19233531348E+02 -0.25125781289E+02  0.59301941722E+02  0.49999995794E+02 0.  0.
        -12    1    1    2    0    0 -0.39353651725E+01 -0.19233531348E+02  0.25125781289E+02  0.31886058278E+02  0.00000000000E+00 0.  1.
         11    1    3    3    0    0 -0.16223565444E+02  0.19426597888E+02 -0.81815451390E+01  0.26599519964E+02  0.51100000000E-03 0. -1.
        -11    1    3    3    0    0  0.19363312002E+02  0.40208447007E+01 -0.55687548591E+01  0.20545463605E+02  0.51100000000E-03 0.  1.
         12    1    3    3    0    0  0.79561861407E+00 -0.42139112405E+01 -0.11375481291E+02  0.12156958152E+02  0.00000000000E+00 0. -1.
</event>
<event>
 7    1  0.1096439E-011  0.5930195E+02  0.7816164E-02  0.1266605E+00
        -11   -1    0    0    0    0  0.00000000000E+00  0.00000000000E+00  0.45593999997E+02  0.45594000000E+02  0.51100000000E-03 0. -1.
         11   -1    0    0    0    0 -0.00000000000E+00 -0.00000000000E+00 -0.45593999997E+02  0.45594000000E+02  0.51100000000E-03 0.  1.
    9900012    2    1    2    0    0 -0.23274932434E+02  0.43432621525E+01  0.21357283989E+02  0.59301953125E+02  0.50000016591E+02 0.  0.
        -12    1    1    2    0    0  0.23274932434E+02 -0.43432621525E+01 -0.21357283989E+02  0.31886046875E+02  0.00000000000E+00 0.  1.
         11    1    3    3    0    0 -0.11902750214E+02 -0.60701778596E+01  0.18512094861E+02  0.22830247005E+02  0.51100000000E-03 0. -1.
        -11    1    3    3    0    0  0.55411655818E+01  0.13135111173E+02 -0.78517787596E+01  0.16275321548E+02  0.51100000000E-03 0.  1.
        -12    1    3    3    0    0 -0.16913347803E+02 -0.27216711607E+01  0.10696967887E+02  0.20196384572E+02  0.00000000000E+00 0.  1.
</event>
<event>
 7    1  0.1096439E-011  0.5930192E+02  0.7816164E-02  0.1266605E+00
        -11   -1    0    0    0    0  0.00000000000E+00  0.00000000000E+00  0.45593999997E+02  0.45594000000E+02  0.51100000000E-03 0.  1.
         11   -1    0    0    0    0 -0.00000000000E+00 -0.00000000000E+00 -0.45593999997E+02  0.45594000000E+02  0.51100000000E-03 0. -1.
    9900012    2    1    2    0    0  0.16331109047E+02 -0.26835535753E+02 -0.54654092857E+01  0.59301924661E+02  0.49999964680E+02 0.  0.
        -12    1    1    2    0    0 -0.16331109047E+02  0.26835535753E+02  0.54654092857E+01  0.31886075339E+02  0.00000000000E+00 0.  1.
         11    1    3    3    0    0  0.64988554491E+01 -0.17933899990E+02  0.66084351550E+01  0.20187404649E+02  0.51100000000E-03 0. -1.
        -11    1    3    3    0    0 -0.49267177811E+01 -0.92509998672E+01 -0.19836279138E+02  0.22435051080E+02  0.51100000000E-03 0.  1.
        -12    1    3    3    0    0  0.14758971379E+02  0.34936410478E+00  0.77624346974E+01  0.16679468932E+02  0.00000000000E+00 0.  1.
</event>
<event>
 7    1  0.1096439E-011  0.5930195E+02  0.7816164E-02  0.1266605E+00
        -11   -1    0    0    0    0  0.00000000000E+00  0.00000000000E+00  0.45593999997E+02  0.45594000000E+02  0.51100000000E-03 0.  1.
         11   -1    0    0    0    0 -0.00000000000E+00 -0.00000000000E+00 -0.45593999997E+02  0.45594000000E+02  0.51100000000E-03 0. -1.
    9900012    2    1    2    0    0  0.15723509191E+02  0.55295295724E+01 -0.27183004781E+02  0.59301949954E+02  0.50000010809E+02 0.  0.
        -12    1    1    2    0    0 -0.15723509191E+02 -0.55295295724E+01  0.27183004781E+02  0.31886050046E+02  0.00000000000E+00 0.  1.
         11    1    3    3    0    0  0.11229962670E+02  0.60915633648E+01 -0.32174342854E+02  0.34618023401E+02  0.51100000000E-03 0. -1.
        -11    1    3    3    0    0  0.89927799983E+01 -0.97375079440E+01 -0.12524976357E+00  0.13255370263E+02  0.51100000000E-03 0.  1.
         12    1    3    3    0    0 -0.44992334774E+01  0.91754741516E+01  0.51165878367E+01  0.11428556290E+02  0.00000000000E+00 0. -1.
</event>
<event>
 7    1  0.1096439E-011  0.5930195E+02  0.7816164E-02  0.1266605E+00
        -11   -1    0    0    0    0  0.00000000000E+00  0.00000000000E+00  0.45593999997E+02  0.45594000000E+02  0.51100000000E-03 0. -1.
         11   -1    0    0    0    0 -0.00000000000E+00 -0.00000000000E+00 -0.45593999997E+02  0.45594000000E+02  0.51100000000E-03 0.  1.
    9900012    2    1    2    0    0  0.52688921185E+01 -0.22837122600E+02  0.21620007904E+02  0.59301950784E+02  0.50000012322E+02 0.  0.
        -12    1    1    2    0    0 -0.52688921185E+01  0.22837122600E+02 -0.21620007904E+02  0.31886049216E+02  0.00000000000E+00 0.  1.
         11    1    3    3    0    0  0.78249633069E+01 -0.28889632891E+02  0.26557550854E+02  0.40014303030E+02  0.51100000000E-03 0. -1.
        -11    1    3    3    0    0 -0.13368582114E+01  0.29594794411E+01 -0.11489946959E+02  0.11940041449E+02  0.51100000000E-03 0.  1.
         12    1    3    3    0    0 -0.12192129770E+01  0.30930308496E+01  0.65524040088E+01  0.73476063051E+01  0.00000000000E+00 0. -1.
</event>
<event>
 7    1  0.1096439E-011  0.5930194E+02  0.7816164E-02  0.1266605E+00
        -11   -1    0    0    0    0  0.00000000000E+00  0.00000000000E+00  0.45593999997E+02  0.45594000000E+02  0.51100000000E-03 0.  1.
         11   -1    0    0    0    0 -0.00000000000E+00 -0.00000000000E+00 -0.45593999997E+02  0.45594000000E+02  0.51100000000E-03 0. -1.
    9900012    2    1    2    0    0 -0.21891880532E+02  0.22441043449E+02 -0.58194507311E+01  0.59301939235E+02  0.49999991259E+02 0.  0.
        -12    1    1    2    0    0  0.21891880532E+02 -0.22441043449E+02  0.58194507311E+01  0.31886060765E+02  0.00000000000E+00 0.  1.
         11    1    3    3    0    0 -0.13989339834E+02  0.79022436708E+00 -0.16761665023E+01  0.14111542011E+02  0.51100000000E-03 0. -1.
        -11    1    3    3    0    0  0.12069471075E+02  0.30597779954E+01 -0.11479642186E+02  0.16935659373E+02  0.51100000000E-03 0.  1.
        -12    1    3    3    0    0 -0.19972011773E+02  0.18591041087E+02  0.73363579575E+01  0.28254737851E+02  0.00000000000E+00 0.  1.
</event>
<event>
 7    1  0.1096439E-011  0.5930195E+02  0.7816164E-02  0.1266605E+00
        -11   -1    0    0    0    0  0.00000000000E+00  0.00000000000E+00  0.45593999997E+02  0.45594000000E+02  0.51100000000E-03 0. -1.
         11   -1    0    0    0    0 -0.00000000000E+00 -0.00000000000E+00 -0.45593999997E+02  0.45594000000E+02  0.51100000000E-03 0.  1.
    9900012    2    1    2    0    0  0.23161490056E+02 -0.56181401213E+01  0.21182586192E+02  0.59301951675E+02  0.50000013946E+02 0.  0.
        -12    1    1    2    0    0 -0.23161490056E+02  0.56181401213E+01 -0.21182586192E+02  0.31886048325E+02  0.00000000000E+00 0.  1.
         11    1    3    3    0    0  0.45800071385E+01 -0.15906430275E+02  0.14587098097E+02  0.22062964910E+02  0.51100000000E-03 0. -1.
        -11    1    3    3    0    0  0.28378327689E+01  0.11671465537E+02 -0.90201789436E+01  0.15021319218E+02  0.51100000000E-03 0.  1.
         12    1    3    3    0    0  0.15743650148E+02 -0.13831753838E+01  0.15615667039E+02  0.22217667546E+02  0.00000000000E+00 0. -1.
</event>
<event>
 7    1  0.1096439E-011  0.5930192E+02  0.7816164E-02  0.1266605E+00
        -11   -1    0    0    0    0  0.00000000000E+00  0.00000000000E+00  0.45593999997E+02  0.45594000000E+02  0.51100000000E-03 0. -1.
         11   -1    0    0    0    0 -0.00000000000E+00 -0.00000000000E+00 -0.45593999997E+02  0.45594000000E+02  0.51100000000E-03 0.  1.
    9900012    2    1    2    0    0 -0.12986859302E+02 -0.27372603376E+02 -0.99400150425E+01  0.59301924212E+02  0.49999963860E+02 0.  0.
        -12    1    1    2    0    0  0.12986859302E+02  0.27372603376E+02  0.99400150425E+01  0.31886075788E+02  0.00000000000E+00 0.  1.
         11    1    3    3    0    0 -0.16865394714E+02 -0.96655333233E+00  0.39336007643E+01  0.17344998686E+02  0.51100000000E-03 0. -1.
        -11    1    3    3    0    0  0.12210716958E+02 -0.48583781101E+00 -0.60056132836E+01  0.13616351868E+02  0.51100000000E-03 0.  1.
         12    1    3    3    0    0 -0.83321815466E+01 -0.25920212233E+02 -0.78680025231E+01  0.28340573657E+02  0.00000000000E+00 0. -1.
</event>
<event>
 7    1  0.1096439E-011  0.5930225E+02  0.7816164E-02  0.1266604E+00
        -11   -1    0    0    0    0  0.00000000000E+00  0.00000000000E+00  0.45593999997E+02  0.45594000000E+02  0.51100000000E-03 0.  1.
         11   -1    0    0    0    0 -0.00000000000E+00 -0.00000000000E+00 -0.45593999997E+02  0.45594000000E+02  0.51100000000E-03 0. -1.
    9900012    2    1    2    0    0  0.15323848273E+01  0.13612939584E+01 -0.31819801079E+02  0.59302249810E+02  0.50000557670E+02 0.  0.
        -12    1    1    2    0    0 -0.15323848273E+01 -0.13612939584E+01  0.31819801079E+02  0.31885750190E+02  0.00000000000E+00 0.  1.
         11    1    3    3    0    0  0.62818259985E+01 -0.11403662183E+02 -0.10386652902E+02  0.16654951451E+02  0.51100000000E-03 0. -1.
        -11    1    3    3    0    0 -0.15521941628E+02  0.16623941608E+02 -0.61605203564E+01  0.23563491206E+02  0.51100000000E-03 0.  1.
         12    1    3    3    0    0  0.10772500457E+02 -0.38589854664E+01 -0.15272627821E+02  0.19083807153E+02  0.00000000000E+00 0. -1.
</event>
<event>
 7    1  0.1096439E-011  0.5930195E+02  0.7816164E-02  0.1266605E+00
        -11   -1    0    0    0    0  0.00000000000E+00  0.00000000000E+00  0.45593999997E+02  0.45594000000E+02  0.51100000000E-03 0. -1.
         11   -1    0    0    0    0 -0.00000000000E+00 -0.00000000000E+00 -0.45593999997E+02  0.45594000000E+02  0.51100000000E-03 0.  1.
    9900012    2    1    2    0    0  0.28209436445E+02 -0.11238428438E+02 -0.97285929719E+01  0.59301951334E+02  0.50000013325E+02 0.  0.
        -12    1    1    2    0    0 -0.28209436445E+02  0.11238428438E+02  0.97285929719E+01  0.31886048666E+02  0.00000000000E+00 0.  1.
         11    1    3    3    0    0  0.28893307269E+02 -0.15956702307E+02 -0.48389065539E+01  0.33359474972E+02  0.51100000000E-03 0. -1.
        -11    1    3    3    0    0 -0.86382365836E+01  0.60630798064E+01 -0.11429958697E+02  0.15557121331E+02  0.51100000000E-03 0.  1.
         12    1    3    3    0    0  0.79543657597E+01 -0.13448059368E+01  0.65402722793E+01  0.10385355032E+02  0.00000000000E+00 0. -1.
</event>
<event>
 7    1  0.1096439E-011  0.5930193E+02  0.7816164E-02  0.1266605E+00
        -11   -1    0    0    0    0  0.00000000000E+00  0.00000000000E+00  0.45593999997E+02  0.45594000000E+02  0.51100000000E-03 0. -1.
         11   -1    0    0    0    0 -0.00000000000E+00 -0.00000000000E+00 -0.45593999997E+02  0.45594000000E+02  0.51100000000E-03 0.  1.
    9900012    2    1    2    0    0  0.67047954441E+01 -0.28474999658E+02 -0.12686262481E+02  0.59301934969E+02  0.49999983478E+02 0.  0.
        -12    1    1    2    0    0 -0.67047954441E+01  0.28474999658E+02  0.12686262481E+02  0.31886065031E+02  0.00000000000E+00 0.  1.
         11    1    3    3    0    0 -0.58210860195E+01 -0.21005829803E+02  0.66705604205E+01  0.22795313219E+02  0.51100000000E-03 0. -1.
        -11    1    3    3    0    0  0.50079060137E+01 -0.40638225508E+01 -0.25445752671E+02  0.26250335343E+02  0.51100000000E-03 0.  1.
        -12    1    3    3    0    0  0.75179754498E+01 -0.34053473041E+01  0.60889297694E+01  0.10256286407E+02  0.00000000000E+00 0.  1.
</event>
<event>
 7    1  0.1096439E-011  0.5930188E+02  0.7816164E-02  0.1266605E+00
        -11   -1    0    0    0    0  0.00000000000E+00  0.00000000000E+00  0.45593999997E+02  0.45594000000E+02  0.51100000000E-03 0.  1.
         11   -1    0    0    0    0 -0.00000000000E+00 -0.00000000000E+00 -0.45593999997E+02  0.45594000000E+02  0.51100000000E-03 0. -1.
    9900012    2    1    2    0    0 -0.11780371739E+02 -0.46252857121E+01 -0.29266949295E+02  0.59301878454E+02  0.49999880408E+02 0.  0.
        -12    1    1    2    0    0  0.11780371739E+02  0.46252857121E+01  0.29266949295E+02  0.31886121546E+02  0.00000000000E+00 0.  1.
         11    1    3    3    0    0  0.11891837642E+02 -0.13309836979E+02 -0.11658621407E+02  0.21318794907E+02  0.51100000000E-03 0. -1.
        -11    1    3    3    0    0 -0.23105018757E+02  0.76641416755E+01 -0.22382054265E+02  0.33068675703E+02  0.51100000000E-03 0.  1.
        -12    1    3    3    0    0 -0.56719062401E+00  0.10204095912E+01  0.47737263764E+01  0.49144078437E+01  0.00000000000E+00 0.  1.
</event>
<event>
 7    1  0.1096439E-011  0.5930195E+02  0.7816164E-02  0.1266605E+00
        -11   -1    0    0    0    0  0.00000000000E+00  0.00000000000E+00  0.45593999997E+02  0.45594000000E+02  0.51100000000E-03 0.  1.
         11   -1    0    0    0    0 -0.00000000000E+00 -0.00000000000E+00 -0.45593999997E+02  0.45594000000E+02  0.51100000000E-03 0. -1.
    9900012    2    1    2    0    0  0.22178558589E+02 -0.19759408640E+02  0.11592986786E+02  0.59301952369E+02  0.50000015213E+02 0.  0.
        -12    1    1    2    0    0 -0.22178558589E+02  0.19759408640E+02 -0.11592986786E+02  0.31886047631E+02  0.00000000000E+00 0.  1.
         11    1    3    3    0    0  0.21182745832E+02  0.45412662306E+01 -0.55454663045E+00  0.21671163840E+02  0.51100000000E-03 0. -1.
        -11    1    3    3    0    0  0.49058170796E+01 -0.11891109365E+02  0.18985150669E+02  0.22932541711E+02  0.51100000000E-03 0.  1.
         12    1    3    3    0    0 -0.39100043227E+01 -0.12409565505E+02 -0.68376172525E+01  0.14698246818E+02  0.00000000000E+00 0. -1.
</event>
<event>
 7    1  0.1096439E-011  0.5930199E+02  0.7816164E-02  0.1266605E+00
        -11   -1    0    0    0    0  0.00000000000E+00  0.00000000000E+00  0.45593999997E+02  0.45594000000E+02  0.51100000000E-03 0.  1.
         11   -1    0    0    0    0 -0.00000000000E+00 -0.00000000000E+00 -0.45593999997E+02  0.45594000000E+02  0.51100000000E-03 0. -1.
    9900012    2    1    2    0    0  0.25622206709E+02 -0.11633871101E+02 -0.14995778487E+02  0.59301987301E+02  0.50000078920E+02 0.  0.
        -12    1    1    2    0    0 -0.25622206709E+02  0.11633871101E+02  0.14995778487E+02  0.31886012699E+02  0.00000000000E+00 0.  1.
         11    1    3    3    0    0  0.35841238949E+01 -0.18153414441E+02 -0.17679613132E+02  0.25592208203E+02  0.51100000000E-03 0. -1.
        -11    1    3    3    0    0  0.15342922865E+02 -0.22224458202E+01  0.11744958097E+02  0.19449642372E+02  0.51100000000E-03 0.  1.
         12    1    3    3    0    0  0.66951599496E+01  0.87419891603E+01 -0.90611234515E+01  0.14260136726E+02  0.00000000000E+00 0. -1.
</event>
<event>
 7    1  0.1096439E-011  0.5930192E+02  0.7816164E-02  0.1266605E+00
        -11   -1    0    0    0    0  0.00000000000E+00  0.00000000000E+00  0.45593999997E+02  0.45594000000E+02  0.51100000000E-03 0.  1.
         11   -1    0    0    0    0 -0.00000000000E+00 -0.00000000000E+00 -0.45593999997E+02  0.45594000000E+02  0.51100000000E-03 0. -1.
    9900012    2    1    2    0    0 -0.20589311727E+01 -0.34141250459E+01 -0.31635849048E+02  0.59301915380E+02  0.49999947754E+02 0.  0.
        -12    1    1    2    0    0  0.20589311727E+01  0.34141250459E+01  0.31635849048E+02  0.31886084620E+02  0.00000000000E+00 0.  1.
         11    1    3    3    0    0 -0.55367803622E+01  0.92008629582E+01 -0.25375351957E+02  0.27553952586E+02  0.51100000000E-03 0. -1.
        -11    1    3    3    0    0  0.15846629257E+02 -0.81005881374E+01 -0.20006845813E+01  0.17909157603E+02  0.51100000000E-03 0.  1.
         12    1    3    3    0    0 -0.12368780067E+02 -0.45143998667E+01 -0.42598125097E+01  0.13838805192E+02  0.00000000000E+00 0. -1.
</event>
<event>
 7    1  0.1096439E-011  0.5930197E+02  0.7816164E-02  0.1266605E+00
        -11   -1    0    0    0    0  0.00000000000E+00  0.00000000000E+00  0.45593999997E+02  0.45594000000E+02  0.51100000000E-03 0.  1.
         11   -1    0    0    0    0 -0.00000000000E+00 -0.00000000000E+00 -0.45593999997E+02  0.45594000000E+02  0.51100000000E-03 0. -1.
    9900012    2    1    2    0    0  0.17916346854E+02  0.63851745460E+01 -0.25592053513E+02  0.59301966356E+02  0.50000040721E+02 0.  0.
        -12    1    1    2    0    0 -0.17916346854E+02 -0.63851745460E+01  0.25592053513E+02  0.31886033644E+02  0.00000000000E+00 0.  1.
         11    1    3    3    0    0  0.19951181374E+02 -0.23674090563E+01 -0.93801355139E+01  0.22172983705E+02  0.51100000000E-03 0. -1.
        -11    1    3    3    0    0 -0.14130439022E+02 -0.36968593798E+01 -0.12838552876E+02  0.19446452541E+02  0.51100000000E-03 0.  1.
        -12    1    3    3    0    0  0.12095604502E+02  0.12449442982E+02 -0.33733651233E+01  0.17682530110E+02  0.00000000000E+00 0.  1.
</event>
<event>
 7    1  0.1096439E-011  0.5930194E+02  0.7816164E-02  0.1266605E+00
        -11   -1    0    0    0    0  0.00000000000E+00  0.00000000000E+00  0.45593999997E+02  0.45594000000E+02  0.51100000000E-03 0.  1.
         11   -1    0    0    0    0 -0.00000000000E+00 -0.00000000000E+00 -0.45593999997E+02  0.45594000000E+02  0.51100000000E-03 0. -1.
    9900012    2    1    2    0    0  0.31565668015E+02  0.33795265840E+01  0.29846540006E+01  0.59301941029E+02  0.49999994532E+02 0.  0.
        -12    1    1    2    0    0 -0.31565668015E+02 -0.33795265840E+01 -0.29846540006E+01  0.31886058971E+02  0.00000000000E+00 0.  1.
         11    1    3    3    0    0 -0.12264291450E+02  0.74183493928E+01 -0.29083836225E+01  0.14625438388E+02  0.51100000000E-03 0.  1.
        -11    1    3    3    0    0  0.38267845056E+02 -0.18975866044E+01  0.54422804810E+01  0.38699447248E+02  0.51100000000E-03 0. -1.
         12    1    3    3    0    0  0.55621144087E+01 -0.21412362044E+01  0.45075714208E+00  0.59770553937E+01  0.00000000000E+00 0. -1.
</event>
<event>
 7    1  0.1096439E-011  0.5930194E+02  0.7816164E-02  0.1266605E+00
        -11   -1    0    0    0    0  0.00000000000E+00  0.00000000000E+00  0.45593999997E+02  0.45594000000E+02  0.51100000000E-03 0. -1.
         11   -1    0    0    0    0 -0.00000000000E+00 -0.00000000000E+00 -0.45593999997E+02  0.45594000000E+02  0.51100000000E-03 0.  1.
    9900012    2    1    2    0    0 -0.18070587904E+02 -0.11886479031E+02  0.23428324599E+02  0.59301938398E+02  0.49999989733E+02 0.  0.
        -12    1    1    2    0    0  0.18070587904E+02  0.11886479031E+02 -0.23428324599E+02  0.31886061602E+02  0.00000000000E+00 0.  1.
         11    1    3    3    0    0 -0.76289926327E+01  0.32014297894E+01  0.19045835714E+02  0.20765224285E+02  0.51100000000E-03 0. -1.
        -11    1    3    3    0    0 -0.19321009482E+02 -0.63999338144E+01 -0.71632024129E+01  0.21577118188E+02  0.51100000000E-03 0.  1.
        -12    1    3    3    0    0  0.88794142104E+01 -0.86879750060E+01  0.11545691298E+02  0.16959595926E+02  0.00000000000E+00 0.  1.
</event>
<event>
 7    1  0.1096439E-011  0.5930196E+02  0.7816164E-02  0.1266605E+00
        -11   -1    0    0    0    0  0.00000000000E+00  0.00000000000E+00  0.45593999997E+02  0.45594000000E+02  0.51100000000E-03 0.  1.
         11   -1    0    0    0    0 -0.00000000000E+00 -0.00000000000E+00 -0.45593999997E+02  0.45594000000E+02  0.51100000000E-03 0. -1.
    9900012    2    1    2    0    0 -0.18806359999E+02 -0.11404277497E+02 -0.23086415452E+02  0.59301963870E+02  0.50000036188E+02 0.  0.
        -12    1    1    2    0    0  0.18806359999E+02  0.11404277497E+02  0.23086415452E+02  0.31886036130E+02  0.00000000000E+00 0.  1.
         11    1    3    3    0    0 -0.20908892216E+02  0.12209322571E+02 -0.77638569675E+01  0.25426891407E+02  0.51100000000E-03 0.  1.
        -11    1    3    3    0    0  0.10326585626E+02 -0.10485814133E+02 -0.77218023866E+01  0.16619774399E+02  0.51100000000E-03 0. -1.
        -12    1    3    3    0    0 -0.82240534088E+01 -0.13127785935E+02 -0.76007560981E+01  0.17255298064E+02  0.00000000000E+00 0.  1.
</event>
<event>
 7    1  0.1096439E-011  0.5930193E+02  0.7816164E-02  0.1266605E+00
        -11   -1    0    0    0    0  0.00000000000E+00  0.00000000000E+00  0.45593999997E+02  0.45594000000E+02  0.51100000000E-03 0.  1.
         11   -1    0    0    0    0 -0.00000000000E+00 -0.00000000000E+00 -0.45593999997E+02  0.45594000000E+02  0.51100000000E-03 0. -1.
    9900012    2    1    2    0    0  0.21672454077E+01 -0.27025171292E+02  0.16782864227E+02  0.59301931448E+02  0.49999977058E+02 0.  0.
        -12    1    1    2    0    0 -0.21672454077E+01  0.27025171292E+02 -0.16782864227E+02  0.31886068552E+02  0.00000000000E+00 0.  1.
         11    1    3    3    0    0 -0.52593058134E+01 -0.31050029466E+01 -0.78266706462E+01  0.99276439603E+01  0.51100000000E-03 0. -1.
        -11    1    3    3    0    0 -0.65827337328E+01 -0.25048269410E+02  0.23995477552E+02  0.35306247706E+02  0.51100000000E-03 0.  1.
        -12    1    3    3    0    0  0.14009284954E+02  0.11281010644E+01  0.61405732061E+00  0.14068039782E+02  0.00000000000E+00 0.  1.
</event>
<event>
 7    1  0.1096439E-011  0.5930193E+02  0.7816164E-02  0.1266605E+00
        -11   -1    0    0    0    0  0.00000000000E+00  0.00000000000E+00  0.45593999997E+02  0.45594000000E+02  0.51100000000E-03 0. -1.
         11   -1    0    0    0    0 -0.00000000000E+00 -0.00000000000E+00 -0.45593999997E+02  0.45594000000E+02  0.51100000000E-03 0.  1.
    9900012    2    1    2    0    0  0.15207849595E+01 -0.24681432261E+02  0.20130470935E+02  0.59301925525E+02  0.49999966256E+02 0.  0.
        -12    1    1    2    0    0 -0.15207849595E+01  0.24681432261E+02 -0.20130470935E+02  0.31886074475E+02  0.00000000000E+00 0.  1.
         11    1    3    3    0    0  0.27924495329E+01 -0.10598099276E+02  0.40976571816E+01  0.11700781055E+02  0.51100000000E-03 0. -1.
        -11    1    3    3    0    0  0.12610516012E+02  0.84531642638E+01  0.14647752286E+02  0.21095917791E+02  0.51100000000E-03 0.  1.
        -12    1    3    3    0    0 -0.13882180585E+02 -0.22536497249E+02  0.13850614669E+01  0.26505226679E+02  0.00000000000E+00 0.  1.
</event>
<event>
 7    1  0.1096439E-011  0.5930187E+02  0.7816164E-02  0.1266605E+00
        -11   -1    0    0    0    0  0.00000000000E+00  0.00000000000E+00  0.45593999997E+02  0.45594000000E+02  0.51100000000E-03 0.  1.
         11   -1    0    0    0    0 -0.00000000000E+00 -0.00000000000E+00 -0.45593999997E+02  0.45594000000E+02  0.51100000000E-03 0. -1.
    9900012    2    1    2    0    0 -0.26111749219E+00 -0.24423776833E+02 -0.20497218239E+02  0.59301874292E+02  0.49999872818E+02 0.  0.
        -12    1    1    2    0    0  0.26111749219E+00  0.24423776833E+02  0.20497218239E+02  0.31886125708E+02  0.00000000000E+00 0.  1.
         11    1    3    3    0    0 -0.12355355409E+02 -0.44825957083E+01 -0.13201478365E+02  0.18628674211E+02  0.51100000000E-03 0. -1.
        -11    1    3    3    0    0  0.53055165305E+01 -0.27858755064E+02 -0.76911041290E+00  0.28369883159E+02  0.51100000000E-03 0.  1.
        -12    1    3    3    0    0  0.67887213866E+01  0.79175739395E+01 -0.65266294611E+01  0.12303316922E+02  0.00000000000E+00 0.  1.
</event>
<event>
 7    1  0.1096439E-011  0.5930193E+02  0.7816164E-02  0.1266605E+00
        -11   -1    0    0    0    0  0.00000000000E+00  0.00000000000E+00  0.45593999997E+02  0.45594000000E+02  0.51100000000E-03 0.  1.
         11   -1    0    0    0    0 -0.00000000000E+00 -0.00000000000E+00 -0.45593999997E+02  0.45594000000E+02  0.51100000000E-03 0. -1.
    9900012    2    1    2    0    0 -0.10136245170E+02 -0.30650273684E+01 -0.30076296935E+02  0.59301929432E+02  0.49999973381E+02 0.  0.
        -12    1    1    2    0    0  0.10136245170E+02  0.30650273684E+01  0.30076296935E+02  0.31886070568E+02  0.00000000000E+00 0.  1.
         11    1    3    3    0    0 -0.92982510203E+01  0.79269520600E+01  0.16116461041E+01  0.12324424710E+02  0.51100000000E-03 0. -1.
        -11    1    3    3    0    0 -0.29776036857E+01 -0.21472316990E+02 -0.12537528990E+02  0.25042287317E+02  0.51100000000E-03 0.  1.
         12    1    3    3    0    0  0.21396095358E+01  0.10480337562E+02 -0.19150414049E+02  0.21935217405E+02  0.00000000000E+00 0. -1.
</event>
<event>
 7    1  0.1096439E-011  0.5930196E+02  0.7816164E-02  0.1266605E+00
        -11   -1    0    0    0    0  0.00000000000E+00  0.00000000000E+00  0.45593999997E+02  0.45594000000E+02  0.51100000000E-03 0.  1.
         11   -1    0    0    0    0 -0.00000000000E+00 -0.00000000000E+00 -0.45593999997E+02  0.45594000000E+02  0.51100000000E-03 0. -1.
    9900012    2    1    2    0    0 -0.17524528400E+02 -0.25098853204E+02  0.89251417469E+01  0.59301957866E+02  0.50000025237E+02 0.  0.
        -12    1    1    2    0    0  0.17524528400E+02  0.25098853204E+02 -0.89251417469E+01  0.31886042134E+02  0.00000000000E+00 0.  1.
         11    1    3    3    0    0 -0.30351828469E+02 -0.13500610257E+02  0.19594906275E+02  0.38567607145E+02  0.51100000000E-03 0. -1.
        -11    1    3    3    0    0  0.44087077219E+01 -0.63243893690E+01 -0.59368752284E+01  0.97304209779E+01  0.51100000000E-03 0.  1.
         12    1    3    3    0    0  0.84185923467E+01 -0.52738535778E+01 -0.47328892998E+01  0.11003929743E+02  0.00000000000E+00 0. -1.
</event>
<event>
 7    1  0.1096439E-011  0.5930194E+02  0.7816164E-02  0.1266605E+00
        -11   -1    0    0    0    0  0.00000000000E+00  0.00000000000E+00  0.45593999997E+02  0.45594000000E+02  0.51100000000E-03 0.  1.
         11   -1    0    0    0    0 -0.00000000000E+00 -0.00000000000E+00 -0.45593999997E+02  0.45594000000E+02  0.51100000000E-03 0. -1.
    9900012    2    1    2    0    0 -0.30372189540E+02  0.23383704887E+00 -0.97054897598E+01  0.59301935510E+02  0.49999984465E+02 0.  0.
        -12    1    1    2    0    0  0.30372189540E+02 -0.23383704887E+00  0.97054897598E+01  0.31886064490E+02  0.00000000000E+00 0.  1.
         11    1    3    3    0    0 -0.59981612840E+01 -0.67632795661E+01  0.11138648648E+02  0.14345361035E+02  0.51100000000E-03 0. -1.
        -11    1    3    3    0    0 -0.37337353091E+01  0.65348204848E+01 -0.22998817308E+02  0.24198972209E+02  0.51100000000E-03 0.  1.
        -12    1    3    3    0    0 -0.20640292947E+02  0.46229613015E+00  0.21546789007E+01  0.20757602265E+02  0.00000000000E+00 0.  1.
</event>
<event>
 7    1  0.1096439E-011  0.5930191E+02  0.7816164E-02  0.1266605E+00
        -11   -1    0    0    0    0  0.00000000000E+00  0.00000000000E+00  0.45593999997E+02  0.45594000000E+02  0.51100000000E-03 0.  1.
         11   -1    0    0    0    0 -0.00000000000E+00 -0.00000000000E+00 -0.45593999997E+02  0.45594000000E+02  0.51100000000E-03 0. -1.
    9900012    2    1    2    0    0  0.14783067721E+02  0.14131732681E+02 -0.24463799360E+02  0.59301914650E+02  0.49999946423E+02 0.  0.
        -12    1    1    2    0    0 -0.14783067721E+02 -0.14131732681E+02  0.24463799360E+02  0.31886085350E+02  0.00000000000E+00 0.  1.
         11    1    3    3    0    0  0.71318072194E+01  0.27336469480E+02 -0.29561056808E+02  0.40890112713E+02  0.51100000000E-03 0. -1.
        -11    1    3    3    0    0 -0.11607947774E+01 -0.65545406001E+00  0.25362436696E+01  0.28652393884E+01  0.51100000000E-03 0.  1.
         12    1    3    3    0    0  0.88120552791E+01 -0.12549282739E+02  0.25610137790E+01  0.15546562549E+02  0.00000000000E+00 0. -1.
</event>
<event>
 7    1  0.1096439E-011  0.5930191E+02  0.7816164E-02  0.1266605E+00
        -11   -1    0    0    0    0  0.00000000000E+00  0.00000000000E+00  0.45593999997E+02  0.45594000000E+02  0.51100000000E-03 0.  1.
         11   -1    0    0    0    0 -0.00000000000E+00 -0.00000000000E+00 -0.45593999997E+02  0.45594000000E+02  0.51100000000E-03 0. -1.
    9900012    2    1    2    0    0  0.65767000460E+01 -0.30976094602E+02  0.37351265748E+01  0.59301912268E+02  0.49999942079E+02 0.  0.
        -12    1    1    2    0    0 -0.65767000460E+01  0.30976094602E+02 -0.37351265748E+01  0.31886087732E+02  0.00000000000E+00 0.  1.
         11    1    3    3    0    0  0.86407446431E+00 -0.21110428963E+02 -0.20271025649E+01  0.21225126165E+02  0.51100000000E-03 0. -1.
        -11    1    3    3    0    0  0.11645261635E+02  0.60263853899E+01  0.14032163407E+02  0.19204974604E+02  0.51100000000E-03 0.  1.
        -12    1    3    3    0    0 -0.59326360529E+01 -0.15892051029E+02 -0.82699342674E+01  0.18871811499E+02  0.00000000000E+00 0.  1.
</event>
<event>
 7    1  0.1096439E-011  0.5930195E+02  0.7816164E-02  0.1266605E+00
        -11   -1    0    0    0    0  0.00000000000E+00  0.00000000000E+00  0.45593999997E+02  0.45594000000E+02  0.51100000000E-03 0.  1.
         11   -1    0    0    0    0 -0.00000000000E+00 -0.00000000000E+00 -0.45593999997E+02  0.45594000000E+02  0.51100000000E-03 0. -1.
    9900012    2    1    2    0    0 -0.13932154698E+02  0.28105881663E+02 -0.57161929809E+01  0.59301946924E+02  0.50000005281E+02 0.  0.
        -12    1    1    2    0    0  0.13932154698E+02 -0.28105881663E+02  0.57161929809E+01  0.31886053076E+02  0.00000000000E+00 0.  1.
         11    1    3    3    0    0 -0.11130447279E+02  0.29956270684E+02 -0.19343189976E+02  0.37355374562E+02  0.51100000000E-03 0. -1.
        -11    1    3    3    0    0 -0.65971642031E+01 -0.51178135670E+01  0.14624407954E+02  0.16840068275E+02  0.51100000000E-03 0.  1.
         12    1    3    3    0    0  0.37954567847E+01  0.32674245462E+01 -0.99741095933E+00  0.51065040871E+01  0.00000000000E+00 0. -1.
</event>
<event>
 7    1  0.1096439E-011  0.5930196E+02  0.7816164E-02  0.1266605E+00
        -11   -1    0    0    0    0  0.00000000000E+00  0.00000000000E+00  0.45593999997E+02  0.45594000000E+02  0.51100000000E-03 0.  1.
         11   -1    0    0    0    0 -0.00000000000E+00 -0.00000000000E+00 -0.45593999997E+02  0.45594000000E+02  0.51100000000E-03 0. -1.
    9900012    2    1    2    0    0 -0.30042279859E+02 -0.91515571311E+01  0.55163305035E+01  0.59301961060E+02  0.50000031063E+02 0.  0.
        -12    1    1    2    0    0  0.30042279859E+02  0.91515571311E+01 -0.55163305035E+01  0.31886038940E+02  0.00000000000E+00 0.  1.
         11    1    3    3    0    0  0.79584744845E+01 -0.57518431228E+00  0.12617711183E+02  0.14928991555E+02  0.51100000000E-03 0. -1.
        -11    1    3    3    0    0 -0.14096072563E+02  0.58340898751E+01  0.10586436543E+01  0.15292370418E+02  0.51100000000E-03 0.  1.
         12    1    3    3    0    0 -0.23904681781E+02 -0.14410462694E+02 -0.81600243333E+01  0.29080599086E+02  0.00000000000E+00 0. -1.
</event>
<event>
 7    1  0.1096439E-011  0.5930194E+02  0.7816164E-02  0.1266605E+00
        -11   -1    0    0    0    0  0.00000000000E+00  0.00000000000E+00  0.45593999997E+02  0.45594000000E+02  0.51100000000E-03 0. -1.
         11   -1    0    0    0    0 -0.00000000000E+00 -0.00000000000E+00 -0.45593999997E+02  0.45594000000E+02  0.51100000000E-03 0.  1.
    9900012    2    1    2    0    0  0.12533188147E+02 -0.29232765400E+02  0.22550977814E+01  0.59301939659E+02  0.49999992032E+02 0.  0.
        -12    1    1    2    0    0 -0.12533188147E+02  0.29232765400E+02 -0.22550977814E+01  0.31886060341E+02  0.00000000000E+00 0.  1.
         11    1    3    3    0    0  0.13264724778E+02 -0.23603998425E+02 -0.11745333280E+01  0.27101313509E+02  0.51100000000E-03 0. -1.
        -11    1    3    3    0    0  0.22447433557E+01  0.12596947606E+02  0.48389041010E+01  0.13679800981E+02  0.51100000000E-03 0.  1.
        -12    1    3    3    0    0 -0.29762799872E+01 -0.18225714581E+02 -0.14092729916E+01  0.18520825169E+02  0.00000000000E+00 0.  1.
</event>
<event>
 7    1  0.1096439E-011  0.5930195E+02  0.7816164E-02  0.1266605E+00
        -11   -1    0    0    0    0  0.00000000000E+00  0.00000000000E+00  0.45593999997E+02  0.45594000000E+02  0.51100000000E-03 0. -1.
         11   -1    0    0    0    0 -0.00000000000E+00 -0.00000000000E+00 -0.45593999997E+02  0.45594000000E+02  0.51100000000E-03 0.  1.
    9900012    2    1    2    0    0  0.28777482606E+00  0.83505381693E+01  0.30771840452E+02  0.59301945574E+02  0.50000002820E+02 0.  0.
        -12    1    1    2    0    0 -0.28777482606E+00 -0.83505381693E+01 -0.30771840452E+02  0.31886054426E+02  0.00000000000E+00 0.  1.
         11    1    3    3    0    0  0.73767487472E+01  0.14523050452E+02  0.14423451907E+02  0.21757099569E+02  0.51100000000E-03 0. -1.
        -11    1    3    3    0    0  0.20113153882E+01 -0.11169664985E+01  0.24322760365E+02  0.24431325706E+02  0.51100000000E-03 0.  1.
        -12    1    3    3    0    0 -0.91002893094E+01 -0.50555457842E+01 -0.79743718192E+01  0.13113520298E+02  0.00000000000E+00 0.  1.
</event>
<event>
 7    1  0.1096439E-011  0.5930195E+02  0.7816164E-02  0.1266605E+00
        -11   -1    0    0    0    0  0.00000000000E+00  0.00000000000E+00  0.45593999997E+02  0.45594000000E+02  0.51100000000E-03 0.  1.
         11   -1    0    0    0    0 -0.00000000000E+00 -0.00000000000E+00 -0.45593999997E+02  0.45594000000E+02  0.51100000000E-03 0. -1.
    9900012    2    1    2    0    0 -0.75884920241E+00  0.21411167373E+02 -0.23615802436E+02  0.59301951874E+02  0.50000014310E+02 0.  0.
        -12    1    1    2    0    0  0.75884920241E+00 -0.21411167373E+02  0.23615802436E+02  0.31886048126E+02  0.00000000000E+00 0.  1.
         11    1    3    3    0    0 -0.67003331484E+01 -0.77937610207E+01  0.78400192004E+01  0.12926835517E+02  0.51100000000E-03 0.  1.
        -11    1    3    3    0    0  0.68050066633E+01  0.78664957789E+01 -0.18976998948E+02  0.21640618310E+02  0.51100000000E-03 0. -1.
        -12    1    3    3    0    0 -0.86352271728E+00  0.21338432615E+02 -0.12478822689E+02  0.24734498047E+02  0.00000000000E+00 0.  1.
</event>
<event>
 7    1  0.1096439E-011  0.5930196E+02  0.7816164E-02  0.1266605E+00
        -11   -1    0    0    0    0  0.00000000000E+00  0.00000000000E+00  0.45593999997E+02  0.45594000000E+02  0.51100000000E-03 0.  1.
         11   -1    0    0    0    0 -0.00000000000E+00 -0.00000000000E+00 -0.45593999997E+02  0.45594000000E+02  0.51100000000E-03 0. -1.
    9900012    2    1    2    0    0  0.79765822180E+01  0.26396285981E+02 -0.16010305665E+02  0.59301958148E+02  0.50000025752E+02 0.  0.
        -12    1    1    2    0    0 -0.79765822180E+01 -0.26396285981E+02  0.16010305665E+02  0.31886041852E+02  0.00000000000E+00 0.  1.
         11    1    3    3    0    0 -0.10060247454E+02 -0.32988859795E+01 -0.93972405054E+01  0.14156247982E+02  0.51100000000E-03 0. -1.
        -11    1    3    3    0    0  0.12024229283E+02  0.23280848102E+02  0.85974882174E+01  0.27577106122E+02  0.51100000000E-03 0.  1.
         12    1    3    3    0    0  0.60126003889E+01  0.64143238591E+01 -0.15210553377E+02  0.17568604044E+02  0.00000000000E+00 0. -1.
</event>
<event>
 7    1  0.1096439E-011  0.5930196E+02  0.7816164E-02  0.1266605E+00
        -11   -1    0    0    0    0  0.00000000000E+00  0.00000000000E+00  0.45593999997E+02  0.45594000000E+02  0.51100000000E-03 0. -1.
         11   -1    0    0    0    0 -0.00000000000E+00 -0.00000000000E+00 -0.45593999997E+02  0.45594000000E+02  0.51100000000E-03 0.  1.
    9900012    2    1    2    0    0 -0.11287875564E+02 -0.11216431591E+02  0.27631413856E+02  0.59301960671E+02  0.50000030354E+02 0.  0.
        -12    1    1    2    0    0  0.11287875564E+02  0.11216431591E+02 -0.27631413856E+02  0.31886039329E+02  0.00000000000E+00 0.  1.
         11    1    3    3    0    0  0.18742594242E+01 -0.14956368265E+02  0.24665413915E+02  0.28906546732E+02  0.51100000000E-03 0. -1.
        -11    1    3    3    0    0 -0.21165149024E+02  0.26731804839E+00 -0.43731459767E-01  0.21166882265E+02  0.51100000000E-03 0.  1.
        -12    1    3    3    0    0  0.80030140351E+01  0.34726186255E+01  0.30097314002E+01  0.92285316744E+01  0.00000000000E+00 0.  1.
</event>
<event>
 7    1  0.1096439E-011  0.5930189E+02  0.7816164E-02  0.1266605E+00
        -11   -1    0    0    0    0  0.00000000000E+00  0.00000000000E+00  0.45593999997E+02  0.45594000000E+02  0.51100000000E-03 0.  1.
         11   -1    0    0    0    0 -0.00000000000E+00 -0.00000000000E+00 -0.45593999997E+02  0.45594000000E+02  0.51100000000E-03 0. -1.
    9900012    2    1    2    0    0  0.21953966244E+02 -0.14457813906E+01 -0.23079362128E+02  0.59301892148E+02  0.49999905384E+02 0.  0.
        -12    1    1    2    0    0 -0.21953966244E+02  0.14457813906E+01  0.23079362128E+02  0.31886107852E+02  0.00000000000E+00 0.  1.
         11    1    3    3    0    0  0.12023359022E+02  0.93511476330E+01  0.10448112596E+02  0.18470738515E+02  0.51100000000E-03 0. -1.
        -11    1    3    3    0    0  0.32210422897E+01 -0.14032129014E+02 -0.14663583348E+02  0.20549852431E+02  0.51100000000E-03 0.  1.
         12    1    3    3    0    0  0.67095649325E+01  0.32351999904E+01 -0.18863891376E+02  0.20281301201E+02  0.00000000000E+00 0. -1.
</event>
<event>
 7    1  0.1096439E-011  0.5930197E+02  0.7816164E-02  0.1266605E+00
        -11   -1    0    0    0    0  0.00000000000E+00  0.00000000000E+00  0.45593999997E+02  0.45594000000E+02  0.51100000000E-03 0.  1.
         11   -1    0    0    0    0 -0.00000000000E+00 -0.00000000000E+00 -0.45593999997E+02  0.45594000000E+02  0.51100000000E-03 0. -1.
    9900012    2    1    2    0    0 -0.10744474308E+02  0.19096729431E+02 -0.23164417306E+02  0.59301968070E+02  0.50000043847E+02 0.  0.
        -12    1    1    2    0    0  0.10744474308E+02 -0.19096729431E+02  0.23164417306E+02  0.31886031930E+02  0.00000000000E+00 0.  1.
         11    1    3    3    0    0 -0.16152529395E+02 -0.85172684875E+01 -0.12709825620E+02  0.22248319844E+02  0.51100000000E-03 0. -1.
        -11    1    3    3    0    0  0.80855968962E+01  0.30475137174E+02 -0.84009778245E+01  0.32629546298E+02  0.51100000000E-03 0.  1.
        -12    1    3    3    0    0 -0.26775418090E+01 -0.28611392551E+01 -0.20536138612E+01  0.44241019278E+01  0.00000000000E+00 0.  1.
</event>
<event>
 7    1  0.1096439E-011  0.5930193E+02  0.7816164E-02  0.1266605E+00
        -11   -1    0    0    0    0  0.00000000000E+00  0.00000000000E+00  0.45593999997E+02  0.45594000000E+02  0.51100000000E-03 0.  1.
         11   -1    0    0    0    0 -0.00000000000E+00 -0.00000000000E+00 -0.45593999997E+02  0.45594000000E+02  0.51100000000E-03 0. -1.
    9900012    2    1    2    0    0 -0.83354208571E+01 -0.17492332354E+02 -0.25323123760E+02  0.59301928919E+02  0.49999972444E+02 0.  0.
        -12    1    1    2    0    0  0.83354208571E+01  0.17492332354E+02  0.25323123760E+02  0.31886071081E+02  0.00000000000E+00 0.  1.
         11    1    3    3    0    0  0.58739539249E+01  0.11163537882E+01 -0.22147846131E+02  0.22940720760E+02  0.51100000000E-03 0. -1.
        -11    1    3    3    0    0 -0.54682911018E+01 -0.24111634173E+02  0.20065786875E+01  0.24805230665E+02  0.51100000000E-03 0.  1.
         12    1    3    3    0    0 -0.87410836802E+01  0.55029480312E+01 -0.51818563170E+01  0.11555977493E+02  0.00000000000E+00 0. -1.
</event>
<event>
 7    1  0.1096439E-011  0.5930190E+02  0.7816164E-02  0.1266605E+00
        -11   -1    0    0    0    0  0.00000000000E+00  0.00000000000E+00  0.45593999997E+02  0.45594000000E+02  0.51100000000E-03 0.  1.
         11   -1    0    0    0    0 -0.00000000000E+00 -0.00000000000E+00 -0.45593999997E+02  0.45594000000E+02  0.51100000000E-03 0. -1.
    9900012    2    1    2    0    0  0.15539358861E+02 -0.11543171034E+02 -0.25337858337E+02  0.59301897441E+02  0.49999915036E+02 0.  0.
        -12    1    1    2    0    0 -0.15539358861E+02  0.11543171034E+02  0.25337858337E+02  0.31886102559E+02  0.00000000000E+00 0.  1.
         11    1    3    3    0    0 -0.20245359727E+01  0.13985911702E+02 -0.33284213527E+01  0.14518362890E+02  0.51100000000E-03 0.  1.
        -11    1    3    3    0    0  0.17643758835E+02 -0.69347116302E+01 -0.50553752369E+01  0.19620124114E+02  0.51100000000E-03 0. -1.
         12    1    3    3    0    0 -0.79864000912E-01 -0.18594371105E+02 -0.16954061747E+02  0.25163410436E+02  0.00000000000E+00 0. -1.
</event>
<event>
 7    1  0.1096439E-011  0.5930189E+02  0.7816164E-02  0.1266605E+00
        -11   -1    0    0    0    0  0.00000000000E+00  0.00000000000E+00  0.45593999997E+02  0.45594000000E+02  0.51100000000E-03 0.  1.
         11   -1    0    0    0    0 -0.00000000000E+00 -0.00000000000E+00 -0.45593999997E+02  0.45594000000E+02  0.51100000000E-03 0. -1.
    9900012    2    1    2    0    0 -0.22014463817E+01  0.28211188934E+02  0.14697148200E+02  0.59301894681E+02  0.49999910003E+02 0.  0.
        -12    1    1    2    0    0  0.22014463817E+01 -0.28211188934E+02 -0.14697148200E+02  0.31886105319E+02  0.00000000000E+00 0.  1.
         11    1    3    3    0    0  0.15169081803E+02  0.87440702466E+01  0.19775004331E+02  0.26412319167E+02  0.51100000000E-03 0. -1.
        -11    1    3    3    0    0 -0.18771838280E+02  0.80443295032E+01 -0.28996167652E+00  0.20424916832E+02  0.51100000000E-03 0.  1.
         12    1    3    3    0    0  0.14013100957E+01  0.11422789184E+02 -0.47878944550E+01  0.12464658681E+02  0.00000000000E+00 0. -1.
</event>
<event>
 7    1  0.1096439E-011  0.5930194E+02  0.7816164E-02  0.1266605E+00
        -11   -1    0    0    0    0  0.00000000000E+00  0.00000000000E+00  0.45593999997E+02  0.45594000000E+02  0.51100000000E-03 0.  1.
         11   -1    0    0    0    0 -0.00000000000E+00 -0.00000000000E+00 -0.45593999997E+02  0.45594000000E+02  0.51100000000E-03 0. -1.
    9900012    2    1    2    0    0 -0.24344403932E+02  0.42768682937E+01 -0.20143954977E+02  0.59301944626E+02  0.50000001091E+02 0.  0.
        -12    1    1    2    0    0  0.24344403932E+02 -0.42768682937E+01  0.20143954977E+02  0.31886055374E+02  0.00000000000E+00 0.  1.
         11    1    3    3    0    0 -0.22513154381E+02 -0.97486620449E+01 -0.18628859706E+02  0.30804430624E+02  0.51100000000E-03 0. -1.
        -11    1    3    3    0    0 -0.77401961444E+01  0.16783919143E+02  0.51358892459E+01  0.19183011670E+02  0.51100000000E-03 0.  1.
         12    1    3    3    0    0  0.59089465933E+01 -0.27583888039E+01 -0.66509845171E+01  0.93145023315E+01  0.00000000000E+00 0. -1.
</event>
<event>
 7    1  0.1096439E-011  0.5930194E+02  0.7816164E-02  0.1266605E+00
        -11   -1    0    0    0    0  0.00000000000E+00  0.00000000000E+00  0.45593999997E+02  0.45594000000E+02  0.51100000000E-03 0.  1.
         11   -1    0    0    0    0 -0.00000000000E+00 -0.00000000000E+00 -0.45593999997E+02  0.45594000000E+02  0.51100000000E-03 0. -1.
    9900012    2    1    2    0    0 -0.19442213733E+02 -0.27794350529E+01 -0.25119626223E+02  0.59301944182E+02  0.50000000282E+02 0.  0.
        -12    1    1    2    0    0  0.19442213733E+02  0.27794350529E+01  0.25119626223E+02  0.31886055818E+02  0.00000000000E+00 0.  1.
         11    1    3    3    0    0  0.10427264529E+02  0.13838087323E+00 -0.16544575572E+02  0.19556839620E+02  0.51100000000E-03 0. -1.
        -11    1    3    3    0    0 -0.10889502978E+02 -0.26824376514E+00  0.87026963557E+01  0.13942386953E+02  0.51100000000E-03 0.  1.
        -12    1    3    3    0    0 -0.18979975284E+02 -0.26495721610E+01 -0.17277747007E+02  0.25802717609E+02  0.00000000000E+00 0.  1.
</event>
<event>
 7    1  0.1096439E-011  0.5930197E+02  0.7816164E-02  0.1266605E+00
        -11   -1    0    0    0    0  0.00000000000E+00  0.00000000000E+00  0.45593999997E+02  0.45594000000E+02  0.51100000000E-03 0.  1.
         11   -1    0    0    0    0 -0.00000000000E+00 -0.00000000000E+00 -0.45593999997E+02  0.45594000000E+02  0.51100000000E-03 0. -1.
    9900012    2    1    2    0    0 -0.14247394600E+02  0.19381904186E+02 -0.20930180660E+02  0.59301969748E+02  0.50000046908E+02 0.  0.
        -12    1    1    2    0    0  0.14247394600E+02 -0.19381904186E+02  0.20930180660E+02  0.31886030252E+02  0.00000000000E+00 0.  1.
         11    1    3    3    0    0 -0.15307598891E+02  0.26639796255E+02 -0.62844188588E+01  0.31360727813E+02  0.51100000000E-03 0. -1.
        -11    1    3    3    0    0 -0.34033384990E+01 -0.56429097253E+01 -0.19839432771E+02  0.20905220306E+02  0.51100000000E-03 0.  1.
         12    1    3    3    0    0  0.44635427906E+01 -0.16149823440E+01  0.51936709699E+01  0.70360216286E+01  0.00000000000E+00 0. -1.
</event>
<event>
 7    1  0.1096439E-011  0.5930194E+02  0.7816164E-02  0.1266605E+00
        -11   -1    0    0    0    0  0.00000000000E+00  0.00000000000E+00  0.45593999997E+02  0.45594000000E+02  0.51100000000E-03 0.  1.
         11   -1    0    0    0    0 -0.00000000000E+00 -0.00000000000E+00 -0.45593999997E+02  0.45594000000E+02  0.51100000000E-03 0. -1.
    9900012    2    1    2    0    0 -0.13409091847E+02  0.17021980018E+02 -0.23391651255E+02  0.59301938840E+02  0.49999990538E+02 0.  0.
        -12    1    1    2    0    0  0.13409091847E+02 -0.17021980018E+02  0.23391651255E+02  0.31886061160E+02  0.00000000000E+00 0.  1.
         11    1    3    3    0    0  0.28088352025E+01 -0.42424604819E+01 -0.27698284086E+02  0.28161728777E+02  0.51100000000E-03 0. -1.
        -11    1    3    3    0    0 -0.11930992888E+01  0.11924099616E+02  0.59371938991E+01  0.13373776924E+02  0.51100000000E-03 0.  1.
         12    1    3    3    0    0 -0.15024827761E+02  0.93403408844E+01 -0.16305610680E+01  0.17766433139E+02  0.00000000000E+00 0. -1.
</event>
<event>
 7    1  0.1096439E-011  0.5930194E+02  0.7816164E-02  0.1266605E+00
        -11   -1    0    0    0    0  0.00000000000E+00  0.00000000000E+00  0.45593999997E+02  0.45594000000E+02  0.51100000000E-03 0. -1.
         11   -1    0    0    0    0 -0.00000000000E+00 -0.00000000000E+00 -0.45593999997E+02  0.45594000000E+02  0.51100000000E-03 0.  1.
    9900012    2    1    2    0    0 -0.58109276737E+01 -0.29132555259E+02 -0.11586546656E+02  0.59301941608E+02  0.49999995588E+02 0.  0.
        -12    1    1    2    0    0  0.58109276737E+01  0.29132555259E+02  0.11586546656E+02  0.31886058392E+02  0.00000000000E+00 0.  1.
         11    1    3    3    0    0 -0.19938675397E+02 -0.30626934622E+02 -0.78688909663E+01  0.37382875039E+02  0.51100000000E-03 0. -1.
        -11    1    3    3    0    0  0.53254739991E+01  0.85960342092E+01 -0.34842728158E+00  0.10117997790E+02  0.51100000000E-03 0.  1.
         12    1    3    3    0    0  0.88022737241E+01 -0.71016548462E+01 -0.33692284080E+01  0.11801068779E+02  0.00000000000E+00 0. -1.
</event>
<event>
 7    1  0.1096439E-011  0.5930192E+02  0.7816164E-02  0.1266605E+00
        -11   -1    0    0    0    0  0.00000000000E+00  0.00000000000E+00  0.45593999997E+02  0.45594000000E+02  0.51100000000E-03 0.  1.
         11   -1    0    0    0    0 -0.00000000000E+00 -0.00000000000E+00 -0.45593999997E+02  0.45594000000E+02  0.51100000000E-03 0. -1.
    9900012    2    1    2    0    0 -0.78140261070E+01  0.23586821638E+02 -0.19983119378E+02  0.59301918098E+02  0.49999952711E+02 0.  0.
        -12    1    1    2    0    0  0.78140261070E+01 -0.23586821638E+02  0.19983119378E+02  0.31886081902E+02  0.00000000000E+00 0.  1.
         11    1    3    3    0    0 -0.17888167032E+02  0.11114937519E+02 -0.22205041384E+01  0.21176850444E+02  0.51100000000E-03 0. -1.
        -11    1    3    3    0    0  0.13396432499E+02  0.11167971757E+02  0.24389187509E+01  0.17610687715E+02  0.51100000000E-03 0.  1.
         12    1    3    3    0    0 -0.33222915732E+01  0.13039123620E+01 -0.20201533990E+02  0.20514379939E+02  0.00000000000E+00 0. -1.
</event>
<event>
 7    1  0.1096439E-011  0.5930196E+02  0.7816164E-02  0.1266605E+00
        -11   -1    0    0    0    0  0.00000000000E+00  0.00000000000E+00  0.45593999997E+02  0.45594000000E+02  0.51100000000E-03 0. -1.
         11   -1    0    0    0    0 -0.00000000000E+00 -0.00000000000E+00 -0.45593999997E+02  0.45594000000E+02  0.51100000000E-03 0.  1.
    9900012    2    1    2    0    0  0.93207366748E+01 -0.21225371912E+02  0.21893544075E+02  0.59301955763E+02  0.50000021402E+02 0.  0.
        -12    1    1    2    0    0 -0.93207366748E+01  0.21225371912E+02 -0.21893544075E+02  0.31886044237E+02  0.00000000000E+00 0.  1.
         11    1    3    3    0    0  0.19907375154E+02  0.63580126071E+01  0.31039166626E+01  0.21127285882E+02  0.51100000000E-03 0. -1.
        -11    1    3    3    0    0 -0.95540662387E+01 -0.10978409856E+02  0.15413305861E+02  0.21198482552E+02  0.51100000000E-03 0.  1.
        -12    1    3    3    0    0 -0.10325722409E+01 -0.16604974663E+02  0.33763215508E+01  0.16976187328E+02  0.00000000000E+00 0.  1.
</event>
<event>
 7    1  0.1096439E-011  0.5930180E+02  0.7816164E-02  0.1266605E+00
        -11   -1    0    0    0    0  0.00000000000E+00  0.00000000000E+00  0.45593999997E+02  0.45594000000E+02  0.51100000000E-03 0.  1.
         11   -1    0    0    0    0 -0.00000000000E+00 -0.00000000000E+00 -0.45593999997E+02  0.45594000000E+02  0.51100000000E-03 0. -1.
    9900012    2    1    2    0    0  0.24571822413E+02 -0.17562089341E+02  0.10223896627E+02  0.59301803912E+02  0.49999744462E+02 0.  0.
        -12    1    1    2    0    0 -0.24571822413E+02  0.17562089341E+02 -0.10223896627E+02  0.31886196088E+02  0.00000000000E+00 0.  1.
         11    1    3    3    0    0 -0.24586893131E+01 -0.64940334847E+01 -0.11333284693E+02  0.13291386919E+02  0.51100000000E-03 0. -1.
        -11    1    3    3    0    0  0.20140289322E+02 -0.15660965983E+02  0.26156241122E+02  0.36538282108E+02  0.51100000000E-03 0.  1.
         12    1    3    3    0    0  0.68902224043E+01  0.45929101262E+01 -0.45990598031E+01  0.94721348850E+01  0.00000000000E+00 0. -1.
</event>
<event>
 7    1  0.1096439E-011  0.5930191E+02  0.7816164E-02  0.1266605E+00
        -11   -1    0    0    0    0  0.00000000000E+00  0.00000000000E+00  0.45593999997E+02  0.45594000000E+02  0.51100000000E-03 0.  1.
         11   -1    0    0    0    0 -0.00000000000E+00 -0.00000000000E+00 -0.45593999997E+02  0.45594000000E+02  0.51100000000E-03 0. -1.
    9900012    2    1    2    0    0 -0.28561899420E+01 -0.31092747231E+02  0.64657502118E+01  0.59301910915E+02  0.49999939610E+02 0.  0.
        -12    1    1    2    0    0  0.28561899420E+01  0.31092747231E+02 -0.64657502118E+01  0.31886089085E+02  0.00000000000E+00 0.  1.
         11    1    3    3    0    0 -0.11049507705E+01 -0.20187828792E+02 -0.17366469816E+02  0.26652647555E+02  0.51100000000E-03 0. -1.
        -11    1    3    3    0    0  0.61165401145E+01 -0.12823409515E+02  0.15650056621E+02  0.21137080382E+02  0.51100000000E-03 0.  1.
         12    1    3    3    0    0 -0.78677792860E+01  0.19184910765E+01  0.81821634074E+01  0.11512182978E+02  0.00000000000E+00 0. -1.
</event>
<event>
 7    1  0.1096439E-011  0.5930201E+02  0.7816164E-02  0.1266605E+00
        -11   -1    0    0    0    0  0.00000000000E+00  0.00000000000E+00  0.45593999997E+02  0.45594000000E+02  0.51100000000E-03 0. -1.
         11   -1    0    0    0    0 -0.00000000000E+00 -0.00000000000E+00 -0.45593999997E+02  0.45594000000E+02  0.51100000000E-03 0.  1.
    9900012    2    1    2    0    0  0.29924045135E+02 -0.10670129952E+02  0.27233273805E+01  0.59302005230E+02  0.50000111618E+02 0.  0.
        -12    1    1    2    0    0 -0.29924045135E+02  0.10670129952E+02 -0.27233273805E+01  0.31885994770E+02  0.00000000000E+00 0.  1.
         11    1    3    3    0    0  0.86600522785E+01 -0.18347526077E+02  0.20100172631E+01  0.20387947132E+02  0.51100000000E-03 0. -1.
        -11    1    3    3    0    0 -0.18630870718E+01  0.14102302299E+02 -0.32362946275E+01  0.14588338725E+02  0.51100000000E-03 0.  1.
        -12    1    3    3    0    0  0.23127079929E+02 -0.64249061745E+01  0.39496047450E+01  0.24325719373E+02  0.00000000000E+00 0.  1.
</event>
<event>
 7    1  0.1096439E-011  0.5930200E+02  0.7816164E-02  0.1266605E+00
        -11   -1    0    0    0    0  0.00000000000E+00  0.00000000000E+00  0.45593999997E+02  0.45594000000E+02  0.51100000000E-03 0.  1.
         11   -1    0    0    0    0 -0.00000000000E+00 -0.00000000000E+00 -0.45593999997E+02  0.45594000000E+02  0.51100000000E-03 0. -1.
    9900012    2    1    2    0    0 -0.51741382647E+01  0.91614844368E+01 -0.30100045300E+02  0.59301996316E+02  0.50000095361E+02 0.  0.
        -12    1    1    2    0    0  0.51741382647E+01 -0.91614844368E+01  0.30100045300E+02  0.31886003684E+02  0.00000000000E+00 0.  1.
         11    1    3    3    0    0 -0.11438539169E+02  0.90206321099E+01 -0.24263238936E+02  0.28300472539E+02  0.51100000000E-03 0. -1.
        -11    1    3    3    0    0 -0.14480578170E+00  0.56514307654E+01  0.10884622228E+02  0.12265179971E+02  0.51100000000E-03 0.  1.
        -12    1    3    3    0    0  0.64092066856E+01 -0.55105784385E+01 -0.16721428592E+02  0.18736343806E+02  0.00000000000E+00 0.  1.
</event>
<event>
 7    1  0.1096439E-011  0.5930194E+02  0.7816164E-02  0.1266605E+00
        -11   -1    0    0    0    0  0.00000000000E+00  0.00000000000E+00  0.45593999997E+02  0.45594000000E+02  0.51100000000E-03 0.  1.
         11   -1    0    0    0    0 -0.00000000000E+00 -0.00000000000E+00 -0.45593999997E+02  0.45594000000E+02  0.51100000000E-03 0. -1.
    9900012    2    1    2    0    0 -0.27885383744E+02 -0.11829432499E+02  0.99594683808E+01  0.59301935485E+02  0.49999984420E+02 0.  0.
        -12    1    1    2    0    0  0.27885383744E+02  0.11829432499E+02 -0.99594683808E+01  0.31886064515E+02  0.00000000000E+00 0.  1.
         11    1    3    3    0    0 -0.18988080926E+02  0.63454204687E+01 -0.55235096631E+01  0.20768262745E+02  0.51100000000E-03 0. -1.
        -11    1    3    3    0    0  0.92940817512E+01 -0.27745381683E+01  0.10287978461E+02  0.14139325257E+02  0.51100000000E-03 0.  1.
        -12    1    3    3    0    0 -0.18191384569E+02 -0.15400314799E+02  0.51949995826E+01  0.24394347483E+02  0.00000000000E+00 0.  1.
</event>
<event>
 7    1  0.1096439E-011  0.5930197E+02  0.7816164E-02  0.1266605E+00
        -11   -1    0    0    0    0  0.00000000000E+00  0.00000000000E+00  0.45593999997E+02  0.45594000000E+02  0.51100000000E-03 0.  1.
         11   -1    0    0    0    0 -0.00000000000E+00 -0.00000000000E+00 -0.45593999997E+02  0.45594000000E+02  0.51100000000E-03 0. -1.
    9900012    2    1    2    0    0  0.31176031395E+02  0.44308674114E+01 -0.50141501501E+01  0.59301965106E+02  0.50000038442E+02 0.  0.
        -12    1    1    2    0    0 -0.31176031395E+02 -0.44308674114E+01  0.50141501501E+01  0.31886034894E+02  0.00000000000E+00 0.  1.
         11    1    3    3    0    0  0.17201066256E+02  0.13133247185E+02 -0.17344113959E+02  0.27734043182E+02  0.51100000000E-03 0. -1.
        -11    1    3    3    0    0  0.34571162963E+01 -0.14933565873E+02  0.18013861448E+01  0.15433989603E+02  0.51100000000E-03 0.  1.
         12    1    3    3    0    0  0.10517848843E+02  0.62311860997E+01  0.10528577664E+02  0.16133932321E+02  0.00000000000E+00 0. -1.
</event>
<event>
 7    1  0.1096439E-011  0.5930197E+02  0.7816164E-02  0.1266605E+00
        -11   -1    0    0    0    0  0.00000000000E+00  0.00000000000E+00  0.45593999997E+02  0.45594000000E+02  0.51100000000E-03 0.  1.
         11   -1    0    0    0    0 -0.00000000000E+00 -0.00000000000E+00 -0.45593999997E+02  0.45594000000E+02  0.51100000000E-03 0. -1.
    9900012    2    1    2    0    0 -0.14688514161E+02  0.19603204433E+02 -0.20412759341E+02  0.59301971458E+02  0.50000050025E+02 0.  0.
        -12    1    1    2    0    0  0.14688514161E+02 -0.19603204433E+02  0.20412759341E+02  0.31886028542E+02  0.00000000000E+00 0.  1.
         11    1    3    3    0    0 -0.21012787325E+02  0.16747917621E+02  0.82299937215E+01  0.28102718245E+02  0.51100000000E-03 0. -1.
        -11    1    3    3    0    0  0.11188870010E+01 -0.23207756696E+01 -0.18501132977E+02  0.18679663528E+02  0.51100000000E-03 0.  1.
         12    1    3    3    0    0  0.52053861629E+01  0.51760624811E+01 -0.10141620085E+02  0.12519589685E+02  0.00000000000E+00 0. -1.
</event>
<event>
 7    1  0.1096439E-011  0.5930200E+02  0.7816164E-02  0.1266605E+00
        -11   -1    0    0    0    0  0.00000000000E+00  0.00000000000E+00  0.45593999997E+02  0.45594000000E+02  0.51100000000E-03 0.  1.
         11   -1    0    0    0    0 -0.00000000000E+00 -0.00000000000E+00 -0.45593999997E+02  0.45594000000E+02  0.51100000000E-03 0. -1.
    9900012    2    1    2    0    0 -0.12197458654E+02 -0.27260576121E+02  0.11171380904E+02  0.59302003711E+02  0.50000108848E+02 0.  0.
        -12    1    1    2    0    0  0.12197458654E+02  0.27260576121E+02 -0.11171380904E+02  0.31885996289E+02  0.00000000000E+00 0.  1.
         11    1    3    3    0    0 -0.33613218452E+01  0.83225260932E+01 -0.91194957594E+01  0.12795629265E+02  0.51100000000E-03 0. -1.
        -11    1    3    3    0    0 -0.13331422003E+02 -0.33871036515E+02  0.15039210431E+02  0.39384664247E+02  0.51100000000E-03 0.  1.
        -12    1    3    3    0    0  0.44952851950E+01 -0.17120656991E+01  0.52516662321E+01  0.71217101988E+01  0.00000000000E+00 0.  1.
</event>
<event>
 7    1  0.1096439E-011  0.5930194E+02  0.7816164E-02  0.1266605E+00
        -11   -1    0    0    0    0  0.00000000000E+00  0.00000000000E+00  0.45593999997E+02  0.45594000000E+02  0.51100000000E-03 0.  1.
         11   -1    0    0    0    0 -0.00000000000E+00 -0.00000000000E+00 -0.45593999997E+02  0.45594000000E+02  0.51100000000E-03 0. -1.
    9900012    2    1    2    0    0 -0.34082712906E+01 -0.31577327469E+02  0.28243593619E+01  0.59301938326E+02  0.49999989601E+02 0.  0.
        -12    1    1    2    0    0  0.34082712906E+01  0.31577327469E+02 -0.28243593619E+01  0.31886061674E+02  0.00000000000E+00 0.  1.
         11    1    3    3    0    0 -0.50320334868E+01 -0.37069785990E+01 -0.62791813068E+01  0.88595242249E+01  0.51100000000E-03 0. -1.
        -11    1    3    3    0    0 -0.64634396692E+01 -0.23703641485E+02  0.23117082783E+02  0.33734821604E+02  0.51100000000E-03 0.  1.
        -12    1    3    3    0    0  0.80872018653E+01 -0.41667073852E+01 -0.14013542115E+02  0.16707592497E+02  0.00000000000E+00 0.  1.
</event>
<event>
 7    1  0.1096439E-011  0.5930195E+02  0.7816164E-02  0.1266605E+00
        -11   -1    0    0    0    0  0.00000000000E+00  0.00000000000E+00  0.45593999997E+02  0.45594000000E+02  0.51100000000E-03 0.  1.
         11   -1    0    0    0    0 -0.00000000000E+00 -0.00000000000E+00 -0.45593999997E+02  0.45594000000E+02  0.51100000000E-03 0. -1.
    9900012    2    1    2    0    0  0.13341601981E+02 -0.14615031607E+02 -0.25002457479E+02  0.59301947057E+02  0.50000005525E+02 0.  0.
        -12    1    1    2    0    0 -0.13341601981E+02  0.14615031607E+02  0.25002457479E+02  0.31886052943E+02  0.00000000000E+00 0.  1.
         11    1    3    3    0    0  0.41148657394E+01  0.53850001927E+01  0.66891401387E+01  0.95223391656E+01  0.51100000000E-03 0.  1.
        -11    1    3    3    0    0  0.55676670532E+01 -0.21156043834E+02 -0.37146838825E+02  0.43109914661E+02  0.51100000000E-03 0. -1.
         12    1    3    3    0    0  0.36590691883E+01  0.11560120345E+01  0.54552412081E+01  0.66696932304E+01  0.00000000000E+00 0. -1.
</event>
<event>
 7    1  0.1096439E-011  0.5930195E+02  0.7816164E-02  0.1266605E+00
        -11   -1    0    0    0    0  0.00000000000E+00  0.00000000000E+00  0.45593999997E+02  0.45594000000E+02  0.51100000000E-03 0.  1.
         11   -1    0    0    0    0 -0.00000000000E+00 -0.00000000000E+00 -0.45593999997E+02  0.45594000000E+02  0.51100000000E-03 0. -1.
    9900012    2    1    2    0    0  0.21663384343E+02 -0.20107562503E+02 -0.11962605861E+02  0.59301949288E+02  0.50000009594E+02 0.  0.
        -12    1    1    2    0    0 -0.21663384343E+02  0.20107562503E+02  0.11962605861E+02  0.31886050712E+02  0.00000000000E+00 0.  1.
         11    1    3    3    0    0 -0.70272697433E+01  0.12322590035E+01  0.98349004758E+01  0.12150154317E+02  0.51100000000E-03 0.  1.
        -11    1    3    3    0    0  0.30108709112E+02 -0.12498340824E+02 -0.14872774412E+02  0.35832140694E+02  0.51100000000E-03 0. -1.
        -12    1    3    3    0    0 -0.14180550262E+01 -0.88414806827E+01 -0.69247319248E+01  0.11319654277E+02  0.00000000000E+00 0.  1.
</event>
<event>
 7    1  0.1096439E-011  0.5930192E+02  0.7816164E-02  0.1266605E+00
        -11   -1    0    0    0    0  0.00000000000E+00  0.00000000000E+00  0.45593999997E+02  0.45594000000E+02  0.51100000000E-03 0.  1.
         11   -1    0    0    0    0 -0.00000000000E+00 -0.00000000000E+00 -0.45593999997E+02  0.45594000000E+02  0.51100000000E-03 0. -1.
    9900012    2    1    2    0    0 -0.26123720392E+02  0.17409047397E+02 -0.55855335470E+01  0.59301923362E+02  0.49999962310E+02 0.  0.
        -12    1    1    2    0    0  0.26123720392E+02 -0.17409047397E+02  0.55855335470E+01  0.31886076638E+02  0.00000000000E+00 0.  1.
         11    1    3    3    0    0 -0.66268246557E+01  0.29294014816E+02 -0.94847105200E+01  0.31496251253E+02  0.51100000000E-03 0. -1.
        -11    1    3    3    0    0 -0.11396758526E+02 -0.67897071464E+01 -0.55289160716E+01  0.14372026344E+02  0.51100000000E-03 0.  1.
         12    1    3    3    0    0 -0.81001372099E+01 -0.50952602735E+01  0.94280930446E+01  0.13433645765E+02  0.00000000000E+00 0. -1.
</event>
<event>
 7    1  0.1096439E-011  0.5930196E+02  0.7816164E-02  0.1266605E+00
        -11   -1    0    0    0    0  0.00000000000E+00  0.00000000000E+00  0.45593999997E+02  0.45594000000E+02  0.51100000000E-03 0. -1.
         11   -1    0    0    0    0 -0.00000000000E+00 -0.00000000000E+00 -0.45593999997E+02  0.45594000000E+02  0.51100000000E-03 0.  1.
    9900012    2    1    2    0    0  0.10008186612E+02 -0.26614373650E+02 -0.14430199680E+02  0.59301963137E+02  0.50000034850E+02 0.  0.
        -12    1    1    2    0    0 -0.10008186612E+02  0.26614373650E+02  0.14430199680E+02  0.31886036863E+02  0.00000000000E+00 0.  1.
         11    1    3    3    0    0  0.59881336693E+00 -0.24697328904E+02 -0.22740506533E+02  0.33577481592E+02  0.51100000000E-03 0. -1.
        -11    1    3    3    0    0 -0.26100792669E+01 -0.58116565411E+01  0.11088110240E+02  0.12788043419E+02  0.51100000000E-03 0.  1.
         12    1    3    3    0    0  0.12019452512E+02  0.38946117949E+01 -0.27778033877E+01  0.12936438126E+02  0.00000000000E+00 0. -1.
</event>
<event>
 7    1  0.1096439E-011  0.5930176E+02  0.7816164E-02  0.1266605E+00
        -11   -1    0    0    0    0  0.00000000000E+00  0.00000000000E+00  0.45593999997E+02  0.45594000000E+02  0.51100000000E-03 0. -1.
         11   -1    0    0    0    0 -0.00000000000E+00 -0.00000000000E+00 -0.45593999997E+02  0.45594000000E+02  0.51100000000E-03 0.  1.
    9900012    2    1    2    0    0  0.18695669693E+02 -0.15264755691E+02  0.20837261573E+02  0.59301759999E+02  0.49999664374E+02 0.  0.
        -12    1    1    2    0    0 -0.18695669693E+02  0.15264755691E+02 -0.20837261573E+02  0.31886240001E+02  0.00000000000E+00 0.  1.
         11    1    3    3    0    0  0.35238393688E+02 -0.53841161604E+01  0.11322110678E+02  0.37402182918E+02  0.51100000000E-03 0. -1.
        -11    1    3    3    0    0 -0.46315791665E+01 -0.42908459052E+01  0.47681457859E+01  0.79118960215E+01  0.51100000000E-03 0.  1.
         12    1    3    3    0    0 -0.11911144829E+02 -0.55897936257E+01  0.47470051086E+01  0.13987681059E+02  0.00000000000E+00 0. -1.
</event>
<event>
 7    1  0.1096439E-011  0.5930192E+02  0.7816164E-02  0.1266605E+00
        -11   -1    0    0    0    0  0.00000000000E+00  0.00000000000E+00  0.45593999997E+02  0.45594000000E+02  0.51100000000E-03 0.  1.
         11   -1    0    0    0    0 -0.00000000000E+00 -0.00000000000E+00 -0.45593999997E+02  0.45594000000E+02  0.51100000000E-03 0. -1.
    9900012    2    1    2    0    0  0.16064544115E+02  0.25892831762E+02  0.93922237878E+01  0.59301918680E+02  0.49999953771E+02 0.  0.
        -12    1    1    2    0    0 -0.16064544115E+02 -0.25892831762E+02 -0.93922237878E+01  0.31886081320E+02  0.00000000000E+00 0.  1.
         11    1    3    3    0    0 -0.12261505216E+02  0.21823223665E+02  0.10170839597E+02  0.27019318638E+02  0.51100000000E-03 0. -1.
        -11    1    3    3    0    0  0.82874954066E+01 -0.54132910133E+01 -0.19235050804E+01  0.10083956156E+02  0.51100000000E-03 0.  1.
         12    1    3    3    0    0  0.20038553924E+02  0.94828991109E+01  0.11448892712E+01  0.22198643885E+02  0.00000000000E+00 0. -1.
</event>
<event>
 7    1  0.1096439E-011  0.5930197E+02  0.7816164E-02  0.1266605E+00
        -11   -1    0    0    0    0  0.00000000000E+00  0.00000000000E+00  0.45593999997E+02  0.45594000000E+02  0.51100000000E-03 0. -1.
         11   -1    0    0    0    0 -0.00000000000E+00 -0.00000000000E+00 -0.45593999997E+02  0.45594000000E+02  0.51100000000E-03 0.  1.
    9900012    2    1    2    0    0  0.26837294316E+02 -0.13492940575E+02  0.10696679439E+02  0.59301972299E+02  0.50000051560E+02 0.  0.
        -12    1    1    2    0    0 -0.26837294316E+02  0.13492940575E+02 -0.10696679439E+02  0.31886027701E+02  0.00000000000E+00 0.  1.
         11    1    3    3    0    0  0.17678124906E+02 -0.30257810136E+01 -0.18667301915E+02  0.25887054911E+02  0.51100000000E-03 0.  1.
        -11    1    3    3    0    0  0.34743629904E+01 -0.91191886432E+01  0.21565312797E+02  0.23670519978E+02  0.51100000000E-03 0. -1.
        -12    1    3    3    0    0  0.56848064192E+01 -0.13479709182E+01  0.77986685569E+01  0.97443974098E+01  0.00000000000E+00 0.  1.
</event>
<event>
 7    1  0.1096439E-011  0.5930196E+02  0.7816164E-02  0.1266605E+00
        -11   -1    0    0    0    0  0.00000000000E+00  0.00000000000E+00  0.45593999997E+02  0.45594000000E+02  0.51100000000E-03 0. -1.
         11   -1    0    0    0    0 -0.00000000000E+00 -0.00000000000E+00 -0.45593999997E+02  0.45594000000E+02  0.51100000000E-03 0.  1.
    9900012    2    1    2    0    0 -0.26523805467E+02  0.23095807720E+01  0.17546305548E+02  0.59301964527E+02  0.50000037386E+02 0.  0.
        -12    1    1    2    0    0  0.26523805467E+02 -0.23095807720E+01 -0.17546305548E+02  0.31886035473E+02  0.00000000000E+00 0.  1.
         11    1    3    3    0    0 -0.15166757087E+02  0.61912378971E+01  0.33471185580E+01  0.16720201857E+02  0.51100000000E-03 0. -1.
        -11    1    3    3    0    0  0.47893152849E+01 -0.12519170917E+02  0.19368742297E+02  0.23554518882E+02  0.51100000000E-03 0.  1.
        -12    1    3    3    0    0 -0.16146363664E+02  0.86375137921E+01 -0.51695553068E+01  0.19027243788E+02  0.00000000000E+00 0.  1.
</event>
<event>
 7    1  0.1096439E-011  0.5930192E+02  0.7816164E-02  0.1266605E+00
        -11   -1    0    0    0    0  0.00000000000E+00  0.00000000000E+00  0.45593999997E+02  0.45594000000E+02  0.51100000000E-03 0.  1.
         11   -1    0    0    0    0 -0.00000000000E+00 -0.00000000000E+00 -0.45593999997E+02  0.45594000000E+02  0.51100000000E-03 0. -1.
    9900012    2    1    2    0    0 -0.10461555527E+02 -0.10952275800E+02 -0.28059323595E+02  0.59301919497E+02  0.49999955262E+02 0.  0.
        -12    1    1    2    0    0  0.10461555527E+02  0.10952275800E+02  0.28059323595E+02  0.31886080503E+02  0.00000000000E+00 0.  1.
         11    1    3    3    0    0 -0.17148797609E+02 -0.14091401791E+01 -0.23507992926E+02  0.29132330273E+02  0.51100000000E-03 0. -1.
        -11    1    3    3    0    0  0.55246344122E+01 -0.19107760005E+02 -0.10499855904E+01  0.19918095988E+02  0.51100000000E-03 0.  1.
        -12    1    3    3    0    0  0.11626076700E+01  0.95646243843E+01 -0.35013450788E+01  0.10251493236E+02  0.00000000000E+00 0.  1.
</event>
<event>
 7    1  0.1096439E-011  0.5930195E+02  0.7816164E-02  0.1266605E+00
        -11   -1    0    0    0    0  0.00000000000E+00  0.00000000000E+00  0.45593999997E+02  0.45594000000E+02  0.51100000000E-03 0.  1.
         11   -1    0    0    0    0 -0.00000000000E+00 -0.00000000000E+00 -0.45593999997E+02  0.45594000000E+02  0.51100000000E-03 0. -1.
    9900012    2    1    2    0    0  0.31093939958E+02  0.65406137615E+01  0.26660010616E+01  0.59301948314E+02  0.50000007817E+02 0.  0.
        -12    1    1    2    0    0 -0.31093939958E+02 -0.65406137615E+01 -0.26660010616E+01  0.31886051686E+02  0.00000000000E+00 0.  1.
         11    1    3    3    0    0  0.31739670177E+02  0.69210198716E+01 -0.13554686910E+02  0.35199953360E+02  0.51100000000E-03 0. -1.
        -11    1    3    3    0    0 -0.18331301970E+01 -0.89341391874E+01  0.94024601948E+01  0.13099063605E+02  0.51100000000E-03 0.  1.
        -12    1    3    3    0    0  0.11873999776E+01  0.85537330773E+01  0.68182277772E+01  0.11002931350E+02  0.00000000000E+00 0.  1.
</event>
<event>
 7    1  0.1096439E-011  0.5930194E+02  0.7816164E-02  0.1266605E+00
        -11   -1    0    0    0    0  0.00000000000E+00  0.00000000000E+00  0.45593999997E+02  0.45594000000E+02  0.51100000000E-03 0.  1.
         11   -1    0    0    0    0 -0.00000000000E+00 -0.00000000000E+00 -0.45593999997E+02  0.45594000000E+02  0.51100000000E-03 0. -1.
    9900012    2    1    2    0    0  0.26233622699E+02  0.62945696656E+01  0.16996945022E+02  0.59301941804E+02  0.49999995945E+02 0.  0.
        -12    1    1    2    0    0 -0.26233622699E+02 -0.62945696656E+01 -0.16996945022E+02  0.31886058196E+02  0.00000000000E+00 0.  1.
         11    1    3    3    0    0  0.63404520826E+01  0.14006431628E+01 -0.17124756649E+02  0.18314486736E+02  0.51100000000E-03 0. -1.
        -11    1    3    3    0    0  0.34427281225E+01 -0.24903926915E+01  0.10047488910E+02  0.10909008495E+02  0.51100000000E-03 0.  1.
         12    1    3    3    0    0  0.16450442493E+02  0.73843191944E+01  0.24074212761E+02  0.30078446573E+02  0.00000000000E+00 0. -1.
</event>
<event>
 7    1  0.1096439E-011  0.5930194E+02  0.7816164E-02  0.1266605E+00
        -11   -1    0    0    0    0  0.00000000000E+00  0.00000000000E+00  0.45593999997E+02  0.45594000000E+02  0.51100000000E-03 0.  1.
         11   -1    0    0    0    0 -0.00000000000E+00 -0.00000000000E+00 -0.45593999997E+02  0.45594000000E+02  0.51100000000E-03 0. -1.
    9900012    2    1    2    0    0 -0.14031195488E+02  0.25054353881E+02 -0.13860943220E+02  0.59301939689E+02  0.49999992086E+02 0.  0.
        -12    1    1    2    0    0  0.14031195488E+02 -0.25054353881E+02  0.13860943220E+02  0.31886060311E+02  0.00000000000E+00 0.  1.
         11    1    3    3    0    0  0.13314399958E+02  0.20997452246E+02 -0.12343668422E+02  0.27758465329E+02  0.51100000000E-03 0. -1.
        -11    1    3    3    0    0 -0.14885001093E+02 -0.41678152507E+01  0.33949076806E+01  0.15825907238E+02  0.51100000000E-03 0.  1.
         12    1    3    3    0    0 -0.12460594354E+02  0.82247168865E+01 -0.49121824790E+01  0.15717567121E+02  0.00000000000E+00 0. -1.
</event>
<event>
 7    1  0.1096439E-011  0.5930199E+02  0.7816164E-02  0.1266605E+00
        -11   -1    0    0    0    0  0.00000000000E+00  0.00000000000E+00  0.45593999997E+02  0.45594000000E+02  0.51100000000E-03 0.  1.
         11   -1    0    0    0    0 -0.00000000000E+00 -0.00000000000E+00 -0.45593999997E+02  0.45594000000E+02  0.51100000000E-03 0. -1.
    9900012    2    1    2    0    0  0.12062322019E+02 -0.89402214549E+01 -0.28129885136E+02  0.59301990374E+02  0.50000084524E+02 0.  0.
        -12    1    1    2    0    0 -0.12062322019E+02  0.89402214549E+01  0.28129885136E+02  0.31886009626E+02  0.00000000000E+00 0.  1.
         11    1    3    3    0    0  0.84289281743E+01 -0.48882469545E+01 -0.38630170000E+01  0.10481635801E+02  0.51100000000E-03 0. -1.
        -11    1    3    3    0    0 -0.12855460936E+02 -0.87363822851E+01  0.37377250481E+01  0.15986176532E+02  0.51100000000E-03 0.  1.
        -12    1    3    3    0    0  0.16488854781E+02  0.46844077847E+01 -0.28004593184E+02  0.32834178041E+02  0.00000000000E+00 0.  1.
</event>
<event>
 7    1  0.1096439E-011  0.5930194E+02  0.7816164E-02  0.1266605E+00
        -11   -1    0    0    0    0  0.00000000000E+00  0.00000000000E+00  0.45593999997E+02  0.45594000000E+02  0.51100000000E-03 0.  1.
         11   -1    0    0    0    0 -0.00000000000E+00 -0.00000000000E+00 -0.45593999997E+02  0.45594000000E+02  0.51100000000E-03 0. -1.
    9900012    2    1    2    0    0  0.23393182048E+02 -0.29958148190E+01 -0.21459386443E+02  0.59301935030E+02  0.49999983590E+02 0.  0.
        -12    1    1    2    0    0 -0.23393182048E+02  0.29958148190E+01  0.21459386443E+02  0.31886064970E+02  0.00000000000E+00 0.  1.
         11    1    3    3    0    0  0.40801559121E+01  0.43290272450E+01  0.14157098204E+02  0.15356157689E+02  0.51100000000E-03 0. -1.
        -11    1    3    3    0    0  0.49292393127E+01 -0.83995881575E+01 -0.22218946976E+02  0.24259680261E+02  0.51100000000E-03 0.  1.
         12    1    3    3    0    0  0.14383786823E+02  0.10747460936E+01 -0.13397537672E+02  0.19686097079E+02  0.00000000000E+00 0. -1.
</event>
<event>
 7    1  0.1096439E-011  0.5930188E+02  0.7816164E-02  0.1266605E+00
        -11   -1    0    0    0    0  0.00000000000E+00  0.00000000000E+00  0.45593999997E+02  0.45594000000E+02  0.51100000000E-03 0.  1.
         11   -1    0    0    0    0 -0.00000000000E+00 -0.00000000000E+00 -0.45593999997E+02  0.45594000000E+02  0.51100000000E-03 0. -1.
    9900012    2    1    2    0    0  0.47326552413E+01  0.72978790932E+01  0.30676828494E+02  0.59301876508E+02  0.49999876860E+02 0.  0.
        -12    1    1    2    0    0 -0.47326552413E+01 -0.72978790932E+01 -0.30676828494E+02  0.31886123492E+02  0.00000000000E+00 0.  1.
         11    1    3    3    0    0 -0.39605702787E+01 -0.10919259865E+02  0.70344890284E+01  0.13579410484E+02  0.51100000000E-03 0. -1.
        -11    1    3    3    0    0  0.48359171098E+01  0.10509710971E+02 -0.72482777816E+01  0.13652019999E+02  0.51100000000E-03 0.  1.
        -12    1    3    3    0    0  0.38573084102E+01  0.77074279878E+01  0.30890617247E+02  0.32070446025E+02  0.00000000000E+00 0.  1.
</event>
<event>
 7    1  0.1096439E-011  0.5930195E+02  0.7816164E-02  0.1266605E+00
        -11   -1    0    0    0    0  0.00000000000E+00  0.00000000000E+00  0.45593999997E+02  0.45594000000E+02  0.51100000000E-03 0.  1.
         11   -1    0    0    0    0 -0.00000000000E+00 -0.00000000000E+00 -0.45593999997E+02  0.45594000000E+02  0.51100000000E-03 0. -1.
    9900012    2    1    2    0    0  0.26763573757E+02 -0.78997132600E+01 -0.15428095575E+02  0.59301945322E+02  0.50000002361E+02 0.  0.
        -12    1    1    2    0    0 -0.26763573757E+02  0.78997132600E+01  0.15428095575E+02  0.31886054678E+02  0.00000000000E+00 0.  1.
         11    1    3    3    0    0  0.17933606750E+01 -0.21916756688E+02 -0.30669415777E+01  0.22202848852E+02  0.51100000000E-03 0. -1.
        -11    1    3    3    0    0  0.18383629587E+01  0.57437823025E+01 -0.10938807726E+02  0.12491121977E+02  0.51100000000E-03 0.  1.
         12    1    3    3    0    0  0.23131850123E+02  0.82732611252E+01 -0.14223462707E+01  0.24607974494E+02  0.00000000000E+00 0. -1.
</event>
<event>
 7    1  0.1096439E-011  0.5930194E+02  0.7816164E-02  0.1266605E+00
        -11   -1    0    0    0    0  0.00000000000E+00  0.00000000000E+00  0.45593999997E+02  0.45594000000E+02  0.51100000000E-03 0. -1.
         11   -1    0    0    0    0 -0.00000000000E+00 -0.00000000000E+00 -0.45593999997E+02  0.45594000000E+02  0.51100000000E-03 0.  1.
    9900012    2    1    2    0    0  0.24596591256E+01 -0.29363990936E+02  0.12183059983E+02  0.59301939766E+02  0.49999992228E+02 0.  0.
        -12    1    1    2    0    0 -0.24596591256E+01  0.29363990936E+02 -0.12183059983E+02  0.31886060234E+02  0.00000000000E+00 0.  1.
         11    1    3    3    0    0  0.15529446652E+02  0.61336827985E+01  0.13684753988E+01  0.16752865521E+02  0.51100000000E-03 0. -1.
        -11    1    3    3    0    0  0.18598599977E+01 -0.18096482663E+02  0.39533423278E+01  0.18616408886E+02  0.51100000000E-03 0.  1.
         12    1    3    3    0    0 -0.14929647524E+02 -0.17401191071E+02  0.68612422566E+01  0.23932665359E+02  0.00000000000E+00 0. -1.
</event>
<event>
 7    1  0.1096439E-011  0.5930194E+02  0.7816164E-02  0.1266605E+00
        -11   -1    0    0    0    0  0.00000000000E+00  0.00000000000E+00  0.45593999997E+02  0.45594000000E+02  0.51100000000E-03 0. -1.
         11   -1    0    0    0    0 -0.00000000000E+00 -0.00000000000E+00 -0.45593999997E+02  0.45594000000E+02  0.51100000000E-03 0.  1.
    9900012    2    1    2    0    0 -0.14971594033E+02 -0.27439415640E+02  0.62968667110E+01  0.59301942092E+02  0.49999996470E+02 0.  0.
        -12    1    1    2    0    0  0.14971594033E+02  0.27439415640E+02 -0.62968667110E+01  0.31886057908E+02  0.00000000000E+00 0.  1.
         11    1    3    3    0    0  0.86862567783E+00 -0.10820989713E+02  0.14420076477E+02  0.18049568826E+02  0.51100000000E-03 0. -1.
        -11    1    3    3    0    0 -0.20108612859E+02  0.20460423208E+01  0.58007957366E+00  0.20220758959E+02  0.51100000000E-03 0.  1.
        -12    1    3    3    0    0  0.42683931486E+01 -0.18664468248E+02 -0.87032893396E+01  0.21031614307E+02  0.00000000000E+00 0.  1.
</event>
<event>
 7    1  0.1096439E-011  0.5930195E+02  0.7816164E-02  0.1266605E+00
        -11   -1    0    0    0    0  0.00000000000E+00  0.00000000000E+00  0.45593999997E+02  0.45594000000E+02  0.51100000000E-03 0. -1.
         11   -1    0    0    0    0 -0.00000000000E+00 -0.00000000000E+00 -0.45593999997E+02  0.45594000000E+02  0.51100000000E-03 0.  1.
    9900012    2    1    2    0    0  0.10312283098E+02 -0.20736146149E+02  0.21917785147E+02  0.59301949044E+02  0.50000009149E+02 0.  0.
        -12    1    1    2    0    0 -0.10312283098E+02  0.20736146149E+02 -0.21917785147E+02  0.31886050956E+02  0.00000000000E+00 0.  1.
         11    1    3    3    0    0  0.82969833996E+01  0.91828411089E+01 -0.95665003946E+01  0.15642328293E+02  0.51100000000E-03 0.  1.
        -11    1    3    3    0    0  0.24904925908E+01 -0.18618261830E+02  0.21733770395E+02  0.28726277217E+02  0.51100000000E-03 0. -1.
        -12    1    3    3    0    0 -0.47519289266E+00 -0.11300725429E+02  0.97505151463E+01  0.14933343534E+02  0.00000000000E+00 0.  1.
</event>
<event>
 7    1  0.1096439E-011  0.5930196E+02  0.7816164E-02  0.1266605E+00
        -11   -1    0    0    0    0  0.00000000000E+00  0.00000000000E+00  0.45593999997E+02  0.45594000000E+02  0.51100000000E-03 0. -1.
         11   -1    0    0    0    0 -0.00000000000E+00 -0.00000000000E+00 -0.45593999997E+02  0.45594000000E+02  0.51100000000E-03 0.  1.
    9900012    2    1    2    0    0 -0.21513321031E+02 -0.22322509688E+02 -0.74566785032E+01  0.59301961130E+02  0.50000031190E+02 0.  0.
        -12    1    1    2    0    0  0.21513321031E+02  0.22322509688E+02  0.74566785032E+01  0.31886038870E+02  0.00000000000E+00 0.  1.
         11    1    3    3    0    0 -0.99122596782E+01  0.96739028449E+01 -0.57149458789E+01  0.14983253813E+02  0.51100000000E-03 0. -1.
        -11    1    3    3    0    0 -0.17952245460E+01 -0.12564336575E+02 -0.14355729148E+02  0.19161741684E+02  0.51100000000E-03 0.  1.
         12    1    3    3    0    0 -0.98058368064E+01 -0.19432075958E+02  0.12613996524E+02  0.25156965632E+02  0.00000000000E+00 0. -1.
</event>
<event>
 7    1  0.1096439E-011  0.5930195E+02  0.7816164E-02  0.1266605E+00
        -11   -1    0    0    0    0  0.00000000000E+00  0.00000000000E+00  0.45593999997E+02  0.45594000000E+02  0.51100000000E-03 0.  1.
         11   -1    0    0    0    0 -0.00000000000E+00 -0.00000000000E+00 -0.45593999997E+02  0.45594000000E+02  0.51100000000E-03 0. -1.
    9900012    2    1    2    0    0  0.11839181170E+02 -0.20191908555E+02 -0.21652738439E+02  0.59301945622E+02  0.50000002908E+02 0.  0.
        -12    1    1    2    0    0 -0.11839181170E+02  0.20191908555E+02  0.21652738439E+02  0.31886054378E+02  0.00000000000E+00 0.  1.
         11    1    3    3    0    0  0.14469152608E+02 -0.13829249380E+02 -0.76418328217E+01  0.21424334873E+02  0.51100000000E-03 0. -1.
        -11    1    3    3    0    0 -0.13567665484E+02 -0.15483221656E+02 -0.55871318214E+01  0.21331379275E+02  0.51100000000E-03 0.  1.
        -12    1    3    3    0    0  0.10937694046E+02  0.91205624813E+01 -0.84237737964E+01  0.16546231474E+02  0.00000000000E+00 0.  1.
</event>
<event>
 7    1  0.1096439E-011  0.5930189E+02  0.7816164E-02  0.1266605E+00
        -11   -1    0    0    0    0  0.00000000000E+00  0.00000000000E+00  0.45593999997E+02  0.45594000000E+02  0.51100000000E-03 0. -1.
         11   -1    0    0    0    0 -0.00000000000E+00 -0.00000000000E+00 -0.45593999997E+02  0.45594000000E+02  0.51100000000E-03 0.  1.
    9900012    2    1    2    0    0  0.26684431561E+02  0.17301355590E+02  0.23083474956E+01  0.59301886077E+02  0.49999894312E+02 0.  0.
        -12    1    1    2    0    0 -0.26684431561E+02 -0.17301355590E+02 -0.23083474956E+01  0.31886113923E+02  0.00000000000E+00 0.  1.
         11    1    3    3    0    0  0.22386994957E+02  0.10145060648E+02  0.78465413457E+01  0.25800542826E+02  0.51100000000E-03 0. -1.
        -11    1    3    3    0    0 -0.18877911237E+01  0.19286953246E+02 -0.41095965810E+01  0.19810075849E+02  0.51100000000E-03 0.  1.
        -12    1    3    3    0    0  0.61852277269E+01 -0.12130658304E+02 -0.14285972691E+01  0.13691267402E+02  0.00000000000E+00 0.  1.
</event>
<event>
 7    1  0.1096439E-011  0.5930192E+02  0.7816164E-02  0.1266605E+00
        -11   -1    0    0    0    0  0.00000000000E+00  0.00000000000E+00  0.45593999997E+02  0.45594000000E+02  0.51100000000E-03 0.  1.
         11   -1    0    0    0    0 -0.00000000000E+00 -0.00000000000E+00 -0.45593999997E+02  0.45594000000E+02  0.51100000000E-03 0. -1.
    9900012    2    1    2    0    0 -0.66083517405E+01 -0.30965832720E+02 -0.37641709897E+01  0.59301920090E+02  0.49999956344E+02 0.  0.
        -12    1    1    2    0    0  0.66083517405E+01  0.30965832720E+02  0.37641709897E+01  0.31886079910E+02  0.00000000000E+00 0.  1.
         11    1    3    3    0    0 -0.36039494704E+01 -0.48580583033E+01  0.14558049119E+02  0.15764706680E+02  0.51100000000E-03 0.  1.
        -11    1    3    3    0    0 -0.55311485039E+01 -0.26200299866E+02 -0.24853143824E+02  0.36533930462E+02  0.51100000000E-03 0. -1.
         12    1    3    3    0    0  0.25267462338E+01  0.92525449469E-01  0.65309237148E+01  0.70032829485E+01  0.00000000000E+00 0. -1.
</event>
<event>
 7    1  0.1096439E-011  0.5930195E+02  0.7816164E-02  0.1266605E+00
        -11   -1    0    0    0    0  0.00000000000E+00  0.00000000000E+00  0.45593999997E+02  0.45594000000E+02  0.51100000000E-03 0.  1.
         11   -1    0    0    0    0 -0.00000000000E+00 -0.00000000000E+00 -0.45593999997E+02  0.45594000000E+02  0.51100000000E-03 0. -1.
    9900012    2    1    2    0    0 -0.16895882084E+02 -0.19391742200E+02 -0.18847005001E+02  0.59301951413E+02  0.50000013470E+02 0.  0.
        -12    1    1    2    0    0  0.16895882084E+02  0.19391742200E+02  0.18847005001E+02  0.31886048587E+02  0.00000000000E+00 0.  1.
         11    1    3    3    0    0 -0.57618595063E+01 -0.28913808487E+02 -0.28039550868E+02  0.40686899112E+02  0.51100000000E-03 0. -1.
        -11    1    3    3    0    0 -0.17834891959E+01  0.23752825010E+01  0.55506876409E+01  0.62954693407E+01  0.51100000000E-03 0.  1.
         12    1    3    3    0    0 -0.93505333816E+01  0.71467837855E+01  0.36418582257E+01  0.12319582961E+02  0.00000000000E+00 0. -1.
</event>
<event>
 7    1  0.1096439E-011  0.5930196E+02  0.7816164E-02  0.1266605E+00
        -11   -1    0    0    0    0  0.00000000000E+00  0.00000000000E+00  0.45593999997E+02  0.45594000000E+02  0.51100000000E-03 0. -1.
         11   -1    0    0    0    0 -0.00000000000E+00 -0.00000000000E+00 -0.45593999997E+02  0.45594000000E+02  0.51100000000E-03 0.  1.
    9900012    2    1    2    0    0 -0.18160412150E+02 -0.34304119748E+01  0.25983678614E+02  0.59301955246E+02  0.50000020459E+02 0.  0.
        -12    1    1    2    0    0  0.18160412150E+02  0.34304119748E+01 -0.25983678614E+02  0.31886044754E+02  0.00000000000E+00 0.  1.
         11    1    3    3    0    0 -0.10166604790E+02 -0.17909885186E+02  0.10395432430E+02  0.23069218800E+02  0.51100000000E-03 0. -1.
        -11    1    3    3    0    0  0.71623560735E+01  0.97109828712E+01  0.16356243167E+02  0.20325580525E+02  0.51100000000E-03 0.  1.
         12    1    3    3    0    0 -0.15156163433E+02  0.47684903405E+01 -0.76799698402E+00  0.15907155922E+02  0.00000000000E+00 0. -1.
</event>
<event>
 7    1  0.1096439E-011  0.5930200E+02  0.7816164E-02  0.1266605E+00
        -11   -1    0    0    0    0  0.00000000000E+00  0.00000000000E+00  0.45593999997E+02  0.45594000000E+02  0.51100000000E-03 0.  1.
         11   -1    0    0    0    0 -0.00000000000E+00 -0.00000000000E+00 -0.45593999997E+02  0.45594000000E+02  0.51100000000E-03 0. -1.
    9900012    2    1    2    0    0 -0.87151902985E+01 -0.16344013115E+02 -0.25954497103E+02  0.59301996385E+02  0.50000095487E+02 0.  0.
        -12    1    1    2    0    0  0.87151902985E+01  0.16344013115E+02  0.25954497103E+02  0.31886003615E+02  0.00000000000E+00 0.  1.
         11    1    3    3    0    0 -0.69934685572E+01 -0.11676729145E+02 -0.27592324508E+02  0.30766718675E+02  0.51100000000E-03 0. -1.
        -11    1    3    3    0    0 -0.13731374586E+02 -0.75814589532E+01  0.34071490427E+01  0.16051100671E+02  0.51100000000E-03 0.  1.
        -12    1    3    3    0    0  0.12009652845E+02  0.29141749829E+01 -0.17693216382E+01  0.12484177039E+02  0.00000000000E+00 0.  1.
</event>
<event>
 7    1  0.1096439E-011  0.5930194E+02  0.7816164E-02  0.1266605E+00
        -11   -1    0    0    0    0  0.00000000000E+00  0.00000000000E+00  0.45593999997E+02  0.45594000000E+02  0.51100000000E-03 0. -1.
         11   -1    0    0    0    0 -0.00000000000E+00 -0.00000000000E+00 -0.45593999997E+02  0.45594000000E+02  0.51100000000E-03 0.  1.
    9900012    2    1    2    0    0  0.18629159970E+01  0.31784103785E+02  0.17381410965E+01  0.59301939662E+02  0.49999992037E+02 0.  0.
        -12    1    1    2    0    0 -0.18629159970E+01 -0.31784103785E+02 -0.17381410965E+01  0.31886060338E+02  0.00000000000E+00 0.  1.
         11    1    3    3    0    0 -0.13893375172E+02  0.16457852259E+02 -0.14237094005E+02  0.25818242012E+02  0.51100000000E-03 0. -1.
        -11    1    3    3    0    0  0.17889071780E+02  0.12194321352E+02  0.18866865604E+02  0.28717224455E+02  0.51100000000E-03 0.  1.
        -12    1    3    3    0    0 -0.21327806116E+01  0.31319301743E+01 -0.28916305020E+01  0.47664731945E+01  0.00000000000E+00 0.  1.
</event>
<event>
 7    1  0.1096439E-011  0.5930192E+02  0.7816164E-02  0.1266605E+00
        -11   -1    0    0    0    0  0.00000000000E+00  0.00000000000E+00  0.45593999997E+02  0.45594000000E+02  0.51100000000E-03 0.  1.
         11   -1    0    0    0    0 -0.00000000000E+00 -0.00000000000E+00 -0.45593999997E+02  0.45594000000E+02  0.51100000000E-03 0. -1.
    9900012    2    1    2    0    0  0.12473955957E+02 -0.24671601998E+02 -0.15888181097E+02  0.59301924341E+02  0.49999964097E+02 0.  0.
        -12    1    1    2    0    0 -0.12473955957E+02  0.24671601998E+02  0.15888181097E+02  0.31886075659E+02  0.00000000000E+00 0.  1.
         11    1    3    3    0    0  0.12694831055E+02 -0.24588450932E+02 -0.11234997840E+02  0.29865964433E+02  0.51100000000E-03 0. -1.
        -11    1    3    3    0    0 -0.13534326742E+02 -0.54460511208E+01 -0.98794855777E+00  0.14622363550E+02  0.51100000000E-03 0.  1.
        -12    1    3    3    0    0  0.13313451644E+02  0.53629000558E+01 -0.36652346989E+01  0.14813596359E+02  0.00000000000E+00 0.  1.
</event>
<event>
 7    1  0.1096439E-011  0.5930193E+02  0.7816164E-02  0.1266605E+00
        -11   -1    0    0    0    0  0.00000000000E+00  0.00000000000E+00  0.45593999997E+02  0.45594000000E+02  0.51100000000E-03 0. -1.
         11   -1    0    0    0    0 -0.00000000000E+00 -0.00000000000E+00 -0.45593999997E+02  0.45594000000E+02  0.51100000000E-03 0.  1.
    9900012    2    1    2    0    0  0.21243445124E+02 -0.10053318174E+02  0.21549213113E+02  0.59301925409E+02  0.49999966044E+02 0.  0.
        -12    1    1    2    0    0 -0.21243445124E+02  0.10053318174E+02 -0.21549213113E+02  0.31886074591E+02  0.00000000000E+00 0.  1.
         11    1    3    3    0    0  0.94755749101E+01 -0.43710696967E+01  0.29628418987E+02  0.31412353973E+02  0.51100000000E-03 0. -1.
        -11    1    3    3    0    0  0.17339617937E+02 -0.94033242482E+01 -0.42690682101E+01  0.20181917668E+02  0.51100000000E-03 0.  1.
         12    1    3    3    0    0 -0.55717477234E+01  0.37210757708E+01 -0.38101376644E+01  0.77076537680E+01  0.00000000000E+00 0. -1.
</event>
<event>
 7    1  0.1096439E-011  0.5930199E+02  0.7816164E-02  0.1266605E+00
        -11   -1    0    0    0    0  0.00000000000E+00  0.00000000000E+00  0.45593999997E+02  0.45594000000E+02  0.51100000000E-03 0. -1.
         11   -1    0    0    0    0 -0.00000000000E+00 -0.00000000000E+00 -0.45593999997E+02  0.45594000000E+02  0.51100000000E-03 0.  1.
    9900012    2    1    2    0    0 -0.11717743618E+02 -0.22756908152E+02  0.19014075804E+02  0.59301992680E+02  0.50000088730E+02 0.  0.
        -12    1    1    2    0    0  0.11717743618E+02  0.22756908152E+02 -0.19014075804E+02  0.31886007320E+02  0.00000000000E+00 0.  1.
         11    1    3    3    0    0 -0.13601819530E+02  0.33234419900E-01 -0.23426502961E+01  0.13802123377E+02  0.51100000000E-03 0. -1.
        -11    1    3    3    0    0  0.10971359269E+02 -0.24358616309E+02  0.23993950273E+02  0.35908530500E+02  0.51100000000E-03 0.  1.
        -12    1    3    3    0    0 -0.90872833574E+01  0.15684737377E+01 -0.26372241730E+01  0.95913388024E+01  0.00000000000E+00 0.  1.
</event>
<event>
 7    1  0.1096439E-011  0.5930195E+02  0.7816164E-02  0.1266605E+00
        -11   -1    0    0    0    0  0.00000000000E+00  0.00000000000E+00  0.45593999997E+02  0.45594000000E+02  0.51100000000E-03 0.  1.
         11   -1    0    0    0    0 -0.00000000000E+00 -0.00000000000E+00 -0.45593999997E+02  0.45594000000E+02  0.51100000000E-03 0. -1.
    9900012    2    1    2    0    0  0.86705386296E+00 -0.20306602738E+02 -0.24568487397E+02  0.59301945522E+02  0.50000002726E+02 0.  0.
        -12    1    1    2    0    0 -0.86705386296E+00  0.20306602738E+02  0.24568487397E+02  0.31886054478E+02  0.00000000000E+00 0.  1.
         11    1    3    3    0    0  0.44724422318E+01  0.75018295233E+01 -0.20161912899E+02  0.21972321628E+02  0.51100000000E-03 0. -1.
        -11    1    3    3    0    0  0.95215576713E+01 -0.99573423023E+01 -0.61821187913E+01  0.15100573473E+02  0.51100000000E-03 0.  1.
         12    1    3    3    0    0 -0.13126946040E+02 -0.17851089959E+02  0.17755442937E+01  0.22229050421E+02  0.00000000000E+00 0. -1.
</event>
<event>
 7    1  0.1096439E-011  0.5930191E+02  0.7816164E-02  0.1266605E+00
        -11   -1    0    0    0    0  0.00000000000E+00  0.00000000000E+00  0.45593999997E+02  0.45594000000E+02  0.51100000000E-03 0.  1.
         11   -1    0    0    0    0 -0.00000000000E+00 -0.00000000000E+00 -0.45593999997E+02  0.45594000000E+02  0.51100000000E-03 0. -1.
    9900012    2    1    2    0    0  0.28216471675E+02  0.14707706743E+02 -0.20584240399E+01  0.59301905523E+02  0.49999929777E+02 0.  0.
        -12    1    1    2    0    0 -0.28216471675E+02 -0.14707706743E+02  0.20584240399E+01  0.31886094477E+02  0.00000000000E+00 0.  1.
         11    1    3    3    0    0  0.10163634557E+02  0.14458648442E+02 -0.17026315574E+02  0.24540729502E+02  0.51100000000E-03 0. -1.
        -11    1    3    3    0    0  0.64065237372E+01 -0.11963485360E+02  0.10889835603E+02  0.17399915174E+02  0.51100000000E-03 0.  1.
        -12    1    3    3    0    0  0.11646313381E+02  0.12212543661E+02  0.40780559312E+01  0.17361260848E+02  0.00000000000E+00 0.  1.
</event>
<event>
 7    1  0.1096439E-011  0.5930194E+02  0.7816164E-02  0.1266605E+00
        -11   -1    0    0    0    0  0.00000000000E+00  0.00000000000E+00  0.45593999997E+02  0.45594000000E+02  0.51100000000E-03 0.  1.
         11   -1    0    0    0    0 -0.00000000000E+00 -0.00000000000E+00 -0.45593999997E+02  0.45594000000E+02  0.51100000000E-03 0. -1.
    9900012    2    1    2    0    0  0.23765510346E+02 -0.20680775921E+02 -0.49220806598E+01  0.59301939523E+02  0.49999991785E+02 0.  0.
        -12    1    1    2    0    0 -0.23765510346E+02  0.20680775921E+02  0.49220806598E+01  0.31886060477E+02  0.00000000000E+00 0.  1.
         11    1    3    3    0    0 -0.34466837687E+01 -0.19653863734E+02  0.27509310851E+01  0.20142532382E+02  0.51100000000E-03 0. -1.
        -11    1    3    3    0    0  0.27619803670E+02 -0.25214188192E+01 -0.15095729986E+02  0.31576766327E+02  0.51100000000E-03 0.  1.
        -12    1    3    3    0    0 -0.40760955496E+00  0.14945066325E+01  0.74227182412E+01  0.75826408139E+01  0.00000000000E+00 0.  1.
</event>
<event>
 7    1  0.1096439E-011  0.5930192E+02  0.7816164E-02  0.1266605E+00
        -11   -1    0    0    0    0  0.00000000000E+00  0.00000000000E+00  0.45593999997E+02  0.45594000000E+02  0.51100000000E-03 0.  1.
         11   -1    0    0    0    0 -0.00000000000E+00 -0.00000000000E+00 -0.45593999997E+02  0.45594000000E+02  0.51100000000E-03 0. -1.
    9900012    2    1    2    0    0 -0.14031538735E+02 -0.22680940649E+02 -0.17476071012E+02  0.59301918303E+02  0.49999953084E+02 0.  0.
        -12    1    1    2    0    0  0.14031538735E+02  0.22680940649E+02  0.17476071012E+02  0.31886081697E+02  0.00000000000E+00 0.  1.
         11    1    3    3    0    0 -0.22227746671E+02  0.17283972758E+01 -0.23923555547E+02  0.32701629768E+02  0.51100000000E-03 0. -1.
        -11    1    3    3    0    0  0.29153670966E+01 -0.11301841832E+02  0.26842886160E+01  0.11976493633E+02  0.51100000000E-03 0.  1.
         12    1    3    3    0    0  0.52808408394E+01 -0.13107496092E+02  0.37631959193E+01  0.14623794901E+02  0.00000000000E+00 0. -1.
</event>
<event>
 7    1  0.1096439E-011  0.5930191E+02  0.7816164E-02  0.1266605E+00
        -11   -1    0    0    0    0  0.00000000000E+00  0.00000000000E+00  0.45593999997E+02  0.45594000000E+02  0.51100000000E-03 0.  1.
         11   -1    0    0    0    0 -0.00000000000E+00 -0.00000000000E+00 -0.45593999997E+02  0.45594000000E+02  0.51100000000E-03 0. -1.
    9900012    2    1    2    0    0  0.28518837705E+02  0.14187665620E+02 -0.14521918862E+01  0.59301908659E+02  0.49999935495E+02 0.  0.
        -12    1    1    2    0    0 -0.28518837705E+02 -0.14187665620E+02  0.14521918862E+01  0.31886091341E+02  0.00000000000E+00 0.  1.
         11    1    3    3    0    0  0.78062285274E+01 -0.12964551737E+00 -0.78042398867E+01  0.11039029498E+02  0.51100000000E-03 0. -1.
        -11    1    3    3    0    0 -0.62079513687E+01 -0.92988700043E+01 -0.23149766999E+01  0.11417826454E+02  0.51100000000E-03 0.  1.
        -12    1    3    3    0    0  0.26920560546E+02  0.23616181141E+02  0.86670247005E+01  0.36845052707E+02  0.00000000000E+00 0.  1.
</event>
<event>
 7    1  0.1096439E-011  0.5930194E+02  0.7816164E-02  0.1266605E+00
        -11   -1    0    0    0    0  0.00000000000E+00  0.00000000000E+00  0.45593999997E+02  0.45594000000E+02  0.51100000000E-03 0.  1.
         11   -1    0    0    0    0 -0.00000000000E+00 -0.00000000000E+00 -0.45593999997E+02  0.45594000000E+02  0.51100000000E-03 0. -1.
    9900012    2    1    2    0    0 -0.10967745631E+02 -0.20129464259E+02 -0.22163807135E+02  0.59301935296E+02  0.49999984075E+02 0.  0.
        -12    1    1    2    0    0  0.10967745631E+02  0.20129464259E+02  0.22163807135E+02  0.31886064704E+02  0.00000000000E+00 0.  1.
         11    1    3    3    0    0 -0.25815544742E+01  0.71882031746E+01 -0.18087370036E+02  0.19633839244E+02  0.51100000000E-03 0. -1.
        -11    1    3    3    0    0 -0.17840071698E+02 -0.19664222534E+02  0.80136452736E+00  0.26562981599E+02  0.51100000000E-03 0.  1.
        -12    1    3    3    0    0  0.94538805411E+01 -0.76534448997E+01 -0.48778016261E+01  0.13105114453E+02  0.00000000000E+00 0.  1.
</event>
<event>
 7    1  0.1096439E-011  0.5930197E+02  0.7816164E-02  0.1266605E+00
        -11   -1    0    0    0    0  0.00000000000E+00  0.00000000000E+00  0.45593999997E+02  0.45594000000E+02  0.51100000000E-03 0.  1.
         11   -1    0    0    0    0 -0.00000000000E+00 -0.00000000000E+00 -0.45593999997E+02  0.45594000000E+02  0.51100000000E-03 0. -1.
    9900012    2    1    2    0    0 -0.31819429264E+02 -0.13339045867E+01  0.15694903039E+01  0.59301973595E+02  0.50000053923E+02 0.  0.
        -12    1    1    2    0    0  0.31819429264E+02  0.13339045867E+01 -0.15694903039E+01  0.31886026405E+02  0.00000000000E+00 0.  1.
         11    1    3    3    0    0 -0.16573881292E+02  0.14507533203E+02 -0.85013341655E+01  0.23610055984E+02  0.51100000000E-03 0. -1.
        -11    1    3    3    0    0  0.64428448414E+01 -0.86504492140E+01  0.64213922369E+01  0.12552880139E+02  0.51100000000E-03 0.  1.
        -12    1    3    3    0    0 -0.21688392814E+02 -0.71909885754E+01  0.36494322325E+01  0.23139037472E+02  0.00000000000E+00 0.  1.
</event>
<event>
 7    1  0.1096439E-011  0.5930194E+02  0.7816164E-02  0.1266605E+00
        -11   -1    0    0    0    0  0.00000000000E+00  0.00000000000E+00  0.45593999997E+02  0.45594000000E+02  0.51100000000E-03 0. -1.
         11   -1    0    0    0    0 -0.00000000000E+00 -0.00000000000E+00 -0.45593999997E+02  0.45594000000E+02  0.51100000000E-03 0.  1.
    9900012    2    1    2    0    0  0.29086362481E+02 -0.10882282637E+02  0.72305298024E+01  0.59301935348E+02  0.49999984170E+02 0.  0.
        -12    1    1    2    0    0 -0.29086362481E+02  0.10882282637E+02 -0.72305298024E+01  0.31886064652E+02  0.00000000000E+00 0.  1.
         11    1    3    3    0    0  0.23472879428E+02  0.82444290766E+01  0.10519215249E+02  0.27011119361E+02  0.51100000000E-03 0. -1.
        -11    1    3    3    0    0  0.74372079394E+01 -0.15512737214E+02 -0.13135211433E+02  0.21644649627E+02  0.51100000000E-03 0.  1.
         12    1    3    3    0    0 -0.18237248865E+01 -0.36139745001E+01  0.98465259870E+01  0.10646166360E+02  0.00000000000E+00 0. -1.
</event>
<event>
 7    1  0.1096439E-011  0.5930194E+02  0.7816164E-02  0.1266605E+00
        -11   -1    0    0    0    0  0.00000000000E+00  0.00000000000E+00  0.45593999997E+02  0.45594000000E+02  0.51100000000E-03 0. -1.
         11   -1    0    0    0    0 -0.00000000000E+00 -0.00000000000E+00 -0.45593999997E+02  0.45594000000E+02  0.51100000000E-03 0.  1.
    9900012    2    1    2    0    0  0.51140636797E+01 -0.82314999357E+01  0.30377776861E+02  0.59301944027E+02  0.49999999998E+02 0.  0.
        -12    1    1    2    0    0 -0.51140636797E+01  0.82314999357E+01 -0.30377776861E+02  0.31886055973E+02  0.00000000000E+00 0.  1.
         11    1    3    3    0    0  0.20198656708E+01 -0.23391808876E+02  0.62436450606E+01  0.24294848913E+02  0.51100000000E-03 0. -1.
        -11    1    3    3    0    0  0.90001934672E+01  0.16243711535E+02  0.21611455169E+02  0.28494151008E+02  0.51100000000E-03 0.  1.
         12    1    3    3    0    0 -0.59059954583E+01 -0.10834025945E+01  0.25226766319E+01  0.65129441058E+01  0.00000000000E+00 0. -1.
</event>
<event>
 7    1  0.1096439E-011  0.5930199E+02  0.7816164E-02  0.1266605E+00
        -11   -1    0    0    0    0  0.00000000000E+00  0.00000000000E+00  0.45593999997E+02  0.45594000000E+02  0.51100000000E-03 0.  1.
         11   -1    0    0    0    0 -0.00000000000E+00 -0.00000000000E+00 -0.45593999997E+02  0.45594000000E+02  0.51100000000E-03 0. -1.
    9900012    2    1    2    0    0  0.13414134936E+02  0.41067450111E+01 -0.28634129893E+02  0.59301987935E+02  0.50000080076E+02 0.  0.
        -12    1    1    2    0    0 -0.13414134936E+02 -0.41067450111E+01  0.28634129893E+02  0.31886012065E+02  0.00000000000E+00 0.  1.
         11    1    3    3    0    0 -0.12537487610E+02 -0.21460252266E+01 -0.61958802057E+01  0.14148602462E+02  0.51100000000E-03 0. -1.
        -11    1    3    3    0    0  0.10957873797E+02  0.12519919591E+02 -0.23583974834E+02  0.28862211522E+02  0.51100000000E-03 0.  1.
        -12    1    3    3    0    0  0.14993748749E+02 -0.62671493537E+01  0.11457251462E+01  0.16291173951E+02  0.00000000000E+00 0.  1.
</event>
<event>
 7    1  0.1096439E-011  0.5930194E+02  0.7816164E-02  0.1266605E+00
        -11   -1    0    0    0    0  0.00000000000E+00  0.00000000000E+00  0.45593999997E+02  0.45594000000E+02  0.51100000000E-03 0. -1.
         11   -1    0    0    0    0 -0.00000000000E+00 -0.00000000000E+00 -0.45593999997E+02  0.45594000000E+02  0.51100000000E-03 0.  1.
    9900012    2    1    2    0    0 -0.36083572060E+00 -0.10476195100E+02  0.30113785138E+02  0.59301938445E+02  0.49999989818E+02 0.  0.
        -12    1    1    2    0    0  0.36083572060E+00  0.10476195100E+02 -0.30113785138E+02  0.31886061555E+02  0.00000000000E+00 0.  1.
         11    1    3    3    0    0  0.23099257154E+01 -0.11225186344E+02  0.29896300015E+02  0.32017640764E+02  0.51100000000E-03 0. -1.
        -11    1    3    3    0    0 -0.12663895847E+02  0.52033708829E+01  0.59550010407E+01  0.14930216483E+02  0.51100000000E-03 0.  1.
        -12    1    3    3    0    0  0.99931344110E+01 -0.44543796397E+01 -0.57375159179E+01  0.12354081198E+02  0.00000000000E+00 0.  1.
</event>
<event>
 7    1  0.1096439E-011  0.5930195E+02  0.7816164E-02  0.1266605E+00
        -11   -1    0    0    0    0  0.00000000000E+00  0.00000000000E+00  0.45593999997E+02  0.45594000000E+02  0.51100000000E-03 0.  1.
         11   -1    0    0    0    0 -0.00000000000E+00 -0.00000000000E+00 -0.45593999997E+02  0.45594000000E+02  0.51100000000E-03 0. -1.
    9900012    2    1    2    0    0 -0.13326890655E+00  0.25632030472E+02 -0.18965799887E+02  0.59301948002E+02  0.50000007248E+02 0.  0.
        -12    1    1    2    0    0  0.13326890655E+00 -0.25632030472E+02  0.18965799887E+02  0.31886051998E+02  0.00000000000E+00 0.  1.
         11    1    3    3    0    0  0.65045687487E+01 -0.49353330140E+01 -0.32043024287E+01  0.87712302946E+01  0.51100000000E-03 0. -1.
        -11    1    3    3    0    0 -0.51566582189E+01  0.17905722744E+02  0.10464325521E+02  0.21370730915E+02  0.51100000000E-03 0.  1.
         12    1    3    3    0    0 -0.14811794363E+01  0.12661640741E+02 -0.26225822979E+02  0.29159986792E+02  0.00000000000E+00 0. -1.
</event>
<event>
 7    1  0.1096439E-011  0.5930193E+02  0.7816164E-02  0.1266605E+00
        -11   -1    0    0    0    0  0.00000000000E+00  0.00000000000E+00  0.45593999997E+02  0.45594000000E+02  0.51100000000E-03 0. -1.
         11   -1    0    0    0    0 -0.00000000000E+00 -0.00000000000E+00 -0.45593999997E+02  0.45594000000E+02  0.51100000000E-03 0.  1.
    9900012    2    1    2    0    0 -0.16411680866E+02 -0.16293468052E+02 -0.21952244612E+02  0.59301930730E+02  0.49999975748E+02 0.  0.
        -12    1    1    2    0    0  0.16411680866E+02  0.16293468052E+02  0.21952244612E+02  0.31886069270E+02  0.00000000000E+00 0.  1.
         11    1    3    3    0    0  0.11742308545E+02 -0.94184672078E+01 -0.19531512197E+02  0.24659061285E+02  0.51100000000E-03 0. -1.
        -11    1    3    3    0    0 -0.15058774579E+02 -0.86597713944E+01 -0.93420841388E+01  0.19723916162E+02  0.51100000000E-03 0.  1.
         12    1    3    3    0    0 -0.13095214831E+02  0.17847705498E+01  0.69213517241E+01  0.14918953283E+02  0.00000000000E+00 0. -1.
</event>
<event>
 7    1  0.1096439E-011  0.5930196E+02  0.7816164E-02  0.1266605E+00
        -11   -1    0    0    0    0  0.00000000000E+00  0.00000000000E+00  0.45593999997E+02  0.45594000000E+02  0.51100000000E-03 0.  1.
         11   -1    0    0    0    0 -0.00000000000E+00 -0.00000000000E+00 -0.45593999997E+02  0.45594000000E+02  0.51100000000E-03 0. -1.
    9900012    2    1    2    0    0  0.19045072344E+02 -0.25419703720E+02 -0.28006117480E+01  0.59301960046E+02  0.50000029213E+02 0.  0.
        -12    1    1    2    0    0 -0.19045072344E+02  0.25419703720E+02  0.28006117480E+01  0.31886039954E+02  0.00000000000E+00 0.  1.
         11    1    3    3    0    0 -0.33187426738E+01 -0.21893487614E+02 -0.19461240461E+01  0.22228950761E+02  0.51100000000E-03 0. -1.
        -11    1    3    3    0    0  0.42978236465E+01  0.23020224847E+01 -0.13440045457E+02  0.14297042274E+02  0.51100000000E-03 0.  1.
        -12    1    3    3    0    0  0.18065991371E+02 -0.58282385908E+01  0.12585557755E+02  0.22775967011E+02  0.00000000000E+00 0.  1.
</event>
<event>
 7    1  0.1096439E-011  0.5930195E+02  0.7816164E-02  0.1266605E+00
        -11   -1    0    0    0    0  0.00000000000E+00  0.00000000000E+00  0.45593999997E+02  0.45594000000E+02  0.51100000000E-03 0.  1.
         11   -1    0    0    0    0 -0.00000000000E+00 -0.00000000000E+00 -0.45593999997E+02  0.45594000000E+02  0.51100000000E-03 0. -1.
    9900012    2    1    2    0    0  0.15921780239E+02 -0.22352722437E+02 -0.16234931773E+02  0.59301948253E+02  0.50000007706E+02 0.  0.
        -12    1    1    2    0    0 -0.15921780239E+02  0.22352722437E+02  0.16234931773E+02  0.31886051747E+02  0.00000000000E+00 0.  1.
         11    1    3    3    0    0  0.82601218369E+01 -0.80907881589E+01 -0.11110112022E+02  0.16035119432E+02  0.51100000000E-03 0. -1.
        -11    1    3    3    0    0 -0.11412745891E+02 -0.13972460038E+02  0.83815057049E+01  0.19892964747E+02  0.51100000000E-03 0.  1.
        -12    1    3    3    0    0  0.19074404292E+02 -0.28947424095E+00 -0.13506325456E+02  0.23373864075E+02  0.00000000000E+00 0.  1.
</event>
<event>
 7    1  0.1096439E-011  0.5930191E+02  0.7816164E-02  0.1266605E+00
        -11   -1    0    0    0    0  0.00000000000E+00  0.00000000000E+00  0.45593999997E+02  0.45594000000E+02  0.51100000000E-03 0. -1.
         11   -1    0    0    0    0 -0.00000000000E+00 -0.00000000000E+00 -0.45593999997E+02  0.45594000000E+02  0.51100000000E-03 0.  1.
    9900012    2    1    2    0    0 -0.30466775839E+02 -0.85736611201E+01  0.38717530091E+01  0.59301912651E+02  0.49999942777E+02 0.  0.
        -12    1    1    2    0    0  0.30466775839E+02  0.85736611201E+01 -0.38717530091E+01  0.31886087349E+02  0.00000000000E+00 0.  1.
         11    1    3    3    0    0 -0.28200500535E+02 -0.23980395565E+01  0.57760308259E+01  0.28885660050E+02  0.51100000000E-03 0. -1.
        -11    1    3    3    0    0  0.84590113814E+01  0.86000255499E+01 -0.14798269619E+01  0.12153402861E+02  0.51100000000E-03 0.  1.
        -12    1    3    3    0    0 -0.10725286686E+02 -0.14775647113E+02 -0.42445085485E+00  0.18262849740E+02  0.00000000000E+00 0.  1.
</event>
<event>
 7    1  0.1096439E-011  0.5930189E+02  0.7816164E-02  0.1266605E+00
        -11   -1    0    0    0    0  0.00000000000E+00  0.00000000000E+00  0.45593999997E+02  0.45594000000E+02  0.51100000000E-03 0.  1.
         11   -1    0    0    0    0 -0.00000000000E+00 -0.00000000000E+00 -0.45593999997E+02  0.45594000000E+02  0.51100000000E-03 0. -1.
    9900012    2    1    2    0    0 -0.18357535521E+02  0.13489663262E+02 -0.22310402973E+02  0.59301886939E+02  0.49999895884E+02 0.  0.
        -12    1    1    2    0    0  0.18357535521E+02 -0.13489663262E+02  0.22310402973E+02  0.31886113061E+02  0.00000000000E+00 0.  1.
         11    1    3    3    0    0 -0.43801660198E+01 -0.85744702438E+01  0.81939142846E+01  0.12643086090E+02  0.51100000000E-03 0. -1.
        -11    1    3    3    0    0 -0.14981564237E+02  0.22932706588E+02 -0.15259269078E+02  0.31356045533E+02  0.51100000000E-03 0.  1.
         12    1    3    3    0    0  0.10041947353E+01 -0.86857308142E+00 -0.15245048179E+02  0.15302755316E+02  0.00000000000E+00 0. -1.
</event>
<event>
 7    1  0.1096439E-011  0.5930195E+02  0.7816164E-02  0.1266605E+00
        -11   -1    0    0    0    0  0.00000000000E+00  0.00000000000E+00  0.45593999997E+02  0.45594000000E+02  0.51100000000E-03 0.  1.
         11   -1    0    0    0    0 -0.00000000000E+00 -0.00000000000E+00 -0.45593999997E+02  0.45594000000E+02  0.51100000000E-03 0. -1.
    9900012    2    1    2    0    0  0.14353823599E+02  0.22556064189E+02  0.17375607057E+02  0.59301952829E+02  0.50000016052E+02 0.  0.
        -12    1    1    2    0    0 -0.14353823599E+02 -0.22556064189E+02 -0.17375607057E+02  0.31886047171E+02  0.00000000000E+00 0.  1.
         11    1    3    3    0    0  0.11288388693E+02  0.18092570224E+02  0.34113843761E+01  0.21596443231E+02  0.51100000000E-03 0. -1.
        -11    1    3    3    0    0 -0.75214078337E+01 -0.25206640615E+01 -0.86753924802E+01  0.11755328922E+02  0.51100000000E-03 0.  1.
        -12    1    3    3    0    0  0.10586842740E+02  0.69841580264E+01  0.22639615161E+02  0.25950180677E+02  0.00000000000E+00 0.  1.
</event>
<event>
 7    1  0.1096439E-011  0.5930195E+02  0.7816164E-02  0.1266605E+00
        -11   -1    0    0    0    0  0.00000000000E+00  0.00000000000E+00  0.45593999997E+02  0.45594000000E+02  0.51100000000E-03 0.  1.
         11   -1    0    0    0    0 -0.00000000000E+00 -0.00000000000E+00 -0.45593999997E+02  0.45594000000E+02  0.51100000000E-03 0. -1.
    9900012    2    1    2    0    0  0.30586554036E+01  0.47010221516E+01 -0.31388933350E+02  0.59301951029E+02  0.50000012769E+02 0.  0.
        -12    1    1    2    0    0 -0.30586554036E+01 -0.47010221516E+01  0.31388933350E+02  0.31886048971E+02  0.00000000000E+00 0.  1.
         11    1    3    3    0    0  0.21099305447E+01 -0.13927453607E+02 -0.22135250077E+02  0.26237283913E+02  0.51100000000E-03 0. -1.
        -11    1    3    3    0    0  0.51920757382E+01  0.24182001545E+02 -0.67111563599E+01  0.25627455378E+02  0.51100000000E-03 0.  1.
        -12    1    3    3    0    0 -0.42433508793E+01 -0.55535257863E+01 -0.25425269127E+01  0.74372117386E+01  0.00000000000E+00 0.  1.
</event>
<event>
 7    1  0.1096439E-011  0.5930190E+02  0.7816164E-02  0.1266605E+00
        -11   -1    0    0    0    0  0.00000000000E+00  0.00000000000E+00  0.45593999997E+02  0.45594000000E+02  0.51100000000E-03 0.  1.
         11   -1    0    0    0    0 -0.00000000000E+00 -0.00000000000E+00 -0.45593999997E+02  0.45594000000E+02  0.51100000000E-03 0. -1.
    9900012    2    1    2    0    0  0.23657466392E+02  0.21333148489E+02 -0.13944481654E+01  0.59301899168E+02  0.49999918187E+02 0.  0.
        -12    1    1    2    0    0 -0.23657466392E+02 -0.21333148489E+02  0.13944481654E+01  0.31886100832E+02  0.00000000000E+00 0.  1.
         11    1    3    3    0    0  0.13431421939E+02 -0.94172606742E+01  0.86509347126E+01  0.18545257225E+02  0.51100000000E-03 0.  1.
        -11    1    3    3    0    0  0.12493823341E+02  0.20955601499E+02  0.26740816115E+01  0.24543503592E+02  0.51100000000E-03 0. -1.
         12    1    3    3    0    0 -0.22677788880E+01  0.97948076648E+01 -0.12719464489E+02  0.16213138350E+02  0.00000000000E+00 0. -1.
</event>
<event>
 7    1  0.1096439E-011  0.5930195E+02  0.7816164E-02  0.1266605E+00
        -11   -1    0    0    0    0  0.00000000000E+00  0.00000000000E+00  0.45593999997E+02  0.45594000000E+02  0.51100000000E-03 0.  1.
         11   -1    0    0    0    0 -0.00000000000E+00 -0.00000000000E+00 -0.45593999997E+02  0.45594000000E+02  0.51100000000E-03 0. -1.
    9900012    2    1    2    0    0  0.25334407606E+02  0.10260933795E+02  0.16419537407E+02  0.59301950077E+02  0.50000011032E+02 0.  0.
        -12    1    1    2    0    0 -0.25334407606E+02 -0.10260933795E+02 -0.16419537407E+02  0.31886049923E+02  0.00000000000E+00 0.  1.
         11    1    3    3    0    0  0.43371621542E+01 -0.15713414316E+02 -0.62278739387E+01  0.17450179915E+02  0.51100000000E-03 0. -1.
        -11    1    3    3    0    0  0.44962725014E+01  0.10956653838E+02  0.32350224942E+01  0.12277218762E+02  0.51100000000E-03 0.  1.
         12    1    3    3    0    0  0.16500972950E+02  0.15017694272E+02  0.19412388851E+02  0.29574551399E+02  0.00000000000E+00 0. -1.
</event>
<event>
 7    1  0.1096439E-011  0.5930192E+02  0.7816164E-02  0.1266605E+00
        -11   -1    0    0    0    0  0.00000000000E+00  0.00000000000E+00  0.45593999997E+02  0.45594000000E+02  0.51100000000E-03 0. -1.
         11   -1    0    0    0    0 -0.00000000000E+00 -0.00000000000E+00 -0.45593999997E+02  0.45594000000E+02  0.51100000000E-03 0.  1.
    9900012    2    1    2    0    0  0.27360151958E+01 -0.25448775006E+02  0.19015675618E+02  0.59301923922E+02  0.49999963331E+02 0.  0.
        -12    1    1    2    0    0 -0.27360151958E+01  0.25448775006E+02 -0.19015675618E+02  0.31886076078E+02  0.00000000000E+00 0.  1.
         11    1    3    3    0    0  0.15587694822E+01 -0.19216124424E+02  0.52404131140E+01  0.19978766980E+02  0.51100000000E-03 0. -1.
        -11    1    3    3    0    0 -0.46577961693E+01  0.13444203411E+02 -0.64028704065E+00  0.14242599421E+02  0.51100000000E-03 0.  1.
        -12    1    3    3    0    0  0.58350418829E+01 -0.19676853994E+02  0.14415549545E+02  0.25080557521E+02  0.00000000000E+00 0.  1.
</event>
<event>
 7    1  0.1096439E-011  0.5930200E+02  0.7816164E-02  0.1266605E+00
        -11   -1    0    0    0    0  0.00000000000E+00  0.00000000000E+00  0.45593999997E+02  0.45594000000E+02  0.51100000000E-03 0. -1.
         11   -1    0    0    0    0 -0.00000000000E+00 -0.00000000000E+00 -0.45593999997E+02  0.45594000000E+02  0.51100000000E-03 0.  1.
    9900012    2    1    2    0    0 -0.20786583595E+02 -0.23603231497E+02  0.52461715228E+01  0.59302001344E+02  0.50000104530E+02 0.  0.
        -12    1    1    2    0    0  0.20786583595E+02  0.23603231497E+02 -0.52461715228E+01  0.31885998656E+02  0.00000000000E+00 0.  1.
         11    1    3    3    0    0 -0.20684591423E+02 -0.32868337895E+02  0.12389579560E+02  0.40763729469E+02  0.51100000000E-03 0. -1.
        -11    1    3    3    0    0  0.69582516585E+01  0.29190679781E+01 -0.23473868187E+01  0.79024331152E+01  0.51100000000E-03 0.  1.
         12    1    3    3    0    0 -0.70602438308E+01  0.63460384196E+01 -0.47960212188E+01  0.10635838759E+02  0.00000000000E+00 0. -1.
</event>
<event>
 7    1  0.1096439E-011  0.5930198E+02  0.7816164E-02  0.1266605E+00
        -11   -1    0    0    0    0  0.00000000000E+00  0.00000000000E+00  0.45593999997E+02  0.45594000000E+02  0.51100000000E-03 0.  1.
         11   -1    0    0    0    0 -0.00000000000E+00 -0.00000000000E+00 -0.45593999997E+02  0.45594000000E+02  0.51100000000E-03 0. -1.
    9900012    2    1    2    0    0  0.19110227634E+02 -0.25228653453E+02  0.38771626809E+01  0.59301981971E+02  0.50000069200E+02 0.  0.
        -12    1    1    2    0    0 -0.19110227634E+02  0.25228653453E+02 -0.38771626809E+01  0.31886018029E+02  0.00000000000E+00 0.  1.
         11    1    3    3    0    0  0.32040865975E+01 -0.32029960451E+02 -0.25288644193E+01  0.32289002662E+02  0.51100000000E-03 0.  1.
        -11    1    3    3    0    0  0.14873025493E+02  0.11429983915E+02 -0.34709107117E+00  0.18760913946E+02  0.51100000000E-03 0. -1.
        -12    1    3    3    0    0  0.10331155433E+01 -0.46286769164E+01  0.67531181714E+01  0.82520653632E+01  0.00000000000E+00 0.  1.
</event>
<event>
 7    1  0.1096439E-011  0.5930189E+02  0.7816164E-02  0.1266605E+00
        -11   -1    0    0    0    0  0.00000000000E+00  0.00000000000E+00  0.45593999997E+02  0.45594000000E+02  0.51100000000E-03 0.  1.
         11   -1    0    0    0    0 -0.00000000000E+00 -0.00000000000E+00 -0.45593999997E+02  0.45594000000E+02  0.51100000000E-03 0. -1.
    9900012    2    1    2    0    0 -0.46859083437E+01  0.12891420004E+01 -0.31513562204E+02  0.59301886614E+02  0.49999895291E+02 0.  0.
        -12    1    1    2    0    0  0.46859083437E+01 -0.12891420004E+01  0.31513562204E+02  0.31886113386E+02  0.00000000000E+00 0.  1.
         11    1    3    3    0    0  0.33109228671E+00 -0.85483206348E+01 -0.29108627334E+01  0.90364002729E+01  0.51100000000E-03 0. -1.
        -11    1    3    3    0    0  0.42349321402E+01  0.60472858040E+01 -0.36677901633E+02  0.37413537447E+02  0.51100000000E-03 0.  1.
        -12    1    3    3    0    0 -0.92519327706E+01  0.37901768312E+01  0.80752021626E+01  0.12851948894E+02  0.00000000000E+00 0.  1.
</event>
<event>
 7    1  0.1096439E-011  0.5930194E+02  0.7816164E-02  0.1266605E+00
        -11   -1    0    0    0    0  0.00000000000E+00  0.00000000000E+00  0.45593999997E+02  0.45594000000E+02  0.51100000000E-03 0.  1.
         11   -1    0    0    0    0 -0.00000000000E+00 -0.00000000000E+00 -0.45593999997E+02  0.45594000000E+02  0.51100000000E-03 0. -1.
    9900012    2    1    2    0    0 -0.83114297097E+01 -0.88727724325E+01 -0.29477364436E+02  0.59301937707E+02  0.49999988473E+02 0.  0.
        -12    1    1    2    0    0  0.83114297097E+01  0.88727724325E+01  0.29477364436E+02  0.31886062293E+02  0.00000000000E+00 0.  1.
         11    1    3    3    0    0 -0.47026491806E+01 -0.64618671274E+01 -0.29286621686E+02  0.30357484186E+02  0.51100000000E-03 0. -1.
        -11    1    3    3    0    0  0.77610132326E+00  0.10914148511E+02  0.71906391400E+01  0.13092985240E+02  0.51100000000E-03 0.  1.
        -12    1    3    3    0    0 -0.43848818524E+01 -0.13325053816E+02 -0.73813818900E+01  0.15851468281E+02  0.00000000000E+00 0.  1.
</event>
<event>
 7    1  0.1096439E-011  0.5930157E+02  0.7816164E-02  0.1266606E+00
        -11   -1    0    0    0    0  0.00000000000E+00  0.00000000000E+00  0.45593999997E+02  0.45594000000E+02  0.51100000000E-03 0.  1.
         11   -1    0    0    0    0 -0.00000000000E+00 -0.00000000000E+00 -0.45593999997E+02  0.45594000000E+02  0.51100000000E-03 0. -1.
    9900012    2    1    2    0    0 -0.15673146893E+02  0.20042426004E+02 -0.19219738185E+02  0.59301565430E+02  0.49999309525E+02 0.  0.
        -12    1    1    2    0    0  0.15673146893E+02 -0.20042426004E+02  0.19219738185E+02  0.31886434570E+02  0.00000000000E+00 0.  1.
         11    1    3    3    0    0 -0.21101645747E+02  0.19431937496E+02 -0.85875386960E+01  0.29943705001E+02  0.51100000000E-03 0.  1.
        -11    1    3    3    0    0  0.53437730487E+01 -0.12641621566E+02 -0.78689658844E+01  0.15820465561E+02  0.51100000000E-03 0. -1.
        -12    1    3    3    0    0  0.84725805011E-01  0.13252110074E+02 -0.27632336044E+01  0.13537394869E+02  0.00000000000E+00 0.  1.
</event>
<event>
 7    1  0.1096439E-011  0.5930191E+02  0.7816164E-02  0.1266605E+00
        -11   -1    0    0    0    0  0.00000000000E+00  0.00000000000E+00  0.45593999997E+02  0.45594000000E+02  0.51100000000E-03 0.  1.
         11   -1    0    0    0    0 -0.00000000000E+00 -0.00000000000E+00 -0.45593999997E+02  0.45594000000E+02  0.51100000000E-03 0. -1.
    9900012    2    1    2    0    0 -0.33041338008E+01 -0.30093408022E+02 -0.10009610506E+02  0.59301908847E+02  0.49999935839E+02 0.  0.
        -12    1    1    2    0    0  0.33041338008E+01  0.30093408022E+02  0.10009610506E+02  0.31886091153E+02  0.00000000000E+00 0.  1.
         11    1    3    3    0    0  0.13688825074E+01  0.72109595703E-01  0.12414825530E+02  0.12490273508E+02  0.51100000000E-03 0. -1.
        -11    1    3    3    0    0  0.23084578200E+01 -0.32610602615E+02 -0.13898308127E+02  0.35523841986E+02  0.51100000000E-03 0.  1.
         12    1    3    3    0    0 -0.69814741282E+01  0.24450849978E+01 -0.85261279090E+01  0.11287793353E+02  0.00000000000E+00 0. -1.
</event>
<event>
 7    1  0.1096439E-011  0.5930196E+02  0.7816164E-02  0.1266605E+00
        -11   -1    0    0    0    0  0.00000000000E+00  0.00000000000E+00  0.45593999997E+02  0.45594000000E+02  0.51100000000E-03 0. -1.
         11   -1    0    0    0    0 -0.00000000000E+00 -0.00000000000E+00 -0.45593999997E+02  0.45594000000E+02  0.51100000000E-03 0.  1.
    9900012    2    1    2    0    0  0.17462436997E+02 -0.19687340454E+02  0.18005319749E+02  0.59301958865E+02  0.50000027059E+02 0.  0.
        -12    1    1    2    0    0 -0.17462436997E+02  0.19687340454E+02 -0.18005319749E+02  0.31886041135E+02  0.00000000000E+00 0.  1.
         11    1    3    3    0    0  0.24136608417E+02 -0.58585960838E+01  0.21072930545E+02  0.32572494776E+02  0.51100000000E-03 0. -1.
        -11    1    3    3    0    0  0.15759198334E+01 -0.17047759536E+02 -0.46331937374E+01  0.17736293665E+02  0.51100000000E-03 0.  1.
        -12    1    3    3    0    0 -0.82500912530E+01  0.32190151659E+01  0.15655829412E+01  0.89931704235E+01  0.00000000000E+00 0.  1.
</event>
<event>
 7    1  0.1096439E-011  0.5930193E+02  0.7816164E-02  0.1266605E+00
        -11   -1    0    0    0    0  0.00000000000E+00  0.00000000000E+00  0.45593999997E+02  0.45594000000E+02  0.51100000000E-03 0. -1.
         11   -1    0    0    0    0 -0.00000000000E+00 -0.00000000000E+00 -0.45593999997E+02  0.45594000000E+02  0.51100000000E-03 0.  1.
    9900012    2    1    2    0    0  0.18159386328E+02  0.18804172472E+02  0.18258179337E+02  0.59301932088E+02  0.49999978225E+02 0.  0.
        -12    1    1    2    0    0 -0.18159386328E+02 -0.18804172472E+02 -0.18258179337E+02  0.31886067912E+02  0.00000000000E+00 0.  1.
         11    1    3    3    0    0  0.12217772693E+02  0.14422678828E+02  0.24379036682E+02  0.30848420770E+02  0.51100000000E-03 0. -1.
        -11    1    3    3    0    0  0.17125043809E+01  0.11348975378E+02 -0.13317209883E+02  0.17580670997E+02  0.51100000000E-03 0.  1.
        -12    1    3    3    0    0  0.42291092533E+01 -0.69674817344E+01  0.71963525384E+01  0.10872840321E+02  0.00000000000E+00 0.  1.
</event>
<event>
 7    1  0.1096439E-011  0.5930195E+02  0.7816164E-02  0.1266605E+00
        -11   -1    0    0    0    0  0.00000000000E+00  0.00000000000E+00  0.45593999997E+02  0.45594000000E+02  0.51100000000E-03 0. -1.
         11   -1    0    0    0    0 -0.00000000000E+00 -0.00000000000E+00 -0.45593999997E+02  0.45594000000E+02  0.51100000000E-03 0.  1.
    9900012    2    1    2    0    0 -0.17618512619E+02  0.23763372829E+02  0.11900023986E+02  0.59301945901E+02  0.50000003417E+02 0.  0.
        -12    1    1    2    0    0  0.17618512619E+02 -0.23763372829E+02 -0.11900023986E+02  0.31886054099E+02  0.00000000000E+00 0.  1.
         11    1    3    3    0    0 -0.22088076516E+01  0.90261477971E+01  0.14647879733E+02  0.17346773654E+02  0.51100000000E-03 0. -1.
        -11    1    3    3    0    0 -0.17423435005E+02  0.24861276250E+02 -0.63621602514E+01  0.31018320836E+02  0.51100000000E-03 0.  1.
        -12    1    3    3    0    0  0.20137300376E+01 -0.10124051218E+02  0.36143045044E+01  0.10936851411E+02  0.00000000000E+00 0.  1.
</event>
<event>
 7    1  0.1096439E-011  0.5930195E+02  0.7816164E-02  0.1266605E+00
        -11   -1    0    0    0    0  0.00000000000E+00  0.00000000000E+00  0.45593999997E+02  0.45594000000E+02  0.51100000000E-03 0. -1.
         11   -1    0    0    0    0 -0.00000000000E+00 -0.00000000000E+00 -0.45593999997E+02  0.45594000000E+02  0.51100000000E-03 0.  1.
    9900012    2    1    2    0    0  0.10794427353E+02  0.28833016145E+02  0.82980615609E+01  0.59301948072E+02  0.50000007376E+02 0.  0.
        -12    1    1    2    0    0 -0.10794427353E+02 -0.28833016145E+02 -0.82980615609E+01  0.31886051928E+02  0.00000000000E+00 0.  1.
         11    1    3    3    0    0 -0.14272283961E+02  0.16211984229E+02  0.29821433065E+01  0.21804121194E+02  0.51100000000E-03 0. -1.
        -11    1    3    3    0    0  0.11741480228E+02  0.10334459194E+02 -0.88037148457E+01  0.17949061260E+02  0.51100000000E-03 0.  1.
         12    1    3    3    0    0  0.13325231085E+02  0.22865727217E+01  0.14119633100E+02  0.19548765617E+02  0.00000000000E+00 0. -1.
</event>
<event>
 7    1  0.1096439E-011  0.5930195E+02  0.7816164E-02  0.1266605E+00
        -11   -1    0    0    0    0  0.00000000000E+00  0.00000000000E+00  0.45593999997E+02  0.45594000000E+02  0.51100000000E-03 0. -1.
         11   -1    0    0    0    0 -0.00000000000E+00 -0.00000000000E+00 -0.45593999997E+02  0.45594000000E+02  0.51100000000E-03 0.  1.
    9900012    2    1    2    0    0  0.15935537560E+02 -0.24017159148E+02  0.13636533868E+02  0.59301947457E+02  0.50000006254E+02 0.  0.
        -12    1    1    2    0    0 -0.15935537560E+02  0.24017159148E+02 -0.13636533868E+02  0.31886052543E+02  0.00000000000E+00 0.  1.
         11    1    3    3    0    0  0.14869714347E+01 -0.12879319236E+02 -0.13902494007E+02  0.19009663014E+02  0.51100000000E-03 0. -1.
        -11    1    3    3    0    0  0.20207190080E+02 -0.12095314336E+02  0.21407359565E+02  0.31826124546E+02  0.51100000000E-03 0.  1.
        -12    1    3    3    0    0 -0.57586239553E+01  0.95747442360E+00  0.61316683098E+01  0.84661598964E+01  0.00000000000E+00 0.  1.
</event>
<event>
 7    1  0.1096439E-011  0.5930211E+02  0.7816164E-02  0.1266604E+00
        -11   -1    0    0    0    0  0.00000000000E+00  0.00000000000E+00  0.45593999997E+02  0.45594000000E+02  0.51100000000E-03 0. -1.
         11   -1    0    0    0    0 -0.00000000000E+00 -0.00000000000E+00 -0.45593999997E+02  0.45594000000E+02  0.51100000000E-03 0.  1.
    9900012    2    1    2    0    0  0.65689999087E+01  0.27897357334E+02  0.13974814327E+02  0.59302113757E+02  0.50000309544E+02 0.  0.
        -12    1    1    2    0    0 -0.65689999087E+01 -0.27897357334E+02 -0.13974814327E+02  0.31885886243E+02  0.00000000000E+00 0.  1.
         11    1    3    3    0    0 -0.51144400427E+00  0.27848002778E+02  0.12317468442E+02  0.30454767489E+02  0.51100000000E-03 0. -1.
        -11    1    3    3    0    0  0.11267426728E+02  0.22542881984E+01 -0.10646580398E+02  0.15664813908E+02  0.51100000000E-03 0.  1.
        -12    1    3    3    0    0 -0.41869828151E+01 -0.22049336424E+01  0.12303926282E+02  0.13182532360E+02  0.00000000000E+00 0.  1.
</event>
<event>
 7    1  0.1096439E-011  0.5930195E+02  0.7816164E-02  0.1266605E+00
        -11   -1    0    0    0    0  0.00000000000E+00  0.00000000000E+00  0.45593999997E+02  0.45594000000E+02  0.51100000000E-03 0. -1.
         11   -1    0    0    0    0 -0.00000000000E+00 -0.00000000000E+00 -0.45593999997E+02  0.45594000000E+02  0.51100000000E-03 0.  1.
    9900012    2    1    2    0    0  0.98346420054E+01 -0.21439628376E+02  0.21455592408E+02  0.59301948287E+02  0.50000007768E+02 0.  0.
        -12    1    1    2    0    0 -0.98346420054E+01  0.21439628376E+02 -0.21455592408E+02  0.31886051713E+02  0.00000000000E+00 0.  1.
         11    1    3    3    0    0  0.12908311126E+02 -0.23373286843E+02  0.26100618883E+02  0.37338684234E+02  0.51100000000E-03 0. -1.
        -11    1    3    3    0    0 -0.79117058382E+01  0.90203606496E+01  0.40790751516E+00  0.12005348155E+02  0.51100000000E-03 0.  1.
         12    1    3    3    0    0  0.48380367179E+01 -0.70867021826E+01 -0.50529339909E+01  0.99579158977E+01  0.00000000000E+00 0. -1.
</event>
<event>
 7    1  0.1096439E-011  0.5930194E+02  0.7816164E-02  0.1266605E+00
        -11   -1    0    0    0    0  0.00000000000E+00  0.00000000000E+00  0.45593999997E+02  0.45594000000E+02  0.51100000000E-03 0. -1.
         11   -1    0    0    0    0 -0.00000000000E+00 -0.00000000000E+00 -0.45593999997E+02  0.45594000000E+02  0.51100000000E-03 0.  1.
    9900012    2    1    2    0    0  0.64571047381E+01 -0.28594818737E+02 -0.12544436304E+02  0.59301941253E+02  0.49999994940E+02 0.  0.
        -12    1    1    2    0    0 -0.64571047381E+01  0.28594818737E+02  0.12544436304E+02  0.31886058747E+02  0.00000000000E+00 0.  1.
         11    1    3    3    0    0  0.43552841431E+01  0.10388721046E+02  0.65656562911E+01  0.13038476434E+02  0.51100000000E-03 0. -1.
        -11    1    3    3    0    0 -0.32422074144E+01 -0.35387026548E+02 -0.17564012550E+02  0.39638971908E+02  0.51100000000E-03 0.  1.
         12    1    3    3    0    0  0.53440280094E+01 -0.35965132352E+01 -0.15460800447E+01  0.66244929104E+01  0.00000000000E+00 0. -1.
</event>
<event>
 7    1  0.1096439E-011  0.5930198E+02  0.7816164E-02  0.1266605E+00
        -11   -1    0    0    0    0  0.00000000000E+00  0.00000000000E+00  0.45593999997E+02  0.45594000000E+02  0.51100000000E-03 0.  1.
         11   -1    0    0    0    0 -0.00000000000E+00 -0.00000000000E+00 -0.45593999997E+02  0.45594000000E+02  0.51100000000E-03 0. -1.
    9900012    2    1    2    0    0  0.31285692471E+02 -0.60357005309E+01 -0.12223886328E+01  0.59301976913E+02  0.50000059976E+02 0.  0.
        -12    1    1    2    0    0 -0.31285692471E+02  0.60357005309E+01  0.12223886328E+01  0.31886023087E+02  0.00000000000E+00 0.  1.
         11    1    3    3    0    0  0.12400030558E+02 -0.17750432959E+02  0.58745644531E+01  0.22435443741E+02  0.51100000000E-03 0. -1.
        -11    1    3    3    0    0  0.44999684492E+01  0.16359713005E+02 -0.12214765770E+02  0.20906707745E+02  0.51100000000E-03 0.  1.
         12    1    3    3    0    0  0.14385693464E+02 -0.46449805771E+01  0.51178126838E+01  0.15959825427E+02  0.00000000000E+00 0. -1.
</event>
<event>
 7    1  0.1096439E-011  0.5930197E+02  0.7816164E-02  0.1266605E+00
        -11   -1    0    0    0    0  0.00000000000E+00  0.00000000000E+00  0.45593999997E+02  0.45594000000E+02  0.51100000000E-03 0.  1.
         11   -1    0    0    0    0 -0.00000000000E+00 -0.00000000000E+00 -0.45593999997E+02  0.45594000000E+02  0.51100000000E-03 0. -1.
    9900012    2    1    2    0    0  0.18256981614E+02  0.21097292086E+02  0.15437163520E+02  0.59301966560E+02  0.50000041093E+02 0.  0.
        -12    1    1    2    0    0 -0.18256981614E+02 -0.21097292086E+02 -0.15437163520E+02  0.31886033440E+02  0.00000000000E+00 0.  1.
         11    1    3    3    0    0  0.16569219902E+02  0.19786769116E+02 -0.93010341988E+01  0.27432909391E+02  0.51100000000E-03 0. -1.
        -11    1    3    3    0    0  0.57967319175E+01 -0.74301130262E+01  0.72457756748E+01  0.11887385999E+02  0.51100000000E-03 0.  1.
         12    1    3    3    0    0 -0.41089702053E+01  0.87406359960E+01  0.17492422044E+02  0.19981671170E+02  0.00000000000E+00 0. -1.
</event>
<event>
 7    1  0.1119690E-011  0.5930194E+02  0.7816164E-02  0.1266605E+00
        -11   -1    0    0    0    0  0.00000000000E+00  0.00000000000E+00  0.45593999997E+02  0.45594000000E+02  0.51100000000E-03 0. -1.
         11   -1    0    0    0    0 -0.00000000000E+00 -0.00000000000E+00 -0.45593999997E+02  0.45594000000E+02  0.51100000000E-03 0.  1.
    9900012    2    1    2    0    0  0.80446204326E+01 -0.55852851244E+01  0.30344840237E+02  0.59301942595E+02  0.49999997388E+02 0.  0.
        -12    1    1    2    0    0 -0.80446204326E+01  0.55852851244E+01 -0.30344840237E+02  0.31886057405E+02  0.00000000000E+00 0.  1.
         11    1    3    3    0    0  0.12516167122E+02  0.13202757169E+01  0.28294981757E+02  0.30967782618E+02  0.51100000000E-03 0. -1.
        -11    1    3    3    0    0  0.56113419194E+01 -0.11232829259E+02 -0.67621005158E+01  0.14261473098E+02  0.51100000000E-03 0.  1.
        -12    1    3    3    0    0 -0.10082888609E+02  0.43272684172E+01  0.88119589959E+01  0.14072686879E+02  0.00000000000E+00 0.  1.
</event>
<event>
 7    1  0.1096439E-011  0.5930192E+02  0.7816164E-02  0.1266605E+00
        -11   -1    0    0    0    0  0.00000000000E+00  0.00000000000E+00  0.45593999997E+02  0.45594000000E+02  0.51100000000E-03 0.  1.
         11   -1    0    0    0    0 -0.00000000000E+00 -0.00000000000E+00 -0.45593999997E+02  0.45594000000E+02  0.51100000000E-03 0. -1.
    9900012    2    1    2    0    0 -0.10578142601E+02  0.11752938767E+02 -0.27689224106E+02  0.59301924636E+02  0.49999964634E+02 0.  0.
        -12    1    1    2    0    0  0.10578142601E+02 -0.11752938767E+02  0.27689224106E+02  0.31886075364E+02  0.00000000000E+00 0.  1.
         11    1    3    3    0    0 -0.68631272706E+01 -0.17443491983E+02 -0.12689373644E+02  0.22636212851E+02  0.51100000000E-03 0. -1.
        -11    1    3    3    0    0  0.60198674859E+01  0.14131854617E+02 -0.51384205279E+01  0.16197267833E+02  0.51100000000E-03 0.  1.
        -12    1    3    3    0    0 -0.97348828159E+01  0.15064576132E+02 -0.98614299343E+01  0.20468443952E+02  0.00000000000E+00 0.  1.
</event>
<event>
 7    1  0.1096439E-011  0.5930195E+02  0.7816164E-02  0.1266605E+00
        -11   -1    0    0    0    0  0.00000000000E+00  0.00000000000E+00  0.45593999997E+02  0.45594000000E+02  0.51100000000E-03 0. -1.
         11   -1    0    0    0    0 -0.00000000000E+00 -0.00000000000E+00 -0.45593999997E+02  0.45594000000E+02  0.51100000000E-03 0.  1.
    9900012    2    1    2    0    0 -0.24817140914E+02  0.13805024717E+02  0.14500028268E+02  0.59301952732E+02  0.50000015875E+02 0.  0.
        -12    1    1    2    0    0  0.24817140914E+02 -0.13805024717E+02 -0.14500028268E+02  0.31886047268E+02  0.00000000000E+00 0.  1.
         11    1    3    3    0    0  0.12756025853E+02  0.34224283468E+01  0.32218575553E+01  0.13594468645E+02  0.51100000000E-03 0. -1.
        -11    1    3    3    0    0 -0.36068099895E+02  0.25403085947E+01  0.10670072647E+02  0.37698958187E+02  0.51100000000E-03 0.  1.
        -12    1    3    3    0    0 -0.15050668730E+01  0.78422877757E+01  0.60809806497E+00  0.80085259009E+01  0.00000000000E+00 0.  1.
</event>
<event>
 7    1  0.1096439E-011  0.5930195E+02  0.7816164E-02  0.1266605E+00
        -11   -1    0    0    0    0  0.00000000000E+00  0.00000000000E+00  0.45593999997E+02  0.45594000000E+02  0.51100000000E-03 0.  1.
         11   -1    0    0    0    0 -0.00000000000E+00 -0.00000000000E+00 -0.45593999997E+02  0.45594000000E+02  0.51100000000E-03 0. -1.
    9900012    2    1    2    0    0 -0.43643804399E+01 -0.30562530679E+02 -0.79752068385E+01  0.59301952546E+02  0.50000015535E+02 0.  0.
        -12    1    1    2    0    0  0.43643804399E+01  0.30562530679E+02  0.79752068385E+01  0.31886047454E+02  0.00000000000E+00 0.  1.
         11    1    3    3    0    0 -0.20977137259E+01 -0.11850502827E+02 -0.69677707660E+01  0.13906280949E+02  0.51100000000E-03 0. -1.
        -11    1    3    3    0    0  0.18244191747E+02 -0.49075428725E+01  0.57802821272E+01  0.19757180246E+02  0.51100000000E-03 0.  1.
        -12    1    3    3    0    0 -0.20510858461E+02 -0.13804484979E+02 -0.67877181997E+01  0.25638491350E+02  0.00000000000E+00 0.  1.
</event>
<event>
 7    1  0.1096439E-011  0.5930191E+02  0.7816164E-02  0.1266605E+00
        -11   -1    0    0    0    0  0.00000000000E+00  0.00000000000E+00  0.45593999997E+02  0.45594000000E+02  0.51100000000E-03 0. -1.
         11   -1    0    0    0    0 -0.00000000000E+00 -0.00000000000E+00 -0.45593999997E+02  0.45594000000E+02  0.51100000000E-03 0.  1.
    9900012    2    1    2    0    0 -0.10892143435E+02  0.12884872907E+02  0.27056675975E+02  0.59301914426E+02  0.49999946013E+02 0.  0.
        -12    1    1    2    0    0  0.10892143435E+02 -0.12884872907E+02 -0.27056675975E+02  0.31886085574E+02  0.00000000000E+00 0.  1.
         11    1    3    3    0    0  0.36122911697E+01  0.13975231882E+02  0.28112147737E+02  0.31601401935E+02  0.51100000000E-03 0. -1.
        -11    1    3    3    0    0 -0.14626390245E+02  0.90006035807E+01  0.16485635439E+01  0.17252823491E+02  0.51100000000E-03 0.  1.
         12    1    3    3    0    0  0.12195563969E+00 -0.10090962556E+02 -0.27040353055E+01  0.10447688999E+02  0.00000000000E+00 0. -1.
</event>
<event>
 7    1  0.1096439E-011  0.5930194E+02  0.7816164E-02  0.1266605E+00
        -11   -1    0    0    0    0  0.00000000000E+00  0.00000000000E+00  0.45593999997E+02  0.45594000000E+02  0.51100000000E-03 0. -1.
         11   -1    0    0    0    0 -0.00000000000E+00 -0.00000000000E+00 -0.45593999997E+02  0.45594000000E+02  0.51100000000E-03 0.  1.
    9900012    2    1    2    0    0 -0.19151131045E+02 -0.19112380844E+01  0.25422473483E+02  0.59301940204E+02  0.49999993027E+02 0.  0.
        -12    1    1    2    0    0  0.19151131045E+02  0.19112380844E+01 -0.25422473483E+02  0.31886059796E+02  0.00000000000E+00 0.  1.
         11    1    3    3    0    0  0.15052822478E+01 -0.16709367008E+02  0.14208511694E+02  0.21985236530E+02  0.51100000000E-03 0. -1.
        -11    1    3    3    0    0 -0.23520610323E+02  0.78501367751E+01  0.12381903527E+01  0.24826938453E+02  0.51100000000E-03 0.  1.
        -12    1    3    3    0    0  0.28641970301E+01  0.69479921487E+01  0.99757714361E+01  0.12489765221E+02  0.00000000000E+00 0.  1.
</event>
<event>
 7    1  0.1096439E-011  0.5930194E+02  0.7816164E-02  0.1266605E+00
        -11   -1    0    0    0    0  0.00000000000E+00  0.00000000000E+00  0.45593999997E+02  0.45594000000E+02  0.51100000000E-03 0. -1.
         11   -1    0    0    0    0 -0.00000000000E+00 -0.00000000000E+00 -0.45593999997E+02  0.45594000000E+02  0.51100000000E-03 0.  1.
    9900012    2    1    2    0    0 -0.12129691533E+02 -0.34886776178E+01  0.29281742475E+02  0.59301941438E+02  0.49999995278E+02 0.  0.
        -12    1    1    2    0    0  0.12129691533E+02  0.34886776178E+01 -0.29281742475E+02  0.31886058562E+02  0.00000000000E+00 0.  1.
         11    1    3    3    0    0 -0.12876298190E+02 -0.20080425795E+02  0.25988846236E+01  0.23995348648E+02  0.51100000000E-03 0. -1.
        -11    1    3    3    0    0  0.64205003439E+01  0.11169525876E+02  0.83184985679E+01  0.15335532323E+02  0.51100000000E-03 0.  1.
         12    1    3    3    0    0 -0.56738936865E+01  0.54222223019E+01  0.18364359284E+02  0.19971060467E+02  0.00000000000E+00 0. -1.
</event>
<event>
 7    1  0.1096439E-011  0.5930196E+02  0.7816164E-02  0.1266605E+00
        -11   -1    0    0    0    0  0.00000000000E+00  0.00000000000E+00  0.45593999997E+02  0.45594000000E+02  0.51100000000E-03 0.  1.
         11   -1    0    0    0    0 -0.00000000000E+00 -0.00000000000E+00 -0.45593999997E+02  0.45594000000E+02  0.51100000000E-03 0. -1.
    9900012    2    1    2    0    0  0.22716597361E+02 -0.16262260046E+02 -0.15369280519E+02  0.59301957895E+02  0.50000025290E+02 0.  0.
        -12    1    1    2    0    0 -0.22716597361E+02  0.16262260046E+02  0.15369280519E+02  0.31886042105E+02  0.00000000000E+00 0.  1.
         11    1    3    3    0    0  0.21413080554E+02  0.56735779506E+01 -0.20674888866E+02  0.30301163929E+02  0.51100000000E-03 0. -1.
        -11    1    3    3    0    0  0.92002108004E+01 -0.12884785976E+02  0.60909213242E+01  0.16963517066E+02  0.51100000000E-03 0.  1.
         12    1    3    3    0    0 -0.78966939927E+01 -0.90510520203E+01 -0.78531297686E+00  0.12037276900E+02  0.00000000000E+00 0. -1.
</event>
<event>
 7    1  0.1096439E-011  0.5930193E+02  0.7816164E-02  0.1266605E+00
        -11   -1    0    0    0    0  0.00000000000E+00  0.00000000000E+00  0.45593999997E+02  0.45594000000E+02  0.51100000000E-03 0.  1.
         11   -1    0    0    0    0 -0.00000000000E+00 -0.00000000000E+00 -0.45593999997E+02  0.45594000000E+02  0.51100000000E-03 0. -1.
    9900012    2    1    2    0    0 -0.12349899233E+02 -0.36859759688E+01 -0.29165307492E+02  0.59301927946E+02  0.49999970672E+02 0.  0.
        -12    1    1    2    0    0  0.12349899233E+02  0.36859759688E+01  0.29165307492E+02  0.31886072054E+02  0.00000000000E+00 0.  1.
         11    1    3    3    0    0  0.11134310831E+02  0.76421149388E+01 -0.59889173203E+01  0.14773013550E+02  0.51100000000E-03 0. -1.
        -11    1    3    3    0    0 -0.25612638984E+02 -0.17750679570E+02 -0.17807589635E+02  0.35891560983E+02  0.51100000000E-03 0.  1.
        -12    1    3    3    0    0  0.21284289205E+01  0.64225886621E+01 -0.53688005368E+01  0.86373534139E+01  0.00000000000E+00 0.  1.
</event>
<event>
 7    1  0.1096439E-011  0.5930195E+02  0.7816164E-02  0.1266605E+00
        -11   -1    0    0    0    0  0.00000000000E+00  0.00000000000E+00  0.45593999997E+02  0.45594000000E+02  0.51100000000E-03 0.  1.
         11   -1    0    0    0    0 -0.00000000000E+00 -0.00000000000E+00 -0.45593999997E+02  0.45594000000E+02  0.51100000000E-03 0. -1.
    9900012    2    1    2    0    0  0.10957795757E+02 -0.99641882302E+01 -0.28237601680E+02  0.59301945312E+02  0.50000002341E+02 0.  0.
        -12    1    1    2    0    0 -0.10957795757E+02  0.99641882302E+01  0.28237601680E+02  0.31886054688E+02  0.00000000000E+00 0.  1.
         11    1    3    3    0    0  0.17975140944E+02 -0.11870111509E+02 -0.35307914171E+02  0.41360053706E+02  0.51100000000E-03 0. -1.
        -11    1    3    3    0    0 -0.11458229854E+02  0.24983655477E+00  0.34225694768E+01  0.11961079875E+02  0.51100000000E-03 0.  1.
         12    1    3    3    0    0  0.44408846675E+01  0.16560867239E+01  0.36477430136E+01  0.59808117310E+01  0.00000000000E+00 0. -1.
</event>
<event>
 7    1  0.1096439E-011  0.5930196E+02  0.7816164E-02  0.1266605E+00
        -11   -1    0    0    0    0  0.00000000000E+00  0.00000000000E+00  0.45593999997E+02  0.45594000000E+02  0.51100000000E-03 0. -1.
         11   -1    0    0    0    0 -0.00000000000E+00 -0.00000000000E+00 -0.45593999997E+02  0.45594000000E+02  0.51100000000E-03 0.  1.
    9900012    2    1    2    0    0  0.24928513867E+02 -0.97577433226E+01 -0.17322672523E+02  0.59301963217E+02  0.50000034997E+02 0.  0.
        -12    1    1    2    0    0 -0.24928513867E+02  0.97577433226E+01  0.17322672523E+02  0.31886036783E+02  0.00000000000E+00 0.  1.
         11    1    3    3    0    0  0.31912887125E+02 -0.18509072468E+02 -0.11048471995E+02  0.38510866803E+02  0.51100000000E-03 0. -1.
        -11    1    3    3    0    0 -0.34793956813E+01  0.12617515675E+02 -0.79456773828E+01  0.15311488675E+02  0.51100000000E-03 0.  1.
        -12    1    3    3    0    0 -0.35049775763E+01 -0.38661865294E+01  0.16714768544E+01  0.54796077383E+01  0.00000000000E+00 0.  1.
</event>
<event>
 7    1  0.1096439E-011  0.5930196E+02  0.7816164E-02  0.1266605E+00
        -11   -1    0    0    0    0  0.00000000000E+00  0.00000000000E+00  0.45593999997E+02  0.45594000000E+02  0.51100000000E-03 0. -1.
         11   -1    0    0    0    0 -0.00000000000E+00 -0.00000000000E+00 -0.45593999997E+02  0.45594000000E+02  0.51100000000E-03 0.  1.
    9900012    2    1    2    0    0  0.31619358487E+02  0.40034641527E+01 -0.95296244255E+00  0.59301957697E+02  0.50000024929E+02 0.  0.
        -12    1    1    2    0    0 -0.31619358487E+02 -0.40034641527E+01  0.95296244255E+00  0.31886042303E+02  0.00000000000E+00 0.  1.
         11    1    3    3    0    0  0.23422500401E+02  0.14470371383E+02  0.88525748431E+01  0.28920118510E+02  0.51100000000E-03 0. -1.
        -11    1    3    3    0    0 -0.10126793535E+01 -0.12715946162E+02  0.42346696588E+01  0.13440730398E+02  0.51100000000E-03 0.  1.
        -12    1    3    3    0    0  0.92095374391E+01  0.22490389312E+01 -0.14040206945E+02  0.16941108789E+02  0.00000000000E+00 0.  1.
</event>
<event>
 7    1  0.1096439E-011  0.5930195E+02  0.7816164E-02  0.1266605E+00
        -11   -1    0    0    0    0  0.00000000000E+00  0.00000000000E+00  0.45593999997E+02  0.45594000000E+02  0.51100000000E-03 0. -1.
         11   -1    0    0    0    0 -0.00000000000E+00 -0.00000000000E+00 -0.45593999997E+02  0.45594000000E+02  0.51100000000E-03 0.  1.
    9900012    2    1    2    0    0  0.16844084707E+01 -0.27525290751E+02  0.16007543908E+02  0.59301947802E+02  0.50000006884E+02 0.  0.
        -12    1    1    2    0    0 -0.16844084707E+01  0.27525290751E+02 -0.16007543908E+02  0.31886052198E+02  0.00000000000E+00 0.  1.
         11    1    3    3    0    0  0.10775232176E+01 -0.33518269830E+02  0.15803451271E+02  0.37072692659E+02  0.51100000000E-03 0. -1.
        -11    1    3    3    0    0  0.83084874591E+01  0.74850283829E+01 -0.55654800530E+01  0.12491244223E+02  0.51100000000E-03 0.  1.
         12    1    3    3    0    0 -0.77016022061E+01 -0.14920493039E+01  0.57695726899E+01  0.97380109206E+01  0.00000000000E+00 0. -1.
</event>
<event>
 7    1  0.1096439E-011  0.5930193E+02  0.7816164E-02  0.1266605E+00
        -11   -1    0    0    0    0  0.00000000000E+00  0.00000000000E+00  0.45593999997E+02  0.45594000000E+02  0.51100000000E-03 0. -1.
         11   -1    0    0    0    0 -0.00000000000E+00 -0.00000000000E+00 -0.45593999997E+02  0.45594000000E+02  0.51100000000E-03 0.  1.
    9900012    2    1    2    0    0 -0.11778119163E+02 -0.29333113117E+02 -0.41911306804E+01  0.59301934195E+02  0.49999982068E+02 0.  0.
        -12    1    1    2    0    0  0.11778119163E+02  0.29333113117E+02  0.41911306804E+01  0.31886065805E+02  0.00000000000E+00 0.  1.
         11    1    3    3    0    0 -0.42323516987E+00  0.10700993917E+02  0.53664969632E+01  0.11978718159E+02  0.51100000000E-03 0. -1.
        -11    1    3    3    0    0  0.22274168840E+01 -0.15186941047E+02 -0.11133822047E+02  0.18962240321E+02  0.51100000000E-03 0.  1.
         12    1    3    3    0    0 -0.13582300877E+02 -0.24847165987E+02  0.15761944034E+01  0.28360975715E+02  0.00000000000E+00 0. -1.
</event>
<event>
 7    1  0.1096439E-011  0.5930191E+02  0.7816164E-02  0.1266605E+00
        -11   -1    0    0    0    0  0.00000000000E+00  0.00000000000E+00  0.45593999997E+02  0.45594000000E+02  0.51100000000E-03 0.  1.
         11   -1    0    0    0    0 -0.00000000000E+00 -0.00000000000E+00 -0.45593999997E+02  0.45594000000E+02  0.51100000000E-03 0. -1.
    9900012    2    1    2    0    0  0.15358224870E+02 -0.32083481864E+01 -0.27758861127E+02  0.59301906788E+02  0.49999932084E+02 0.  0.
        -12    1    1    2    0    0 -0.15358224870E+02  0.32083481864E+01  0.27758861127E+02  0.31886093212E+02  0.00000000000E+00 0.  1.
         11    1    3    3    0    0  0.11864630497E+02 -0.15637539648E+02 -0.47118102838E+01  0.20186709972E+02  0.51100000000E-03 0. -1.
        -11    1    3    3    0    0  0.11685515199E+02  0.15347846651E+02 -0.23504641388E+02  0.30406838530E+02  0.51100000000E-03 0.  1.
        -12    1    3    3    0    0 -0.81919208266E+01 -0.29186551899E+01  0.45759054536E+00  0.87083582870E+01  0.00000000000E+00 0.  1.
</event>
<event>
 7    1  0.1096439E-011  0.5930198E+02  0.7816164E-02  0.1266605E+00
        -11   -1    0    0    0    0  0.00000000000E+00  0.00000000000E+00  0.45593999997E+02  0.45594000000E+02  0.51100000000E-03 0. -1.
         11   -1    0    0    0    0 -0.00000000000E+00 -0.00000000000E+00 -0.45593999997E+02  0.45594000000E+02  0.51100000000E-03 0.  1.
    9900012    2    1    2    0    0  0.23403460481E+02  0.17857363008E+02 -0.12251979999E+02  0.59301978141E+02  0.50000062214E+02 0.  0.
        -12    1    1    2    0    0 -0.23403460481E+02 -0.17857363008E+02  0.12251979999E+02  0.31886021859E+02  0.00000000000E+00 0.  1.
         11    1    3    3    0    0  0.30140586685E+02  0.18993532707E+02 -0.19955052866E+02  0.40833973424E+02  0.51100000000E-03 0. -1.
        -11    1    3    3    0    0 -0.11279337636E+02  0.16962206713E+01  0.47620818669E+01  0.12360341664E+02  0.51100000000E-03 0.  1.
        -12    1    3    3    0    0  0.45422114326E+01 -0.28323903706E+01  0.29409909996E+01  0.61076630530E+01  0.00000000000E+00 0.  1.
</event>
<event>
 7    1  0.1096439E-011  0.5930194E+02  0.7816164E-02  0.1266605E+00
        -11   -1    0    0    0    0  0.00000000000E+00  0.00000000000E+00  0.45593999997E+02  0.45594000000E+02  0.51100000000E-03 0. -1.
         11   -1    0    0    0    0 -0.00000000000E+00 -0.00000000000E+00 -0.45593999997E+02  0.45594000000E+02  0.51100000000E-03 0.  1.
    9900012    2    1    2    0    0 -0.25923957706E+02  0.12036760972E+02  0.14134551496E+02  0.59301941231E+02  0.49999994900E+02 0.  0.
        -12    1    1    2    0    0  0.25923957706E+02 -0.12036760972E+02 -0.14134551496E+02  0.31886058769E+02  0.00000000000E+00 0.  1.
         11    1    3    3    0    0 -0.27853391173E+02  0.17792613300E+02  0.95576599702E+01  0.34405484334E+02  0.51100000000E-03 0. -1.
        -11    1    3    3    0    0 -0.12267479211E+01 -0.10789685895E+02 -0.62624277135E+01  0.12535558755E+02  0.51100000000E-03 0.  1.
         12    1    3    3    0    0  0.31561813881E+01  0.50338335661E+01  0.10839319239E+02  0.12360898142E+02  0.00000000000E+00 0. -1.
</event>
<event>
 7    1  0.1096439E-011  0.5930196E+02  0.7816164E-02  0.1266605E+00
        -11   -1    0    0    0    0  0.00000000000E+00  0.00000000000E+00  0.45593999997E+02  0.45594000000E+02  0.51100000000E-03 0. -1.
         11   -1    0    0    0    0 -0.00000000000E+00 -0.00000000000E+00 -0.45593999997E+02  0.45594000000E+02  0.51100000000E-03 0.  1.
    9900012    2    1    2    0    0  0.27120284103E+02  0.13102088449E+02  0.10466363842E+02  0.59301963814E+02  0.50000036085E+02 0.  0.
        -12    1    1    2    0    0 -0.27120284103E+02 -0.13102088449E+02 -0.10466363842E+02  0.31886036186E+02  0.00000000000E+00 0.  1.
         11    1    3    3    0    0  0.23570268603E+02 -0.27903147833E+01 -0.63386766902E+01  0.24566689664E+02  0.51100000000E-03 0. -1.
        -11    1    3    3    0    0  0.98089703097E+01  0.19476206044E+02  0.77146289452E+01  0.23131234304E+02  0.51100000000E-03 0.  1.
         12    1    3    3    0    0 -0.62589548095E+01 -0.35838028120E+01  0.90904115873E+01  0.11604039845E+02  0.00000000000E+00 0. -1.
</event>
<event>
 7    1  0.1096439E-011  0.5930195E+02  0.7816164E-02  0.1266605E+00
        -11   -1    0    0    0    0  0.00000000000E+00  0.00000000000E+00  0.45593999997E+02  0.45594000000E+02  0.51100000000E-03 0. -1.
         11   -1    0    0    0    0 -0.00000000000E+00 -0.00000000000E+00 -0.45593999997E+02  0.45594000000E+02  0.51100000000E-03 0.  1.
    9900012    2    1    2    0    0 -0.25152333564E+02  0.63424205960E+01  0.18543303128E+02  0.59301948603E+02  0.50000008345E+02 0.  0.
        -12    1    1    2    0    0  0.25152333564E+02 -0.63424205960E+01 -0.18543303128E+02  0.31886051397E+02  0.00000000000E+00 0.  1.
         11    1    3    3    0    0 -0.85420433888E+01 -0.98719918769E+01  0.18825223798E+02  0.22908770813E+02  0.51100000000E-03 0. -1.
        -11    1    3    3    0    0 -0.24363152436E+02  0.97972586077E+01 -0.12042386381E+01  0.26286872461E+02  0.51100000000E-03 0.  1.
         12    1    3    3    0    0  0.77528622605E+01  0.64171538652E+01  0.92231796852E+00  0.10106305329E+02  0.00000000000E+00 0. -1.
</event>
<event>
 7    1  0.1096439E-011  0.5930197E+02  0.7816164E-02  0.1266605E+00
        -11   -1    0    0    0    0  0.00000000000E+00  0.00000000000E+00  0.45593999997E+02  0.45594000000E+02  0.51100000000E-03 0.  1.
         11   -1    0    0    0    0 -0.00000000000E+00 -0.00000000000E+00 -0.45593999997E+02  0.45594000000E+02  0.51100000000E-03 0. -1.
    9900012    2    1    2    0    0  0.17878147764E+02  0.24928286868E+02 -0.86989321842E+01  0.59301967403E+02  0.50000042631E+02 0.  0.
        -12    1    1    2    0    0 -0.17878147764E+02 -0.24928286868E+02  0.86989321842E+01  0.31886032597E+02  0.00000000000E+00 0.  1.
         11    1    3    3    0    0  0.17528990620E+02  0.20756812049E+02 -0.10424269739E+02  0.29099418524E+02  0.51100000000E-03 0. -1.
        -11    1    3    3    0    0 -0.13543096831E+02  0.47934379357E+01 -0.43741498414E+01  0.15017513313E+02  0.51100000000E-03 0.  1.
         12    1    3    3    0    0  0.13892253975E+02 -0.62196311686E+00  0.60994873963E+01  0.15185035565E+02  0.00000000000E+00 0. -1.
</event>
<event>
 7    1  0.1096439E-011  0.5930195E+02  0.7816164E-02  0.1266605E+00
        -11   -1    0    0    0    0  0.00000000000E+00  0.00000000000E+00  0.45593999997E+02  0.45594000000E+02  0.51100000000E-03 0. -1.
         11   -1    0    0    0    0 -0.00000000000E+00 -0.00000000000E+00 -0.45593999997E+02  0.45594000000E+02  0.51100000000E-03 0.  1.
    9900012    2    1    2    0    0  0.14605455549E+02 -0.22794228666E+02  0.16847073231E+02  0.59301951817E+02  0.50000014205E+02 0.  0.
        -12    1    1    2    0    0 -0.14605455549E+02  0.22794228666E+02 -0.16847073231E+02  0.31886048183E+02  0.00000000000E+00 0.  1.
         11    1    3    3    0    0  0.16711057309E+02 -0.14516148331E+02  0.24716664543E+02  0.33179685127E+02  0.51100000000E-03 0. -1.
        -11    1    3    3    0    0 -0.37903609163E+01 -0.15563374607E+02 -0.92808596074E+01  0.18512693493E+02  0.51100000000E-03 0.  1.
        -12    1    3    3    0    0  0.16847591566E+01  0.72852942715E+01  0.14112682958E+01  0.76095731970E+01  0.00000000000E+00 0.  1.
</event>
<event>
 7    1  0.1096439E-011  0.5930195E+02  0.7816164E-02  0.1266605E+00
        -11   -1    0    0    0    0  0.00000000000E+00  0.00000000000E+00  0.45593999997E+02  0.45594000000E+02  0.51100000000E-03 0. -1.
         11   -1    0    0    0    0 -0.00000000000E+00 -0.00000000000E+00 -0.45593999997E+02  0.45594000000E+02  0.51100000000E-03 0.  1.
    9900012    2    1    2    0    0 -0.30378128429E+02 -0.90278427432E+01  0.35196338402E+01  0.59301945779E+02  0.50000003194E+02 0.  0.
        -12    1    1    2    0    0  0.30378128429E+02  0.90278427432E+01 -0.35196338402E+01  0.31886054221E+02  0.00000000000E+00 0.  1.
         11    1    3    3    0    0 -0.14101186221E+02 -0.21021354418E+02  0.18643874261E+02  0.31437793213E+02  0.51100000000E-03 0. -1.
        -11    1    3    3    0    0 -0.53780577569E+01  0.57051018521E+01  0.43645865478E+00  0.78525275419E+01  0.51100000000E-03 0.  1.
         12    1    3    3    0    0 -0.10898884450E+02  0.62884098223E+01 -0.15560699076E+02  0.20011625024E+02  0.00000000000E+00 0. -1.
</event>
<event>
 7    1  0.1096439E-011  0.5930189E+02  0.7816164E-02  0.1266605E+00
        -11   -1    0    0    0    0  0.00000000000E+00  0.00000000000E+00  0.45593999997E+02  0.45594000000E+02  0.51100000000E-03 0.  1.
         11   -1    0    0    0    0 -0.00000000000E+00 -0.00000000000E+00 -0.45593999997E+02  0.45594000000E+02  0.51100000000E-03 0. -1.
    9900012    2    1    2    0    0  0.78840255460E+01 -0.49129484286E+01 -0.30502936480E+02  0.59301889310E+02  0.49999900207E+02 0.  0.
        -12    1    1    2    0    0 -0.78840255460E+01  0.49129484286E+01  0.30502936480E+02  0.31886110690E+02  0.00000000000E+00 0.  1.
         11    1    3    3    0    0 -0.12491950084E+00  0.55560167220E+01 -0.17989303258E+02  0.18828169286E+02  0.51100000000E-03 0. -1.
        -11    1    3    3    0    0 -0.11457764621E+02  0.21070686738E+01  0.36613974227E+01  0.12211713223E+02  0.51100000000E-03 0.  1.
        -12    1    3    3    0    0  0.19466709667E+02 -0.12576033824E+02 -0.16175030644E+02  0.28262006800E+02  0.00000000000E+00 0.  1.
</event>
<event>
 7    1  0.1096439E-011  0.5930194E+02  0.7816164E-02  0.1266605E+00
        -11   -1    0    0    0    0  0.00000000000E+00  0.00000000000E+00  0.45593999997E+02  0.45594000000E+02  0.51100000000E-03 0. -1.
         11   -1    0    0    0    0 -0.00000000000E+00 -0.00000000000E+00 -0.45593999997E+02  0.45594000000E+02  0.51100000000E-03 0.  1.
    9900012    2    1    2    0    0 -0.11547496775E+02 -0.29549162507E+02 -0.31974026369E+01  0.59301936113E+02  0.49999985565E+02 0.  0.
        -12    1    1    2    0    0  0.11547496775E+02  0.29549162507E+02  0.31974026369E+01  0.31886063887E+02  0.00000000000E+00 0.  1.
         11    1    3    3    0    0 -0.23948817382E+02 -0.13330835692E+02 -0.35328898662E+01  0.27635816349E+02  0.51100000000E-03 0. -1.
        -11    1    3    3    0    0  0.69920662555E+01 -0.87203815545E+00 -0.10115154324E+02  0.12327440461E+02  0.51100000000E-03 0.  1.
         12    1    3    3    0    0  0.54092543514E+01 -0.15346288659E+02  0.10450641554E+02  0.19338679302E+02  0.00000000000E+00 0. -1.
</event>
<event>
 7    1  0.1096439E-011  0.5930176E+02  0.7816164E-02  0.1266605E+00
        -11   -1    0    0    0    0  0.00000000000E+00  0.00000000000E+00  0.45593999997E+02  0.45594000000E+02  0.51100000000E-03 0.  1.
         11   -1    0    0    0    0 -0.00000000000E+00 -0.00000000000E+00 -0.45593999997E+02  0.45594000000E+02  0.51100000000E-03 0. -1.
    9900012    2    1    2    0    0  0.17741852853E+02 -0.24277176657E+02 -0.10610254552E+02  0.59301762361E+02  0.49999668682E+02 0.  0.
        -12    1    1    2    0    0 -0.17741852853E+02  0.24277176657E+02  0.10610254552E+02  0.31886237639E+02  0.00000000000E+00 0.  1.
         11    1    3    3    0    0 -0.13478099476E+02 -0.15965942125E+02 -0.26454498351E+01  0.21061074961E+02  0.51100000000E-03 0. -1.
        -11    1    3    3    0    0  0.27267063155E+02 -0.82152852740E+01  0.94443057832E+00  0.28493430728E+02  0.51100000000E-03 0.  1.
         12    1    3    3    0    0  0.39528891741E+01 -0.95949258063E-01 -0.89092352954E+01  0.97472566721E+01  0.00000000000E+00 0. -1.
</event>
<event>
 7    1  0.1096439E-011  0.5930196E+02  0.7816164E-02  0.1266605E+00
        -11   -1    0    0    0    0  0.00000000000E+00  0.00000000000E+00  0.45593999997E+02  0.45594000000E+02  0.51100000000E-03 0. -1.
         11   -1    0    0    0    0 -0.00000000000E+00 -0.00000000000E+00 -0.45593999997E+02  0.45594000000E+02  0.51100000000E-03 0.  1.
    9900012    2    1    2    0    0  0.65245018545E+00 -0.17272598220E+02  0.26794609798E+02  0.59301961445E+02  0.50000031764E+02 0.  0.
        -12    1    1    2    0    0 -0.65245018545E+00  0.17272598220E+02 -0.26794609798E+02  0.31886038555E+02  0.00000000000E+00 0.  1.
         11    1    3    3    0    0 -0.12165822038E+02  0.55060084304E+01  0.13843572143E+02  0.19234548205E+02  0.51100000000E-03 0. -1.
        -11    1    3    3    0    0  0.19870531759E+02 -0.87037916375E+01  0.10619225637E+02  0.24152887502E+02  0.51100000000E-03 0.  1.
        -12    1    3    3    0    0 -0.70522595352E+01 -0.14074815012E+02  0.23318120178E+01  0.15914525738E+02  0.00000000000E+00 0.  1.
</event>
<event>
 7    1  0.1096439E-011  0.5930193E+02  0.7816164E-02  0.1266605E+00
        -11   -1    0    0    0    0  0.00000000000E+00  0.00000000000E+00  0.45593999997E+02  0.45594000000E+02  0.51100000000E-03 0. -1.
         11   -1    0    0    0    0 -0.00000000000E+00 -0.00000000000E+00 -0.45593999997E+02  0.45594000000E+02  0.51100000000E-03 0.  1.
    9900012    2    1    2    0    0 -0.25697699688E+02 -0.97148042035E+01  0.16185553496E+02  0.59301932009E+02  0.49999978081E+02 0.  0.
        -12    1    1    2    0    0  0.25697699688E+02  0.97148042035E+01 -0.16185553496E+02  0.31886067991E+02  0.00000000000E+00 0.  1.
         11    1    3    3    0    0 -0.21638943802E+02 -0.10166634017E+02  0.10483171261E+02  0.26105578256E+02  0.51100000000E-03 0. -1.
        -11    1    3    3    0    0  0.13897131617E+02 -0.21763157180E+01 -0.33711125382E+00  0.14070545887E+02  0.51100000000E-03 0.  1.
        -12    1    3    3    0    0 -0.17955887503E+02  0.26281455312E+01  0.60394934895E+01  0.19125807867E+02  0.00000000000E+00 0.  1.
</event>
<event>
 7    1  0.1096439E-011  0.5930193E+02  0.7816164E-02  0.1266605E+00
        -11   -1    0    0    0    0  0.00000000000E+00  0.00000000000E+00  0.45593999997E+02  0.45594000000E+02  0.51100000000E-03 0.  1.
         11   -1    0    0    0    0 -0.00000000000E+00 -0.00000000000E+00 -0.45593999997E+02  0.45594000000E+02  0.51100000000E-03 0. -1.
    9900012    2    1    2    0    0 -0.13700442676E+02 -0.24285242155E+02 -0.15467590906E+02  0.59301929616E+02  0.49999973717E+02 0.  0.
        -12    1    1    2    0    0  0.13700442676E+02  0.24285242155E+02  0.15467590906E+02  0.31886070384E+02  0.00000000000E+00 0.  1.
         11    1    3    3    0    0 -0.29144889011E+02 -0.27192736899E+02 -0.62652237843E+01  0.40350000308E+02  0.51100000000E-03 0. -1.
        -11    1    3    3    0    0  0.10594748126E+02 -0.37782628294E+00 -0.69478120013E+01  0.12675311926E+02  0.51100000000E-03 0.  1.
         12    1    3    3    0    0  0.48496982093E+01  0.32853210272E+01 -0.22545551206E+01  0.62766173823E+01  0.00000000000E+00 0. -1.
</event>
<event>
 7    1  0.1096439E-011  0.5930194E+02  0.7816164E-02  0.1266605E+00
        -11   -1    0    0    0    0  0.00000000000E+00  0.00000000000E+00  0.45593999997E+02  0.45594000000E+02  0.51100000000E-03 0.  1.
         11   -1    0    0    0    0 -0.00000000000E+00 -0.00000000000E+00 -0.45593999997E+02  0.45594000000E+02  0.51100000000E-03 0. -1.
    9900012    2    1    2    0    0  0.27308128684E+02 -0.11411605679E+02 -0.11864317609E+02  0.59301942409E+02  0.49999997047E+02 0.  0.
        -12    1    1    2    0    0 -0.27308128684E+02  0.11411605679E+02  0.11864317609E+02  0.31886057591E+02  0.00000000000E+00 0.  1.
         11    1    3    3    0    0  0.76132586812E+01  0.75512180956E-01 -0.14660352425E+02  0.16519483749E+02  0.51100000000E-03 0. -1.
        -11    1    3    3    0    0  0.10600476008E+02 -0.20970165583E+02  0.12342356257E+02  0.26541508894E+02  0.51100000000E-03 0.  1.
        -12    1    3    3    0    0  0.90943939950E+01  0.94830477225E+01 -0.95463214403E+01  0.16240949765E+02  0.00000000000E+00 0.  1.
</event>
<event>
 7    1  0.1096439E-011  0.5930195E+02  0.7816164E-02  0.1266605E+00
        -11   -1    0    0    0    0  0.00000000000E+00  0.00000000000E+00  0.45593999997E+02  0.45594000000E+02  0.51100000000E-03 0.  1.
         11   -1    0    0    0    0 -0.00000000000E+00 -0.00000000000E+00 -0.45593999997E+02  0.45594000000E+02  0.51100000000E-03 0. -1.
    9900012    2    1    2    0    0  0.21408674194E+02  0.17877564401E+02 -0.15452551829E+02  0.59301952930E+02  0.50000016237E+02 0.  0.
        -12    1    1    2    0    0 -0.21408674194E+02 -0.17877564401E+02  0.15452551829E+02  0.31886047070E+02  0.00000000000E+00 0.  1.
         11    1    3    3    0    0 -0.12963402556E+01  0.15706836123E+02 -0.79261420885E+01  0.17641114696E+02  0.51100000000E-03 0.  1.
        -11    1    3    3    0    0  0.28564726409E+02 -0.22939690125E+01 -0.13963718926E+02  0.31877756119E+02  0.51100000000E-03 0. -1.
         12    1    3    3    0    0 -0.58597119590E+01  0.44646972902E+01  0.64373091849E+01  0.97830821155E+01  0.00000000000E+00 0. -1.
</event>
<event>
 7    1  0.1096439E-011  0.5930196E+02  0.7816164E-02  0.1266605E+00
        -11   -1    0    0    0    0  0.00000000000E+00  0.00000000000E+00  0.45593999997E+02  0.45594000000E+02  0.51100000000E-03 0. -1.
         11   -1    0    0    0    0 -0.00000000000E+00 -0.00000000000E+00 -0.45593999997E+02  0.45594000000E+02  0.51100000000E-03 0.  1.
    9900012    2    1    2    0    0 -0.14914350932E+02  0.12218858877E+02  0.25396485578E+02  0.59301955158E+02  0.50000020298E+02 0.  0.
        -12    1    1    2    0    0  0.14914350932E+02 -0.12218858877E+02 -0.25396485578E+02  0.31886044842E+02  0.00000000000E+00 0.  1.
         11    1    3    3    0    0  0.37089237440E+00 -0.78364965561E+01 -0.80218892992E+01  0.11220470027E+02  0.51100000000E-03 0.  1.
        -11    1    3    3    0    0 -0.18813454113E+02  0.17028465823E+02  0.34946881325E+02  0.43187952239E+02  0.51100000000E-03 0. -1.
         12    1    3    3    0    0  0.35282108068E+01  0.30268896095E+01 -0.15285064479E+01  0.48935328922E+01  0.00000000000E+00 0. -1.
</event>
<event>
 7    1  0.1096439E-011  0.5930193E+02  0.7816164E-02  0.1266605E+00
        -11   -1    0    0    0    0  0.00000000000E+00  0.00000000000E+00  0.45593999997E+02  0.45594000000E+02  0.51100000000E-03 0. -1.
         11   -1    0    0    0    0 -0.00000000000E+00 -0.00000000000E+00 -0.45593999997E+02  0.45594000000E+02  0.51100000000E-03 0.  1.
    9900012    2    1    2    0    0 -0.21536840744E+02 -0.23510689774E+02  0.36515080822E+00  0.59301931286E+02  0.49999976763E+02 0.  0.
        -12    1    1    2    0    0  0.21536840744E+02  0.23510689774E+02 -0.36515080822E+00  0.31886068714E+02  0.00000000000E+00 0.  1.
         11    1    3    3    0    0 -0.16548376240E+02 -0.77764717741E+01 -0.17356932769E+02  0.25210818805E+02  0.51100000000E-03 0. -1.
        -11    1    3    3    0    0  0.76908890982E+01 -0.11486569446E+02  0.28923794380E+01  0.14122921505E+02  0.51100000000E-03 0.  1.
         12    1    3    3    0    0 -0.12679353603E+02 -0.42476485539E+01  0.14829704139E+02  0.19968190976E+02  0.00000000000E+00 0. -1.
</event>
<event>
 7    1  0.1096439E-011  0.5930195E+02  0.7816164E-02  0.1266605E+00
        -11   -1    0    0    0    0  0.00000000000E+00  0.00000000000E+00  0.45593999997E+02  0.45594000000E+02  0.51100000000E-03 0. -1.
         11   -1    0    0    0    0 -0.00000000000E+00 -0.00000000000E+00 -0.45593999997E+02  0.45594000000E+02  0.51100000000E-03 0.  1.
    9900012    2    1    2    0    0  0.22958160937E+02 -0.25635528877E+01  0.21978882681E+02  0.59301949117E+02  0.50000009281E+02 0.  0.
        -12    1    1    2    0    0 -0.22958160937E+02  0.25635528877E+01 -0.21978882681E+02  0.31886050883E+02  0.00000000000E+00 0.  1.
         11    1    3    3    0    0  0.12691879763E+02  0.14597482144E+02 -0.96218503195E+01  0.21604404660E+02  0.51100000000E-03 0. -1.
        -11    1    3    3    0    0  0.78068141460E+01 -0.13489689482E+02  0.20518653526E+02  0.25766901487E+02  0.51100000000E-03 0.  1.
         12    1    3    3    0    0  0.24594670280E+01 -0.36713455494E+01  0.11082079474E+02  0.11930642970E+02  0.00000000000E+00 0. -1.
</event>
<event>
 7    1  0.1096439E-011  0.5930185E+02  0.7816164E-02  0.1266605E+00
        -11   -1    0    0    0    0  0.00000000000E+00  0.00000000000E+00  0.45593999997E+02  0.45594000000E+02  0.51100000000E-03 0. -1.
         11   -1    0    0    0    0 -0.00000000000E+00 -0.00000000000E+00 -0.45593999997E+02  0.45594000000E+02  0.51100000000E-03 0.  1.
    9900012    2    1    2    0    0 -0.15614088095E+02 -0.27486089682E+02  0.41763493178E+01  0.59301846788E+02  0.49999822658E+02 0.  0.
        -12    1    1    2    0    0  0.15614088095E+02  0.27486089682E+02 -0.41763493178E+01  0.31886153212E+02  0.00000000000E+00 0.  1.
         11    1    3    3    0    0 -0.20032830065E+02 -0.30573689532E+02  0.17312764477E+02  0.40444982212E+02  0.51100000000E-03 0. -1.
        -11    1    3    3    0    0  0.71694662781E+01  0.58493219630E+01 -0.70642938412E+01  0.11641308426E+02  0.51100000000E-03 0.  1.
         12    1    3    3    0    0 -0.27507243090E+01 -0.27617221128E+01 -0.60721213182E+01  0.72155561501E+01  0.00000000000E+00 0. -1.
</event>
<event>
 7    1  0.1096439E-011  0.5930197E+02  0.7816164E-02  0.1266605E+00
        -11   -1    0    0    0    0  0.00000000000E+00  0.00000000000E+00  0.45593999997E+02  0.45594000000E+02  0.51100000000E-03 0. -1.
         11   -1    0    0    0    0 -0.00000000000E+00 -0.00000000000E+00 -0.45593999997E+02  0.45594000000E+02  0.51100000000E-03 0.  1.
    9900012    2    1    2    0    0  0.11642954465E+02 -0.27950126704E+02  0.99975361744E+01  0.59301973264E+02  0.50000053321E+02 0.  0.
        -12    1    1    2    0    0 -0.11642954465E+02  0.27950126704E+02 -0.99975361744E+01  0.31886026736E+02  0.00000000000E+00 0.  1.
         11    1    3    3    0    0 -0.48698980285E+01  0.40693128159E+01 -0.47385419498E+01  0.79201637403E+01  0.51100000000E-03 0.  1.
        -11    1    3    3    0    0  0.21901739408E+02 -0.32253276033E+02  0.20023913385E+02  0.43828268405E+02  0.51100000000E-03 0. -1.
         12    1    3    3    0    0 -0.53888869140E+01  0.23383651303E+00 -0.52878352605E+01  0.75535411185E+01  0.00000000000E+00 0. -1.
</event>
<event>
 7    1  0.1096439E-011  0.5930194E+02  0.7816164E-02  0.1266605E+00
        -11   -1    0    0    0    0  0.00000000000E+00  0.00000000000E+00  0.45593999997E+02  0.45594000000E+02  0.51100000000E-03 0.  1.
         11   -1    0    0    0    0 -0.00000000000E+00 -0.00000000000E+00 -0.45593999997E+02  0.45594000000E+02  0.51100000000E-03 0. -1.
    9900012    2    1    2    0    0 -0.10659607176E+01  0.26041417760E+02 -0.18369245928E+02  0.59301938669E+02  0.49999990228E+02 0.  0.
        -12    1    1    2    0    0  0.10659607176E+01 -0.26041417760E+02  0.18369245928E+02  0.31886061331E+02  0.00000000000E+00 0.  1.
         11    1    3    3    0    0  0.71123986639E+01  0.13362401062E+02 -0.92210843942E+01  0.17724795473E+02  0.51100000000E-03 0. -1.
        -11    1    3    3    0    0 -0.53427724572E+01 -0.61030128541E+01 -0.18650547264E+02  0.20338016052E+02  0.51100000000E-03 0.  1.
        -12    1    3    3    0    0 -0.28355869243E+01  0.18782029552E+02  0.95023857296E+01  0.21239127144E+02  0.00000000000E+00 0.  1.
</event>
<event>
 7    1  0.1096439E-011  0.5930210E+02  0.7816164E-02  0.1266604E+00
        -11   -1    0    0    0    0  0.00000000000E+00  0.00000000000E+00  0.45593999997E+02  0.45594000000E+02  0.51100000000E-03 0. -1.
         11   -1    0    0    0    0 -0.00000000000E+00 -0.00000000000E+00 -0.45593999997E+02  0.45594000000E+02  0.51100000000E-03 0.  1.
    9900012    2    1    2    0    0  0.18685461887E+02 -0.42232383433E+01  0.25489764817E+02  0.59302104396E+02  0.50000292473E+02 0.  0.
        -12    1    1    2    0    0 -0.18685461887E+02  0.42232383433E+01 -0.25489764817E+02  0.31885895604E+02  0.00000000000E+00 0.  1.
         11    1    3    3    0    0 -0.25248987437E+01  0.11735992056E+02  0.88972647673E+01  0.14942220177E+02  0.51100000000E-03 0. -1.
        -11    1    3    3    0    0  0.52609808224E+01 -0.36212344911E+01 -0.94607465954E+01  0.11414770469E+02  0.51100000000E-03 0.  1.
         12    1    3    3    0    0  0.15949379808E+02 -0.12337995909E+02  0.26053246645E+02  0.32945113751E+02  0.00000000000E+00 0. -1.
</event>
<event>
 7    1  0.1096439E-011  0.5930196E+02  0.7816164E-02  0.1266605E+00
        -11   -1    0    0    0    0  0.00000000000E+00  0.00000000000E+00  0.45593999997E+02  0.45594000000E+02  0.51100000000E-03 0. -1.
         11   -1    0    0    0    0 -0.00000000000E+00 -0.00000000000E+00 -0.45593999997E+02  0.45594000000E+02  0.51100000000E-03 0.  1.
    9900012    2    1    2    0    0 -0.17045497602E+02 -0.21976377250E+02  0.15595181984E+02  0.59301955300E+02  0.50000020558E+02 0.  0.
        -12    1    1    2    0    0  0.17045497602E+02  0.21976377250E+02 -0.15595181984E+02  0.31886044700E+02  0.00000000000E+00 0.  1.
         11    1    3    3    0    0  0.55704192789E+01 -0.23324400419E+02 -0.89725643821E+00  0.23997130979E+02  0.51100000000E-03 0. -1.
        -11    1    3    3    0    0 -0.83541689359E+01  0.70782187986E+01 -0.21341833228E+01  0.11155629013E+02  0.51100000000E-03 0.  1.
         12    1    3    3    0    0 -0.14261747945E+02 -0.57301956293E+01  0.18626621745E+02  0.24149195308E+02  0.00000000000E+00 0. -1.
</event>
<event>
 7    1  0.1096439E-011  0.5930193E+02  0.7816164E-02  0.1266605E+00
        -11   -1    0    0    0    0  0.00000000000E+00  0.00000000000E+00  0.45593999997E+02  0.45594000000E+02  0.51100000000E-03 0.  1.
         11   -1    0    0    0    0 -0.00000000000E+00 -0.00000000000E+00 -0.45593999997E+02  0.45594000000E+02  0.51100000000E-03 0. -1.
    9900012    2    1    2    0    0 -0.83319583796E+01 -0.15736839532E+02 -0.26450928908E+02  0.59301932683E+02  0.49999979309E+02 0.  0.
        -12    1    1    2    0    0  0.83319583796E+01  0.15736839532E+02  0.26450928908E+02  0.31886067317E+02  0.00000000000E+00 0.  1.
         11    1    3    3    0    0 -0.14331159038E+01 -0.32475853466E+01 -0.11369604810E+01  0.37273732270E+01  0.51100000000E-03 0. -1.
        -11    1    3    3    0    0  0.11986839914E+02  0.82964477776E+01  0.38593863416E+01  0.15080127322E+02  0.51100000000E-03 0.  1.
        -12    1    3    3    0    0 -0.18885682390E+02 -0.20785701963E+02 -0.29173354768E+02  0.40494432134E+02  0.00000000000E+00 0.  1.
</event>
<event>
 7    1  0.1096439E-011  0.5930195E+02  0.7816164E-02  0.1266605E+00
        -11   -1    0    0    0    0  0.00000000000E+00  0.00000000000E+00  0.45593999997E+02  0.45594000000E+02  0.51100000000E-03 0. -1.
         11   -1    0    0    0    0 -0.00000000000E+00 -0.00000000000E+00 -0.45593999997E+02  0.45594000000E+02  0.51100000000E-03 0.  1.
    9900012    2    1    2    0    0  0.13957439983E+02  0.82077341346E+00  0.28657226689E+02  0.59301945973E+02  0.50000003548E+02 0.  0.
        -12    1    1    2    0    0 -0.13957439983E+02 -0.82077341346E+00 -0.28657226689E+02  0.31886054027E+02  0.00000000000E+00 0.  1.
         11    1    3    3    0    0  0.14097206938E+02  0.17914447731E+02  0.26423879204E+02  0.34898138538E+02  0.51100000000E-03 0. -1.
        -11    1    3    3    0    0  0.58049509858E+01 -0.58403672993E+01 -0.51284993329E+01  0.97009716940E+01  0.51100000000E-03 0.  1.
         12    1    3    3    0    0 -0.59447179410E+01 -0.11253307019E+02  0.73618468178E+01  0.14702835741E+02  0.00000000000E+00 0. -1.
</event>
<event>
 7    1  0.1096439E-011  0.5930197E+02  0.7816164E-02  0.1266605E+00
        -11   -1    0    0    0    0  0.00000000000E+00  0.00000000000E+00  0.45593999997E+02  0.45594000000E+02  0.51100000000E-03 0.  1.
         11   -1    0    0    0    0 -0.00000000000E+00 -0.00000000000E+00 -0.45593999997E+02  0.45594000000E+02  0.51100000000E-03 0. -1.
    9900012    2    1    2    0    0 -0.30536889206E+02 -0.88425120141E+01 -0.24550871869E+01  0.59301967412E+02  0.50000042648E+02 0.  0.
        -12    1    1    2    0    0  0.30536889206E+02  0.88425120141E+01  0.24550871869E+01  0.31886032588E+02  0.00000000000E+00 0.  1.
         11    1    3    3    0    0 -0.70029854239E+01 -0.11765779618E+02 -0.18837456852E+02  0.23287875725E+02  0.51100000000E-03 0. -1.
        -11    1    3    3    0    0 -0.45527853044E+01 -0.79546437299E+01  0.92044089214E+01  0.12989432426E+02  0.51100000000E-03 0.  1.
         12    1    3    3    0    0 -0.18981118478E+02  0.10877911334E+02  0.71779607437E+01  0.23024659261E+02  0.00000000000E+00 0. -1.
</event>
<event>
 7    1  0.1096439E-011  0.5930194E+02  0.7816164E-02  0.1266605E+00
        -11   -1    0    0    0    0  0.00000000000E+00  0.00000000000E+00  0.45593999997E+02  0.45594000000E+02  0.51100000000E-03 0. -1.
         11   -1    0    0    0    0 -0.00000000000E+00 -0.00000000000E+00 -0.45593999997E+02  0.45594000000E+02  0.51100000000E-03 0.  1.
    9900012    2    1    2    0    0 -0.56464412271E+01 -0.29620498253E+02  0.10366515547E+02  0.59301939411E+02  0.49999991581E+02 0.  0.
        -12    1    1    2    0    0  0.56464412271E+01  0.29620498253E+02 -0.10366515547E+02  0.31886060589E+02  0.00000000000E+00 0.  1.
         11    1    3    3    0    0  0.56638396030E+01 -0.32339391647E+02  0.55188010113E+01  0.33292228763E+02  0.51100000000E-03 0. -1.
        -11    1    3    3    0    0 -0.71682786829E+01 -0.35321176334E+01 -0.78891373602E+01  0.11229361638E+02  0.51100000000E-03 0.  1.
         12    1    3    3    0    0 -0.41420021471E+01  0.62510110274E+01  0.12736851896E+02  0.14780349011E+02  0.00000000000E+00 0. -1.
</event>
<event>
 7    1  0.1096439E-011  0.5930189E+02  0.7816164E-02  0.1266605E+00
        -11   -1    0    0    0    0  0.00000000000E+00  0.00000000000E+00  0.45593999997E+02  0.45594000000E+02  0.51100000000E-03 0.  1.
         11   -1    0    0    0    0 -0.00000000000E+00 -0.00000000000E+00 -0.45593999997E+02  0.45594000000E+02  0.51100000000E-03 0. -1.
    9900012    2    1    2    0    0  0.25855886002E+02 -0.10142829420E+02 -0.15662693769E+02  0.59301893219E+02  0.49999907336E+02 0.  0.
        -12    1    1    2    0    0 -0.25855886002E+02  0.10142829420E+02  0.15662693769E+02  0.31886106781E+02  0.00000000000E+00 0.  1.
         11    1    3    3    0    0  0.35746362254E+01  0.11533905494E+02  0.36908609711E+01  0.12626616928E+02  0.51100000000E-03 0. -1.
        -11    1    3    3    0    0  0.20133044042E+02 -0.28708703586E+02 -0.15071248397E+02  0.38166368082E+02  0.51100000000E-03 0.  1.
        -12    1    3    3    0    0  0.21482057339E+01  0.70319686730E+01 -0.42823063428E+01  0.85089082089E+01  0.00000000000E+00 0.  1.
</event>
<event>
 7    1  0.1096439E-011  0.5930184E+02  0.7816164E-02  0.1266605E+00
        -11   -1    0    0    0    0  0.00000000000E+00  0.00000000000E+00  0.45593999997E+02  0.45594000000E+02  0.51100000000E-03 0.  1.
         11   -1    0    0    0    0 -0.00000000000E+00 -0.00000000000E+00 -0.45593999997E+02  0.45594000000E+02  0.51100000000E-03 0. -1.
    9900012    2    1    2    0    0 -0.14377928451E+02 -0.22999739782E+02 -0.16763489963E+02  0.59301836037E+02  0.49999803050E+02 0.  0.
        -12    1    1    2    0    0  0.14377928451E+02  0.22999739782E+02  0.16763489963E+02  0.31886163963E+02  0.00000000000E+00 0.  1.
         11    1    3    3    0    0  0.76587756526E+01 -0.13143001852E+02 -0.23278692475E+02  0.27808143875E+02  0.51100000000E-03 0.  1.
        -11    1    3    3    0    0 -0.15745706327E+02  0.14776779427E+00 -0.33505151398E+01  0.16098914716E+02  0.51100000000E-03 0. -1.
         12    1    3    3    0    0 -0.62909977764E+01 -0.10004505724E+02  0.98657176520E+01  0.15394777446E+02  0.00000000000E+00 0. -1.
</event>
<event>
 7    1  0.1096439E-011  0.5930200E+02  0.7816164E-02  0.1266605E+00
        -11   -1    0    0    0    0  0.00000000000E+00  0.00000000000E+00  0.45593999997E+02  0.45594000000E+02  0.51100000000E-03 0.  1.
         11   -1    0    0    0    0 -0.00000000000E+00 -0.00000000000E+00 -0.45593999997E+02  0.45594000000E+02  0.51100000000E-03 0. -1.
    9900012    2    1    2    0    0  0.26666477633E+02  0.81745603971E+00 -0.17462760681E+02  0.59301995636E+02  0.50000094121E+02 0.  0.
        -12    1    1    2    0    0 -0.26666477633E+02 -0.81745603971E+00  0.17462760681E+02  0.31886004364E+02  0.00000000000E+00 0.  1.
         11    1    3    3    0    0  0.79979355310E+01 -0.22749801124E+02 -0.11465424330E+02  0.26701617541E+02  0.51100000000E-03 0. -1.
        -11    1    3    3    0    0  0.50979974957E+01  0.12963852776E+02 -0.64980399786E+01  0.15371258280E+02  0.51100000000E-03 0.  1.
         12    1    3    3    0    0  0.13570544606E+02  0.10603404387E+02  0.50070362843E+00  0.17229119816E+02  0.00000000000E+00 0. -1.
</event>
<event>
 7    1  0.1096439E-011  0.5930198E+02  0.7816164E-02  0.1266605E+00
        -11   -1    0    0    0    0  0.00000000000E+00  0.00000000000E+00  0.45593999997E+02  0.45594000000E+02  0.51100000000E-03 0.  1.
         11   -1    0    0    0    0 -0.00000000000E+00 -0.00000000000E+00 -0.45593999997E+02  0.45594000000E+02  0.51100000000E-03 0. -1.
    9900012    2    1    2    0    0 -0.15106636796E+02 -0.12023956803E+02 -0.25375820178E+02  0.59301980145E+02  0.50000065869E+02 0.  0.
        -12    1    1    2    0    0  0.15106636796E+02  0.12023956803E+02  0.25375820178E+02  0.31886019855E+02  0.00000000000E+00 0.  1.
         11    1    3    3    0    0  0.74000128669E+01 -0.21807431986E+02 -0.17459867050E+02  0.28899329368E+02  0.51100000000E-03 0. -1.
        -11    1    3    3    0    0 -0.10861192261E+02  0.89712567040E+01  0.30193299406E+01  0.14407126630E+02  0.51100000000E-03 0.  1.
        -12    1    3    3    0    0 -0.11645457402E+02  0.81221847891E+00 -0.10935283069E+02  0.15995524148E+02  0.00000000000E+00 0.  1.
</event>
<event>
 7    1  0.1096439E-011  0.5930189E+02  0.7816164E-02  0.1266605E+00
        -11   -1    0    0    0    0  0.00000000000E+00  0.00000000000E+00  0.45593999997E+02  0.45594000000E+02  0.51100000000E-03 0.  1.
         11   -1    0    0    0    0 -0.00000000000E+00 -0.00000000000E+00 -0.45593999997E+02  0.45594000000E+02  0.51100000000E-03 0. -1.
    9900012    2    1    2    0    0  0.81332479066E+01  0.29877558754E+02 -0.76095759929E+01  0.59301891968E+02  0.49999905056E+02 0.  0.
        -12    1    1    2    0    0 -0.81332479066E+01 -0.29877558754E+02  0.76095759929E+01  0.31886108032E+02  0.00000000000E+00 0.  1.
         11    1    3    3    0    0  0.59350392209E+01 -0.78110923924E+01 -0.12165758980E+02  0.15628293149E+02  0.51100000000E-03 0. -1.
        -11    1    3    3    0    0  0.16449908660E+01  0.36547657667E+02 -0.23422794735E+01  0.36659562863E+02  0.51100000000E-03 0.  1.
        -12    1    3    3    0    0  0.55321781965E+00  0.11409934793E+01  0.68984624611E+01  0.70140359567E+01  0.00000000000E+00 0.  1.
</event>
<event>
 7    1  0.1096439E-011  0.5930192E+02  0.7816164E-02  0.1266605E+00
        -11   -1    0    0    0    0  0.00000000000E+00  0.00000000000E+00  0.45593999997E+02  0.45594000000E+02  0.51100000000E-03 0.  1.
         11   -1    0    0    0    0 -0.00000000000E+00 -0.00000000000E+00 -0.45593999997E+02  0.45594000000E+02  0.51100000000E-03 0. -1.
    9900012    2    1    2    0    0  0.15534852770E+02 -0.24449793767E+02 -0.13326587398E+02  0.59301921571E+02  0.49999959045E+02 0.  0.
        -12    1    1    2    0    0 -0.15534852770E+02  0.24449793767E+02  0.13326587398E+02  0.31886078429E+02  0.00000000000E+00 0.  1.
         11    1    3    3    0    0  0.17468378614E+02 -0.22961784221E+02 -0.45836820742E+00  0.28854772356E+02  0.51100000000E-03 0. -1.
        -11    1    3    3    0    0  0.80095248272E+01  0.97217394988E+01 -0.63582928583E+01  0.14110017547E+02  0.51100000000E-03 0.  1.
         12    1    3    3    0    0 -0.99430506712E+01 -0.11209749045E+02 -0.65099263325E+01  0.16337131669E+02  0.00000000000E+00 0. -1.
</event>
<event>
 7    1  0.1096439E-011  0.5930194E+02  0.7816164E-02  0.1266605E+00
        -11   -1    0    0    0    0  0.00000000000E+00  0.00000000000E+00  0.45593999997E+02  0.45594000000E+02  0.51100000000E-03 0. -1.
         11   -1    0    0    0    0 -0.00000000000E+00 -0.00000000000E+00 -0.45593999997E+02  0.45594000000E+02  0.51100000000E-03 0.  1.
    9900012    2    1    2    0    0  0.99470348269E+01  0.26856928129E+02 -0.14017238836E+02  0.59301936038E+02  0.49999985429E+02 0.  0.
        -12    1    1    2    0    0 -0.99470348269E+01 -0.26856928129E+02  0.14017238836E+02  0.31886063962E+02  0.00000000000E+00 0.  1.
         11    1    3    3    0    0  0.98965539157E+01  0.23287711509E+01  0.11786760670E+02  0.15565753494E+02  0.51100000000E-03 0. -1.
        -11    1    3    3    0    0  0.18833643847E+01  0.26944220343E+02 -0.11917291398E+02  0.29522193445E+02  0.51100000000E-03 0.  1.
         12    1    3    3    0    0 -0.18328834734E+01 -0.24160633650E+01 -0.13886708108E+02  0.14213989099E+02  0.00000000000E+00 0. -1.
</event>
<event>
 7    1  0.1096439E-011  0.5930196E+02  0.7816164E-02  0.1266605E+00
        -11   -1    0    0    0    0  0.00000000000E+00  0.00000000000E+00  0.45593999997E+02  0.45594000000E+02  0.51100000000E-03 0.  1.
         11   -1    0    0    0    0 -0.00000000000E+00 -0.00000000000E+00 -0.45593999997E+02  0.45594000000E+02  0.51100000000E-03 0. -1.
    9900012    2    1    2    0    0 -0.25506589064E+02 -0.12040564345E+01 -0.19096691568E+02  0.59301961262E+02  0.50000031431E+02 0.  0.
        -12    1    1    2    0    0  0.25506589064E+02  0.12040564345E+01  0.19096691568E+02  0.31886038738E+02  0.00000000000E+00 0.  1.
         11    1    3    3    0    0 -0.10392042255E+01 -0.17138366851E+02  0.81304032243E+01  0.18997553016E+02  0.51100000000E-03 0.  1.
        -11    1    3    3    0    0 -0.21858633538E+02  0.13104714992E+02 -0.21187471299E+02  0.33142757210E+02  0.51100000000E-03 0. -1.
        -12    1    3    3    0    0 -0.26087512998E+01  0.28295954244E+01 -0.60396234933E+01  0.71616510353E+01  0.00000000000E+00 0.  1.
</event>
<event>
 7    1  0.1096439E-011  0.5930190E+02  0.7816164E-02  0.1266605E+00
        -11   -1    0    0    0    0  0.00000000000E+00  0.00000000000E+00  0.45593999997E+02  0.45594000000E+02  0.51100000000E-03 0. -1.
         11   -1    0    0    0    0 -0.00000000000E+00 -0.00000000000E+00 -0.45593999997E+02  0.45594000000E+02  0.51100000000E-03 0.  1.
    9900012    2    1    2    0    0 -0.31129908715E+02 -0.44151500046E+00  0.68889124310E+01  0.59301901672E+02  0.49999922753E+02 0.  0.
        -12    1    1    2    0    0  0.31129908715E+02  0.44151500046E+00 -0.68889124310E+01  0.31886098328E+02  0.00000000000E+00 0.  1.
         11    1    3    3    0    0 -0.90773436702E+01  0.55967296034E+01  0.96583923256E+00  0.10707679302E+02  0.51100000000E-03 0. -1.
        -11    1    3    3    0    0  0.28909618836E+01 -0.18838740287E+02  0.75747871971E+01  0.20509344152E+02  0.51100000000E-03 0.  1.
        -12    1    3    3    0    0 -0.24943526929E+02  0.12800495683E+02 -0.16517139986E+01  0.28084878218E+02  0.00000000000E+00 0.  1.
</event>
<event>
 7    1  0.1096439E-011  0.5930195E+02  0.7816164E-02  0.1266605E+00
        -11   -1    0    0    0    0  0.00000000000E+00  0.00000000000E+00  0.45593999997E+02  0.45594000000E+02  0.51100000000E-03 0.  1.
         11   -1    0    0    0    0 -0.00000000000E+00 -0.00000000000E+00 -0.45593999997E+02  0.45594000000E+02  0.51100000000E-03 0. -1.
    9900012    2    1    2    0    0 -0.23911392402E+02  0.16632613612E+02  0.12973887694E+02  0.59301948440E+02  0.50000008048E+02 0.  0.
        -12    1    1    2    0    0  0.23911392402E+02 -0.16632613612E+02 -0.12973887694E+02  0.31886051560E+02  0.00000000000E+00 0.  1.
         11    1    3    3    0    0 -0.93519879454E+00  0.12946949420E+02  0.23192065676E+02  0.26577622291E+02  0.51100000000E-03 0. -1.
        -11    1    3    3    0    0 -0.24072775954E+02 -0.29045792954E+01 -0.93485064733E+01  0.25987106352E+02  0.51100000000E-03 0.  1.
         12    1    3    3    0    0  0.10965823468E+01  0.65902434873E+01 -0.86967150849E+00  0.67372197973E+01  0.00000000000E+00 0. -1.
</event>
<event>
 7    1  0.1096439E-011  0.5930192E+02  0.7816164E-02  0.1266605E+00
        -11   -1    0    0    0    0  0.00000000000E+00  0.00000000000E+00  0.45593999997E+02  0.45594000000E+02  0.51100000000E-03 0.  1.
         11   -1    0    0    0    0 -0.00000000000E+00 -0.00000000000E+00 -0.45593999997E+02  0.45594000000E+02  0.51100000000E-03 0. -1.
    9900012    2    1    2    0    0  0.24534452797E+02 -0.20262853241E+02  0.20492025475E+01  0.59301924252E+02  0.49999963933E+02 0.  0.
        -12    1    1    2    0    0 -0.24534452797E+02  0.20262853241E+02 -0.20492025475E+01  0.31886075748E+02  0.00000000000E+00 0.  1.
         11    1    3    3    0    0  0.47393746642E+01 -0.20048373304E+02  0.11602344390E+02  0.23643462943E+02  0.51100000000E-03 0. -1.
        -11    1    3    3    0    0  0.26579648661E+02  0.29157305484E+01 -0.87943527473E+01  0.28148176639E+02  0.51100000000E-03 0.  1.
        -12    1    3    3    0    0 -0.67845705279E+01 -0.31302104857E+01 -0.75878909497E+00  0.75102846699E+01  0.00000000000E+00 0.  1.
</event>
<event>
 7    1  0.1096439E-011  0.5930219E+02  0.7816164E-02  0.1266604E+00
        -11   -1    0    0    0    0  0.00000000000E+00  0.00000000000E+00  0.45593999997E+02  0.45594000000E+02  0.51100000000E-03 0.  1.
         11   -1    0    0    0    0 -0.00000000000E+00 -0.00000000000E+00 -0.45593999997E+02  0.45594000000E+02  0.51100000000E-03 0. -1.
    9900012    2    1    2    0    0 -0.19299732548E+02 -0.21886530177E+02 -0.12853218653E+02  0.59302186393E+02  0.50000442014E+02 0.  0.
        -12    1    1    2    0    0  0.19299732548E+02  0.21886530177E+02  0.12853218653E+02  0.31885813607E+02  0.00000000000E+00 0.  1.
         11    1    3    3    0    0  0.78508725378E+01 -0.23963782516E+01 -0.52359642576E+01  0.97362287513E+01  0.51100000000E-03 0. -1.
        -11    1    3    3    0    0 -0.28265365000E+02 -0.13341851034E+01 -0.12188462873E+02  0.30810218044E+02  0.51100000000E-03 0.  1.
         12    1    3    3    0    0  0.11147599139E+01 -0.18155966822E+02  0.45712084769E+01  0.18755739597E+02  0.00000000000E+00 0. -1.
</event>
<event>
 7    1  0.1096439E-011  0.5930187E+02  0.7816164E-02  0.1266605E+00
        -11   -1    0    0    0    0  0.00000000000E+00  0.00000000000E+00  0.45593999997E+02  0.45594000000E+02  0.51100000000E-03 0.  1.
         11   -1    0    0    0    0 -0.00000000000E+00 -0.00000000000E+00 -0.45593999997E+02  0.45594000000E+02  0.51100000000E-03 0. -1.
    9900012    2    1    2    0    0  0.13095448986E+02  0.28261527627E-02 -0.29072920604E+02  0.59301866579E+02  0.49999858751E+02 0.  0.
        -12    1    1    2    0    0 -0.13095448986E+02 -0.28261527627E-02  0.29072920604E+02  0.31886133421E+02  0.00000000000E+00 0.  1.
         11    1    3    3    0    0  0.27368407650E-01  0.19546310177E+02 -0.56118048984E+01  0.20335961867E+02  0.51100000000E-03 0. -1.
        -11    1    3    3    0    0  0.17174201568E+02 -0.18951179962E+02 -0.15277982615E+02  0.29791226469E+02  0.51100000000E-03 0.  1.
        -12    1    3    3    0    0 -0.41061209901E+01 -0.59230406178E+00 -0.81831330904E+01  0.91746782430E+01  0.00000000000E+00 0.  1.
</event>
<event>
 7    1  0.1096439E-011  0.5930194E+02  0.7816164E-02  0.1266605E+00
        -11   -1    0    0    0    0  0.00000000000E+00  0.00000000000E+00  0.45593999997E+02  0.45594000000E+02  0.51100000000E-03 0.  1.
         11   -1    0    0    0    0 -0.00000000000E+00 -0.00000000000E+00 -0.45593999997E+02  0.45594000000E+02  0.51100000000E-03 0. -1.
    9900012    2    1    2    0    0  0.12235191420E+02 -0.23494827349E+02 -0.17748633581E+02  0.59301940111E+02  0.49999992857E+02 0.  0.
        -12    1    1    2    0    0 -0.12235191420E+02  0.23494827349E+02  0.17748633581E+02  0.31886059889E+02  0.00000000000E+00 0.  1.
         11    1    3    3    0    0  0.78319581618E+01 -0.25470723352E+02 -0.15073546098E+02  0.30615504389E+02  0.51100000000E-03 0. -1.
        -11    1    3    3    0    0 -0.66021588208E+00  0.71677861376E+01 -0.13708267418E+02  0.15483205062E+02  0.51100000000E-03 0.  1.
        -12    1    3    3    0    0  0.50634491407E+01 -0.51918901345E+01  0.11033179936E+02  0.13203230660E+02  0.00000000000E+00 0.  1.
</event>
<event>
 7    1  0.1096439E-011  0.5930196E+02  0.7816164E-02  0.1266605E+00
        -11   -1    0    0    0    0  0.00000000000E+00  0.00000000000E+00  0.45593999997E+02  0.45594000000E+02  0.51100000000E-03 0.  1.
         11   -1    0    0    0    0 -0.00000000000E+00 -0.00000000000E+00 -0.45593999997E+02  0.45594000000E+02  0.51100000000E-03 0. -1.
    9900012    2    1    2    0    0 -0.21682230226E+02 -0.22413569918E+01 -0.23271796399E+02  0.59301963929E+02  0.50000036295E+02 0.  0.
        -12    1    1    2    0    0  0.21682230226E+02  0.22413569918E+01  0.23271796399E+02  0.31886036071E+02  0.00000000000E+00 0.  1.
         11    1    3    3    0    0 -0.32335236413E+01  0.72127481795E+01 -0.27642301594E+02  0.28750239114E+02  0.51100000000E-03 0. -1.
        -11    1    3    3    0    0 -0.22760150716E+02 -0.66496811103E+01  0.70697649312E+01  0.24743166651E+02  0.51100000000E-03 0.  1.
        -12    1    3    3    0    0  0.43114441318E+01 -0.28044240610E+01 -0.26992597360E+01  0.58085581634E+01  0.00000000000E+00 0.  1.
</event>
<event>
 7    1  0.1096439E-011  0.5930194E+02  0.7816164E-02  0.1266605E+00
        -11   -1    0    0    0    0  0.00000000000E+00  0.00000000000E+00  0.45593999997E+02  0.45594000000E+02  0.51100000000E-03 0. -1.
         11   -1    0    0    0    0 -0.00000000000E+00 -0.00000000000E+00 -0.45593999997E+02  0.45594000000E+02  0.51100000000E-03 0.  1.
    9900012    2    1    2    0    0 -0.23829309659E+02  0.20283142092E+02 -0.61220101305E+01  0.59301939409E+02  0.49999991577E+02 0.  0.
        -12    1    1    2    0    0  0.23829309659E+02 -0.20283142092E+02  0.61220101305E+01  0.31886060591E+02  0.00000000000E+00 0.  1.
         11    1    3    3    0    0 -0.24974190707E+02  0.33804017353E+00  0.10587445748E+02  0.27127817464E+02  0.51100000000E-03 0. -1.
        -11    1    3    3    0    0  0.71662527662E+01  0.51427516826E+01 -0.13097618989E+02  0.15790842188E+02  0.51100000000E-03 0.  1.
         12    1    3    3    0    0 -0.60213717180E+01  0.14802350236E+02 -0.36118368896E+01  0.16383279757E+02  0.00000000000E+00 0. -1.
</event>
<event>
 7    1  0.1096439E-011  0.5930202E+02  0.7816164E-02  0.1266604E+00
        -11   -1    0    0    0    0  0.00000000000E+00  0.00000000000E+00  0.45593999997E+02  0.45594000000E+02  0.51100000000E-03 0.  1.
         11   -1    0    0    0    0 -0.00000000000E+00 -0.00000000000E+00 -0.45593999997E+02  0.45594000000E+02  0.51100000000E-03 0. -1.
    9900012    2    1    2    0    0  0.59330626626E+01 -0.52958938864E-01 -0.31329087557E+02  0.59302019313E+02  0.50000137303E+02 0.  0.
        -12    1    1    2    0    0 -0.59330626626E+01  0.52958938864E-01  0.31329087557E+02  0.31885980687E+02  0.00000000000E+00 0.  1.
         11    1    3    3    0    0 -0.11379583031E+01 -0.85148516198E+01  0.98707547099E+01  0.13085466977E+02  0.51100000000E-03 0. -1.
        -11    1    3    3    0    0 -0.48935109118E+01 -0.13769105301E+01 -0.14282641560E+02  0.15160349001E+02  0.51100000000E-03 0.  1.
         12    1    3    3    0    0  0.11964531877E+02  0.98388032111E+01 -0.26917200707E+02  0.31056203335E+02  0.00000000000E+00 0. -1.
</event>
<event>
 7    1  0.1096439E-011  0.5930193E+02  0.7816164E-02  0.1266605E+00
        -11   -1    0    0    0    0  0.00000000000E+00  0.00000000000E+00  0.45593999997E+02  0.45594000000E+02  0.51100000000E-03 0. -1.
         11   -1    0    0    0    0 -0.00000000000E+00 -0.00000000000E+00 -0.45593999997E+02  0.45594000000E+02  0.51100000000E-03 0.  1.
    9900012    2    1    2    0    0 -0.27551779384E+02 -0.15912978810E+02  0.20971048181E+01  0.59301932659E+02  0.49999979266E+02 0.  0.
        -12    1    1    2    0    0  0.27551779384E+02  0.15912978810E+02 -0.20971048181E+01  0.31886067341E+02  0.00000000000E+00 0.  1.
         11    1    3    3    0    0 -0.94463489304E+01  0.15920160403E+01  0.30898792598E+01  0.10065553998E+02  0.51100000000E-03 0. -1.
        -11    1    3    3    0    0 -0.65858182371E+01 -0.21740248238E+01 -0.20644665662E+02  0.21778466575E+02  0.51100000000E-03 0.  1.
        -12    1    3    3    0    0 -0.11519612217E+02 -0.15330970027E+02  0.19651891220E+02  0.27457912086E+02  0.00000000000E+00 0.  1.
</event>
<event>
 7    1  0.1096439E-011  0.5930193E+02  0.7816164E-02  0.1266605E+00
        -11   -1    0    0    0    0  0.00000000000E+00  0.00000000000E+00  0.45593999997E+02  0.45594000000E+02  0.51100000000E-03 0. -1.
         11   -1    0    0    0    0 -0.00000000000E+00 -0.00000000000E+00 -0.45593999997E+02  0.45594000000E+02  0.51100000000E-03 0.  1.
    9900012    2    1    2    0    0  0.25134300672E+02  0.33329123455E+01  0.19335980487E+02  0.59301929117E+02  0.49999972807E+02 0.  0.
        -12    1    1    2    0    0 -0.25134300672E+02 -0.33329123455E+01 -0.19335980487E+02  0.31886070883E+02  0.00000000000E+00 0.  1.
         11    1    3    3    0    0 -0.13110904857E+01 -0.67244574595E+01  0.33722584390E+01  0.76360600853E+01  0.51100000000E-03 0. -1.
        -11    1    3    3    0    0  0.32638497279E+02  0.12358345254E+01  0.21935021033E+02  0.39343918712E+02  0.51100000000E-03 0.  1.
        -12    1    3    3    0    0 -0.61931061216E+01  0.88215352795E+01 -0.59712989855E+01  0.12321950320E+02  0.00000000000E+00 0.  1.
</event>
<event>
 7    1  0.1096439E-011  0.5930192E+02  0.7816164E-02  0.1266605E+00
        -11   -1    0    0    0    0  0.00000000000E+00  0.00000000000E+00  0.45593999997E+02  0.45594000000E+02  0.51100000000E-03 0.  1.
         11   -1    0    0    0    0 -0.00000000000E+00 -0.00000000000E+00 -0.45593999997E+02  0.45594000000E+02  0.51100000000E-03 0. -1.
    9900012    2    1    2    0    0 -0.20685293847E+02 -0.17470476840E+02 -0.16841124430E+02  0.59301915032E+02  0.49999947118E+02 0.  0.
        -12    1    1    2    0    0  0.20685293847E+02  0.17470476840E+02  0.16841124430E+02  0.31886084968E+02  0.00000000000E+00 0.  1.
         11    1    3    3    0    0  0.12536232497E+02 -0.90186085361E+01 -0.15386460785E+01  0.15519660343E+02  0.51100000000E-03 0. -1.
        -11    1    3    3    0    0 -0.10249106105E+02  0.77702726239E+01 -0.56652355379E+01  0.14054045914E+02  0.51100000000E-03 0.  1.
         12    1    3    3    0    0 -0.22972420239E+02 -0.16222140928E+02 -0.96372428132E+01  0.29728208775E+02  0.00000000000E+00 0. -1.
</event>
<event>
 7    1  0.1096439E-011  0.5930194E+02  0.7816164E-02  0.1266605E+00
        -11   -1    0    0    0    0  0.00000000000E+00  0.00000000000E+00  0.45593999997E+02  0.45594000000E+02  0.51100000000E-03 0. -1.
         11   -1    0    0    0    0 -0.00000000000E+00 -0.00000000000E+00 -0.45593999997E+02  0.45594000000E+02  0.51100000000E-03 0.  1.
    9900012    2    1    2    0    0  0.47108507263E+01 -0.11490168092E+02  0.29368426913E+02  0.59301943852E+02  0.49999999679E+02 0.  0.
        -12    1    1    2    0    0 -0.47108507263E+01  0.11490168092E+02 -0.29368426913E+02  0.31886056148E+02  0.00000000000E+00 0.  1.
         11    1    3    3    0    0 -0.10494648090E+02  0.13324046233E+02  0.14609748385E+02  0.22385544324E+02  0.51100000000E-03 0. -1.
        -11    1    3    3    0    0 -0.22654787505E+01 -0.85423109454E+01 -0.19916905724E-01  0.88376392324E+01  0.51100000000E-03 0.  1.
         12    1    3    3    0    0  0.17470977567E+02 -0.16271903379E+02  0.14778595434E+02  0.28078760295E+02  0.00000000000E+00 0. -1.
</event>
<event>
 7    1  0.1096439E-011  0.5930196E+02  0.7816164E-02  0.1266605E+00
        -11   -1    0    0    0    0  0.00000000000E+00  0.00000000000E+00  0.45593999997E+02  0.45594000000E+02  0.51100000000E-03 0.  1.
         11   -1    0    0    0    0 -0.00000000000E+00 -0.00000000000E+00 -0.45593999997E+02  0.45594000000E+02  0.51100000000E-03 0. -1.
    9900012    2    1    2    0    0  0.15122410607E+02  0.14906798237E+02 -0.23786964268E+02  0.59301959084E+02  0.50000027459E+02 0.  0.
        -12    1    1    2    0    0 -0.15122410607E+02 -0.14906798237E+02  0.23786964268E+02  0.31886040916E+02  0.00000000000E+00 0.  1.
         11    1    3    3    0    0  0.19302761146E+02  0.14460957559E+02 -0.20295284401E+02  0.31521650505E+02  0.51100000000E-03 0. -1.
        -11    1    3    3    0    0 -0.11029844285E+02 -0.28635605354E+01 -0.11876265289E+02  0.16459134891E+02  0.51100000000E-03 0.  1.
        -12    1    3    3    0    0  0.68494937466E+01  0.33094012128E+01  0.83845854222E+01  0.11321173688E+02  0.00000000000E+00 0.  1.
</event>
<event>
 7    1  0.1096439E-011  0.5930195E+02  0.7816164E-02  0.1266605E+00
        -11   -1    0    0    0    0  0.00000000000E+00  0.00000000000E+00  0.45593999997E+02  0.45594000000E+02  0.51100000000E-03 0.  1.
         11   -1    0    0    0    0 -0.00000000000E+00 -0.00000000000E+00 -0.45593999997E+02  0.45594000000E+02  0.51100000000E-03 0. -1.
    9900012    2    1    2    0    0 -0.24377553293E+01 -0.27076932524E+02 -0.16661852706E+02  0.59301948794E+02  0.50000008692E+02 0.  0.
        -12    1    1    2    0    0  0.24377553293E+01  0.27076932524E+02  0.16661852706E+02  0.31886051206E+02  0.00000000000E+00 0.  1.
         11    1    3    3    0    0  0.19498145651E+02 -0.16056339354E+02 -0.17952630439E+02  0.30988395525E+02  0.51100000000E-03 0. -1.
        -11    1    3    3    0    0 -0.23957104972E+02 -0.10684464582E+02  0.13122964003E+01  0.26264477610E+02  0.51100000000E-03 0.  1.
        -12    1    3    3    0    0  0.20212039915E+01 -0.33612858774E+00 -0.21518667637E-01  0.20490756589E+01  0.00000000000E+00 0.  1.
</event>
<event>
 7    1  0.1096439E-011  0.5930199E+02  0.7816164E-02  0.1266605E+00
        -11   -1    0    0    0    0  0.00000000000E+00  0.00000000000E+00  0.45593999997E+02  0.45594000000E+02  0.51100000000E-03 0. -1.
         11   -1    0    0    0    0 -0.00000000000E+00 -0.00000000000E+00 -0.45593999997E+02  0.45594000000E+02  0.51100000000E-03 0.  1.
    9900012    2    1    2    0    0 -0.13873306490E+02 -0.18114699102E+02  0.22273455647E+02  0.59301987659E+02  0.50000079573E+02 0.  0.
        -12    1    1    2    0    0  0.13873306490E+02  0.18114699102E+02 -0.22273455647E+02  0.31886012341E+02  0.00000000000E+00 0.  1.
         11    1    3    3    0    0 -0.28871282311E+02 -0.72199974536E+01  0.23641201006E+02  0.38007705676E+02  0.51100000000E-03 0. -1.
        -11    1    3    3    0    0  0.32803282132E+00  0.36736527993E+00 -0.27070529635E+01  0.27514902851E+01  0.51100000000E-03 0.  1.
         12    1    3    3    0    0  0.14669942999E+02 -0.11262066928E+02  0.13393076049E+01  0.18542791698E+02  0.00000000000E+00 0. -1.
</event>
<event>
 7    1  0.1096439E-011  0.5930194E+02  0.7816164E-02  0.1266605E+00
        -11   -1    0    0    0    0  0.00000000000E+00  0.00000000000E+00  0.45593999997E+02  0.45594000000E+02  0.51100000000E-03 0.  1.
         11   -1    0    0    0    0 -0.00000000000E+00 -0.00000000000E+00 -0.45593999997E+02  0.45594000000E+02  0.51100000000E-03 0. -1.
    9900012    2    1    2    0    0  0.18278143623E+02  0.41663512588E+01 -0.25792861707E+02  0.59301941414E+02  0.49999995234E+02 0.  0.
        -12    1    1    2    0    0 -0.18278143623E+02 -0.41663512588E+01  0.25792861707E+02  0.31886058586E+02  0.00000000000E+00 0.  1.
         11    1    3    3    0    0  0.33053948036E+02  0.63423443399E+01 -0.11145161420E+02  0.35454244257E+02  0.51100000000E-03 0. -1.
        -11    1    3    3    0    0 -0.13312800638E+02 -0.38139698794E+01 -0.16083381276E+02  0.21223858758E+02  0.51100000000E-03 0.  1.
        -12    1    3    3    0    0 -0.14630037763E+01  0.16379767982E+01  0.14356809890E+01  0.26238383988E+01  0.00000000000E+00 0.  1.
</event>
<event>
 7    1  0.1096439E-011  0.5930196E+02  0.7816164E-02  0.1266605E+00
        -11   -1    0    0    0    0  0.00000000000E+00  0.00000000000E+00  0.45593999997E+02  0.45594000000E+02  0.51100000000E-03 0.  1.
         11   -1    0    0    0    0 -0.00000000000E+00 -0.00000000000E+00 -0.45593999997E+02  0.45594000000E+02  0.51100000000E-03 0. -1.
    9900012    2    1    2    0    0 -0.40141599807E+01 -0.25383380066E+01 -0.31530353153E+02  0.59301955872E+02  0.50000021601E+02 0.  0.
        -12    1    1    2    0    0  0.40141599807E+01  0.25383380066E+01  0.31530353153E+02  0.31886044128E+02  0.00000000000E+00 0.  1.
         11    1    3    3    0    0  0.50665354901E+01 -0.11374526647E+02 -0.13215663957E+02  0.18157736984E+02  0.51100000000E-03 0. -1.
        -11    1    3    3    0    0 -0.84624270219E+01 -0.32213746083E+01  0.80695490126E+01  0.12128790005E+02  0.51100000000E-03 0.  1.
        -12    1    3    3    0    0 -0.61826844891E+00  0.12057563249E+02 -0.26384238209E+02  0.29015428882E+02  0.00000000000E+00 0.  1.
</event>
<event>
 7    1  0.1096439E-011  0.5930196E+02  0.7816164E-02  0.1266605E+00
        -11   -1    0    0    0    0  0.00000000000E+00  0.00000000000E+00  0.45593999997E+02  0.45594000000E+02  0.51100000000E-03 0.  1.
         11   -1    0    0    0    0 -0.00000000000E+00 -0.00000000000E+00 -0.45593999997E+02  0.45594000000E+02  0.51100000000E-03 0. -1.
    9900012    2    1    2    0    0  0.21647938432E+02 -0.94827901040E+01 -0.21404736444E+02  0.59301964048E+02  0.50000036512E+02 0.  0.
        -12    1    1    2    0    0 -0.21647938432E+02  0.94827901040E+01  0.21404736444E+02  0.31886035952E+02  0.00000000000E+00 0.  1.
         11    1    3    3    0    0  0.29418300913E+02 -0.46973808943E+00 -0.27745018780E+02  0.40440612630E+02  0.51100000000E-03 0. -1.
        -11    1    3    3    0    0 -0.83598216981E+01 -0.10840284491E+02  0.83876137037E+01  0.16054608391E+02  0.51100000000E-03 0.  1.
        -12    1    3    3    0    0  0.58945921659E+00  0.18272324765E+01 -0.20473313676E+01  0.28067430271E+01  0.00000000000E+00 0.  1.
</event>
<event>
 7    1  0.1096439E-011  0.5930193E+02  0.7816164E-02  0.1266605E+00
        -11   -1    0    0    0    0  0.00000000000E+00  0.00000000000E+00  0.45593999997E+02  0.45594000000E+02  0.51100000000E-03 0.  1.
         11   -1    0    0    0    0 -0.00000000000E+00 -0.00000000000E+00 -0.45593999997E+02  0.45594000000E+02  0.51100000000E-03 0. -1.
    9900012    2    1    2    0    0 -0.66467660518E+01 -0.17472317054E+02 -0.25831374378E+02  0.59301933068E+02  0.49999980011E+02 0.  0.
        -12    1    1    2    0    0  0.66467660518E+01  0.17472317054E+02  0.25831374378E+02  0.31886066932E+02  0.00000000000E+00 0.  1.
         11    1    3    3    0    0  0.12116262815E+01  0.73953287843E+00  0.23084217728E+00  0.14381361188E+01  0.51100000000E-03 0. -1.
        -11    1    3    3    0    0 -0.11893803071E+02 -0.23694359413E+01 -0.36503728018E+02  0.38465555211E+02  0.51100000000E-03 0.  1.
        -12    1    3    3    0    0  0.40354107376E+01 -0.15842413991E+02  0.10441511463E+02  0.19398241738E+02  0.00000000000E+00 0.  1.
</event>
<event>
 7    1  0.1096439E-011  0.5930196E+02  0.7816164E-02  0.1266605E+00
        -11   -1    0    0    0    0  0.00000000000E+00  0.00000000000E+00  0.45593999997E+02  0.45594000000E+02  0.51100000000E-03 0.  1.
         11   -1    0    0    0    0 -0.00000000000E+00 -0.00000000000E+00 -0.45593999997E+02  0.45594000000E+02  0.51100000000E-03 0. -1.
    9900012    2    1    2    0    0  0.20988237340E+02 -0.17408354192E+02  0.16527636184E+02  0.59301958223E+02  0.50000025890E+02 0.  0.
        -12    1    1    2    0    0 -0.20988237340E+02  0.17408354192E+02 -0.16527636184E+02  0.31886041777E+02  0.00000000000E+00 0.  1.
         11    1    3    3    0    0  0.13934347735E+02 -0.19516062328E+01 -0.90994901752E+01  0.16756358059E+02  0.51100000000E-03 0. -1.
        -11    1    3    3    0    0 -0.98243964976E+01  0.41703409810E+00  0.12537718238E+02  0.15933833903E+02  0.51100000000E-03 0.  1.
        -12    1    3    3    0    0  0.16878286103E+02 -0.15873782057E+02  0.13089408122E+02  0.26611766262E+02  0.00000000000E+00 0.  1.
</event>
<event>
 7    1  0.1096439E-011  0.5930195E+02  0.7816164E-02  0.1266605E+00
        -11   -1    0    0    0    0  0.00000000000E+00  0.00000000000E+00  0.45593999997E+02  0.45594000000E+02  0.51100000000E-03 0. -1.
         11   -1    0    0    0    0 -0.00000000000E+00 -0.00000000000E+00 -0.45593999997E+02  0.45594000000E+02  0.51100000000E-03 0.  1.
    9900012    2    1    2    0    0 -0.15161611123E+02 -0.44998207922E+01  0.27687493830E+02  0.59301950486E+02  0.50000011778E+02 0.  0.
        -12    1    1    2    0    0  0.15161611123E+02  0.44998207922E+01 -0.27687493830E+02  0.31886049514E+02  0.00000000000E+00 0.  1.
         11    1    3    3    0    0  0.10893983503E+01 -0.14544752567E+02  0.50934460261E+01  0.15449265636E+02  0.51100000000E-03 0. -1.
        -11    1    3    3    0    0 -0.16272100713E+02  0.14142560985E+02  0.69153181976E+00  0.21570153207E+02  0.51100000000E-03 0.  1.
        -12    1    3    3    0    0  0.21091239210E-01 -0.40976292105E+01  0.21902515984E+02  0.22282531643E+02  0.00000000000E+00 0.  1.
</event>
<event>
 7    1  0.1096439E-011  0.5930194E+02  0.7816164E-02  0.1266605E+00
        -11   -1    0    0    0    0  0.00000000000E+00  0.00000000000E+00  0.45593999997E+02  0.45594000000E+02  0.51100000000E-03 0. -1.
         11   -1    0    0    0    0 -0.00000000000E+00 -0.00000000000E+00 -0.45593999997E+02  0.45594000000E+02  0.51100000000E-03 0.  1.
    9900012    2    1    2    0    0  0.11607819208E+02 -0.16256964497E+02  0.24853382654E+02  0.59301937359E+02  0.49999987838E+02 0.  0.
        -12    1    1    2    0    0 -0.11607819208E+02  0.16256964497E+02 -0.24853382654E+02  0.31886062641E+02  0.00000000000E+00 0.  1.
         11    1    3    3    0    0  0.16641660475E+02 -0.17783214296E+02 -0.78498418600E+01  0.25589208498E+02  0.51100000000E-03 0.  1.
        -11    1    3    3    0    0 -0.11632192883E+01  0.14504851124E+01  0.25210457686E+02  0.25278927255E+02  0.51100000000E-03 0. -1.
        -12    1    3    3    0    0 -0.38706219793E+01  0.75764686545E-01  0.74927668281E+01  0.84338016064E+01  0.00000000000E+00 0.  1.
</event>
<event>
 7    1  0.1096439E-011  0.5930192E+02  0.7816164E-02  0.1266605E+00
        -11   -1    0    0    0    0  0.00000000000E+00  0.00000000000E+00  0.45593999997E+02  0.45594000000E+02  0.51100000000E-03 0.  1.
         11   -1    0    0    0    0 -0.00000000000E+00 -0.00000000000E+00 -0.45593999997E+02  0.45594000000E+02  0.51100000000E-03 0. -1.
    9900012    2    1    2    0    0 -0.80532852557E+01 -0.52531514639E+01 -0.30401823525E+02  0.59301923456E+02  0.49999962483E+02 0.  0.
        -12    1    1    2    0    0  0.80532852557E+01  0.52531514639E+01  0.30401823525E+02  0.31886076544E+02  0.00000000000E+00 0.  1.
         11    1    3    3    0    0 -0.11137868438E+02  0.50508616335E+01 -0.24027366611E+02  0.26960668818E+02  0.51100000000E-03 0. -1.
        -11    1    3    3    0    0  0.60069002811E+01 -0.91006459496E+01  0.10521195902E+02  0.15152563188E+02  0.51100000000E-03 0.  1.
        -12    1    3    3    0    0 -0.29223170987E+01 -0.12033671477E+01 -0.16895652816E+02  0.17188691451E+02  0.00000000000E+00 0.  1.
</event>
<event>
 7    1  0.1096439E-011  0.5930208E+02  0.7816164E-02  0.1266604E+00
        -11   -1    0    0    0    0  0.00000000000E+00  0.00000000000E+00  0.45593999997E+02  0.45594000000E+02  0.51100000000E-03 0.  1.
         11   -1    0    0    0    0 -0.00000000000E+00 -0.00000000000E+00 -0.45593999997E+02  0.45594000000E+02  0.51100000000E-03 0. -1.
    9900012    2    1    2    0    0  0.12131366308E+02  0.28744395436E+02  0.65803845793E+01  0.59302081812E+02  0.50000251285E+02 0.  0.
        -12    1    1    2    0    0 -0.12131366308E+02 -0.28744395436E+02 -0.65803845793E+01  0.31885918188E+02  0.00000000000E+00 0.  1.
         11    1    3    3    0    0  0.58458581243E+01  0.76709348574E+01  0.91448640810E+00  0.96878059667E+01  0.51100000000E-03 0. -1.
        -11    1    3    3    0    0 -0.44667398142E+01  0.29254046697E+02 -0.77325277875E+01  0.30586647396E+02  0.51100000000E-03 0.  1.
        -12    1    3    3    0    0  0.10752247998E+02 -0.81805861182E+01  0.13398425959E+02  0.19027628449E+02  0.00000000000E+00 0.  1.
</event>
<event>
 7    1  0.1096439E-011  0.5930193E+02  0.7816164E-02  0.1266605E+00
        -11   -1    0    0    0    0  0.00000000000E+00  0.00000000000E+00  0.45593999997E+02  0.45594000000E+02  0.51100000000E-03 0.  1.
         11   -1    0    0    0    0 -0.00000000000E+00 -0.00000000000E+00 -0.45593999997E+02  0.45594000000E+02  0.51100000000E-03 0. -1.
    9900012    2    1    2    0    0 -0.11676589648E+02  0.19391035825E+02 -0.22458107942E+02  0.59301927358E+02  0.49999969599E+02 0.  0.
        -12    1    1    2    0    0  0.11676589648E+02 -0.19391035825E+02  0.22458107942E+02  0.31886072642E+02  0.00000000000E+00 0.  1.
         11    1    3    3    0    0 -0.53260829009E+01 -0.13869520362E+01 -0.11703554245E+01  0.56267687973E+01  0.51100000000E-03 0. -1.
        -11    1    3    3    0    0  0.12000572098E+01  0.18337767698E+02  0.10326945021E+02  0.21079840018E+02  0.51100000000E-03 0.  1.
        -12    1    3    3    0    0 -0.75505639571E+01  0.24402201638E+01 -0.31614697538E+02  0.32595318543E+02  0.00000000000E+00 0.  1.
</event>
<event>
 7    1  0.1096439E-011  0.5930195E+02  0.7816164E-02  0.1266605E+00
        -11   -1    0    0    0    0  0.00000000000E+00  0.00000000000E+00  0.45593999997E+02  0.45594000000E+02  0.51100000000E-03 0. -1.
         11   -1    0    0    0    0 -0.00000000000E+00 -0.00000000000E+00 -0.45593999997E+02  0.45594000000E+02  0.51100000000E-03 0.  1.
    9900012    2    1    2    0    0 -0.48156094036E+01  0.24258256944E+02  0.20126279450E+02  0.59301949000E+02  0.50000009068E+02 0.  0.
        -12    1    1    2    0    0  0.48156094036E+01 -0.24258256944E+02 -0.20126279450E+02  0.31886051000E+02  0.00000000000E+00 0.  1.
         11    1    3    3    0    0  0.12416578114E+02 -0.39780017573E+01  0.77829923644E+01  0.15184560594E+02  0.51100000000E-03 0. -1.
        -11    1    3    3    0    0 -0.13408677557E+01  0.21155824213E+02 -0.23729516142E+01  0.21330675659E+02  0.51100000000E-03 0.  1.
         12    1    3    3    0    0 -0.15891319762E+02  0.70804344887E+01  0.14716238700E+02  0.22786712746E+02  0.00000000000E+00 0. -1.
</event>
<event>
 7    1  0.1096439E-011  0.5930211E+02  0.7816164E-02  0.1266604E+00
        -11   -1    0    0    0    0  0.00000000000E+00  0.00000000000E+00  0.45593999997E+02  0.45594000000E+02  0.51100000000E-03 0.  1.
         11   -1    0    0    0    0 -0.00000000000E+00 -0.00000000000E+00 -0.45593999997E+02  0.45594000000E+02  0.51100000000E-03 0. -1.
    9900012    2    1    2    0    0  0.18899049767E+02  0.55791594198E+01 -0.25068087732E+02  0.59302107752E+02  0.50000298592E+02 0.  0.
        -12    1    1    2    0    0 -0.18899049767E+02 -0.55791594198E+01  0.25068087732E+02  0.31885892248E+02  0.00000000000E+00 0.  1.
         11    1    3    3    0    0  0.19689685757E+02  0.14215267504E+01 -0.39401736871E+01  0.20130311286E+02  0.51100000000E-03 0. -1.
        -11    1    3    3    0    0 -0.98544835822E+01  0.94177121235E+01 -0.24606652508E+02  0.28129903950E+02  0.51100000000E-03 0.  1.
        -12    1    3    3    0    0  0.90638475925E+01 -0.52600794541E+01  0.34787384632E+01  0.11041892516E+02  0.00000000000E+00 0.  1.
</event>
<event>
 7    1  0.1096439E-011  0.5930198E+02  0.7816164E-02  0.1266605E+00
        -11   -1    0    0    0    0  0.00000000000E+00  0.00000000000E+00  0.45593999997E+02  0.45594000000E+02  0.51100000000E-03 0.  1.
         11   -1    0    0    0    0 -0.00000000000E+00 -0.00000000000E+00 -0.45593999997E+02  0.45594000000E+02  0.51100000000E-03 0. -1.
    9900012    2    1    2    0    0  0.30023991757E+02 -0.56196038092E+01 -0.91486898910E+01  0.59301975557E+02  0.50000057503E+02 0.  0.
        -12    1    1    2    0    0 -0.30023991757E+02  0.56196038092E+01  0.91486898910E+01  0.31886024443E+02  0.00000000000E+00 0.  1.
         11    1    3    3    0    0 -0.37609608619E+01 -0.13029616121E+02 -0.17354061143E+02  0.22024512736E+02  0.51100000000E-03 0. -1.
        -11    1    3    3    0    0  0.29309514787E+02  0.61097098577E+01  0.10937884591E+02  0.31874967156E+02  0.51100000000E-03 0.  1.
        -12    1    3    3    0    0  0.44754378325E+01  0.13003024537E+01 -0.27325133395E+01  0.54024956654E+01  0.00000000000E+00 0.  1.
</event>
<event>
 7    1  0.1096439E-011  0.5930194E+02  0.7816164E-02  0.1266605E+00
        -11   -1    0    0    0    0  0.00000000000E+00  0.00000000000E+00  0.45593999997E+02  0.45594000000E+02  0.51100000000E-03 0.  1.
         11   -1    0    0    0    0 -0.00000000000E+00 -0.00000000000E+00 -0.45593999997E+02  0.45594000000E+02  0.51100000000E-03 0. -1.
    9900012    2    1    2    0    0  0.93455910226E+01  0.29659019738E+02 -0.70514939084E+01  0.59301935807E+02  0.49999985007E+02 0.  0.
        -12    1    1    2    0    0 -0.93455910226E+01 -0.29659019738E+02  0.70514939084E+01  0.31886064193E+02  0.00000000000E+00 0.  1.
         11    1    3    3    0    0  0.20351209605E+02  0.15852497698E+02 -0.13165310225E+02  0.28962023570E+02  0.51100000000E-03 0. -1.
        -11    1    3    3    0    0 -0.15186985196E+02  0.18159557173E+02  0.45784820568E+01  0.24111750959E+02  0.51100000000E-03 0.  1.
         12    1    3    3    0    0  0.41813666134E+01 -0.43530351331E+01  0.15353342598E+01  0.62281612788E+01  0.00000000000E+00 0. -1.
</event>
<event>
 7    1  0.1096439E-011  0.5930195E+02  0.7816164E-02  0.1266605E+00
        -11   -1    0    0    0    0  0.00000000000E+00  0.00000000000E+00  0.45593999997E+02  0.45594000000E+02  0.51100000000E-03 0. -1.
         11   -1    0    0    0    0 -0.00000000000E+00 -0.00000000000E+00 -0.45593999997E+02  0.45594000000E+02  0.51100000000E-03 0.  1.
    9900012    2    1    2    0    0 -0.19753137925E+02 -0.12125647675E+01  0.25001269775E+02  0.59301948793E+02  0.50000008692E+02 0.  0.
        -12    1    1    2    0    0  0.19753137925E+02  0.12125647675E+01 -0.25001269775E+02  0.31886051207E+02  0.00000000000E+00 0.  1.
         11    1    3    3    0    0  0.83128559504E+01 -0.49734000100E+01  0.10053996251E+02  0.13961415494E+02  0.51100000000E-03 0. -1.
        -11    1    3    3    0    0 -0.20625281086E+02  0.17574056147E+02  0.88125534145E+01  0.28494047927E+02  0.51100000000E-03 0.  1.
        -12    1    3    3    0    0 -0.74407127892E+01 -0.13813220905E+02  0.61347201092E+01  0.16846485372E+02  0.00000000000E+00 0.  1.
</event>
<event>
 7    1  0.1096439E-011  0.5930196E+02  0.7816164E-02  0.1266605E+00
        -11   -1    0    0    0    0  0.00000000000E+00  0.00000000000E+00  0.45593999997E+02  0.45594000000E+02  0.51100000000E-03 0. -1.
         11   -1    0    0    0    0 -0.00000000000E+00 -0.00000000000E+00 -0.45593999997E+02  0.45594000000E+02  0.51100000000E-03 0.  1.
    9900012    2    1    2    0    0 -0.19828831051E+02  0.15780209250E+02  0.19352577575E+02  0.59301955974E+02  0.50000021787E+02 0.  0.
        -12    1    1    2    0    0  0.19828831051E+02 -0.15780209250E+02 -0.19352577575E+02  0.31886044026E+02  0.00000000000E+00 0.  1.
         11    1    3    3    0    0 -0.23325592299E+02  0.37331622441E+01  0.17348581703E+02  0.29308583108E+02  0.51100000000E-03 0. -1.
        -11    1    3    3    0    0  0.14508275479E+02  0.18892854821E+01  0.31585983212E+01  0.14967838877E+02  0.51100000000E-03 0.  1.
         12    1    3    3    0    0 -0.11011514232E+02  0.10157761524E+02 -0.11546024494E+01  0.15025533990E+02  0.00000000000E+00 0. -1.
</event>
<event>
 7    1  0.1096439E-011  0.5930210E+02  0.7816164E-02  0.1266604E+00
        -11   -1    0    0    0    0  0.00000000000E+00  0.00000000000E+00  0.45593999997E+02  0.45594000000E+02  0.51100000000E-03 0. -1.
         11   -1    0    0    0    0 -0.00000000000E+00 -0.00000000000E+00 -0.45593999997E+02  0.45594000000E+02  0.51100000000E-03 0.  1.
    9900012    2    1    2    0    0  0.50351091670E-01 -0.19868306779E+02  0.24939090371E+02  0.59302103776E+02  0.50000291341E+02 0.  0.
        -12    1    1    2    0    0 -0.50351091670E-01  0.19868306779E+02 -0.24939090371E+02  0.31885896224E+02  0.00000000000E+00 0.  1.
         11    1    3    3    0    0  0.25789946504E+01 -0.12807217847E+02  0.10958956095E+02  0.17052118969E+02  0.51100000000E-03 0. -1.
        -11    1    3    3    0    0 -0.11987291558E+01  0.59644604432E+01 -0.11833406530E+02  0.13305684888E+02  0.51100000000E-03 0.  1.
        -12    1    3    3    0    0 -0.13299144030E+01 -0.13025549375E+02  0.25813540806E+02  0.28944299919E+02  0.00000000000E+00 0.  1.
</event>
<event>
 7    1  0.1096439E-011  0.5930164E+02  0.7816164E-02  0.1266606E+00
        -11   -1    0    0    0    0  0.00000000000E+00  0.00000000000E+00  0.45593999997E+02  0.45594000000E+02  0.51100000000E-03 0.  1.
         11   -1    0    0    0    0 -0.00000000000E+00 -0.00000000000E+00 -0.45593999997E+02  0.45594000000E+02  0.51100000000E-03 0. -1.
    9900012    2    1    2    0    0  0.22438396911E+02 -0.34339137227E+01 -0.22393446777E+02  0.59301641194E+02  0.49999447700E+02 0.  0.
        -12    1    1    2    0    0 -0.22438396911E+02  0.34339137227E+01  0.22393446777E+02  0.31886358806E+02  0.00000000000E+00 0.  1.
         11    1    3    3    0    0  0.14553979218E+02  0.15446633455E+02 -0.24901188783E+02  0.32718282339E+02  0.51100000000E-03 0. -1.
        -11    1    3    3    0    0  0.10366314659E+02 -0.39325716152E+01  0.27719356572E+01  0.11428439380E+02  0.51100000000E-03 0.  1.
         12    1    3    3    0    0 -0.24818969666E+01 -0.14947975563E+02 -0.26419365122E+00  0.15154919474E+02  0.00000000000E+00 0. -1.
</event>
<event>
 7    1  0.1096439E-011  0.5930197E+02  0.7816164E-02  0.1266605E+00
        -11   -1    0    0    0    0  0.00000000000E+00  0.00000000000E+00  0.45593999997E+02  0.45594000000E+02  0.51100000000E-03 0.  1.
         11   -1    0    0    0    0 -0.00000000000E+00 -0.00000000000E+00 -0.45593999997E+02  0.45594000000E+02  0.51100000000E-03 0. -1.
    9900012    2    1    2    0    0  0.17097639935E+02 -0.10903769482E+02 -0.24606856152E+02  0.59301970928E+02  0.50000049060E+02 0.  0.
        -12    1    1    2    0    0 -0.17097639935E+02  0.10903769482E+02  0.24606856152E+02  0.31886029072E+02  0.00000000000E+00 0.  1.
         11    1    3    3    0    0 -0.96107391812E+01 -0.14732724309E+02 -0.16084833557E+02  0.23835715722E+02  0.51100000000E-03 0. -1.
        -11    1    3    3    0    0  0.25510368281E+02 -0.29826212473E+01 -0.16821779354E+01  0.25739165530E+02  0.51100000000E-03 0.  1.
         12    1    3    3    0    0  0.11980108356E+01  0.68115760746E+01 -0.68398446603E+01  0.97270896757E+01  0.00000000000E+00 0. -1.
</event>
<event>
 7    1  0.1096439E-011  0.5930201E+02  0.7816164E-02  0.1266605E+00
        -11   -1    0    0    0    0  0.00000000000E+00  0.00000000000E+00  0.45593999997E+02  0.45594000000E+02  0.51100000000E-03 0. -1.
         11   -1    0    0    0    0 -0.00000000000E+00 -0.00000000000E+00 -0.45593999997E+02  0.45594000000E+02  0.51100000000E-03 0.  1.
    9900012    2    1    2    0    0  0.18229662206E+02 -0.25928471528E+02  0.34799993728E+01  0.59302005965E+02  0.50000112959E+02 0.  0.
        -12    1    1    2    0    0 -0.18229662206E+02  0.25928471528E+02 -0.34799993728E+01  0.31885994035E+02  0.00000000000E+00 0.  1.
         11    1    3    3    0    0  0.31850420757E+02 -0.90802644102E+01  0.88943262224E+01  0.34292995544E+02  0.51100000000E-03 0. -1.
        -11    1    3    3    0    0 -0.39203721353E+01 -0.11720103285E+02 -0.65343149272E+01  0.13979535419E+02  0.51100000000E-03 0.  1.
         12    1    3    3    0    0 -0.97003864158E+01 -0.51281038331E+01  0.11199880776E+01  0.11029475003E+02  0.00000000000E+00 0. -1.
</event>
<event>
 7    1  0.1096439E-011  0.5930195E+02  0.7816164E-02  0.1266605E+00
        -11   -1    0    0    0    0  0.00000000000E+00  0.00000000000E+00  0.45593999997E+02  0.45594000000E+02  0.51100000000E-03 0.  1.
         11   -1    0    0    0    0 -0.00000000000E+00 -0.00000000000E+00 -0.45593999997E+02  0.45594000000E+02  0.51100000000E-03 0. -1.
    9900012    2    1    2    0    0 -0.10016587395E+02  0.26079383472E+02 -0.15370559757E+02  0.59301947053E+02  0.50000005517E+02 0.  0.
        -12    1    1    2    0    0  0.10016587395E+02 -0.26079383472E+02  0.15370559757E+02  0.31886052947E+02  0.00000000000E+00 0.  1.
         11    1    3    3    0    0 -0.15885462086E+02  0.36292640233E+02 -0.12748953651E+02  0.41617778175E+02  0.51100000000E-03 0. -1.
        -11    1    3    3    0    0 -0.16150186557E+01 -0.96116955140E+01 -0.29069732459E+01  0.10170716279E+02  0.51100000000E-03 0.  1.
        -12    1    3    3    0    0  0.74838933459E+01 -0.60156124750E+00  0.28536714022E+00  0.75134525987E+01  0.00000000000E+00 0.  1.
</event>
<event>
 7    1  0.1096439E-011  0.5930193E+02  0.7816164E-02  0.1266605E+00
        -11   -1    0    0    0    0  0.00000000000E+00  0.00000000000E+00  0.45593999997E+02  0.45594000000E+02  0.51100000000E-03 0.  1.
         11   -1    0    0    0    0 -0.00000000000E+00 -0.00000000000E+00 -0.45593999997E+02  0.45594000000E+02  0.51100000000E-03 0. -1.
    9900012    2    1    2    0    0 -0.54736323039E+01 -0.29724358685E+02 -0.10159895383E+02  0.59301927429E+02  0.49999969728E+02 0.  0.
        -12    1    1    2    0    0  0.54736323039E+01  0.29724358685E+02  0.10159895383E+02  0.31886072571E+02  0.00000000000E+00 0.  1.
         11    1    3    3    0    0  0.23447948904E+01 -0.31398311677E+02 -0.19880077377E+02  0.37236668970E+02  0.51100000000E-03 0. -1.
        -11    1    3    3    0    0 -0.63787623411E+00 -0.21623635808E+01  0.13069191139E+02  0.13262219257E+02  0.51100000000E-03 0.  1.
         12    1    3    3    0    0 -0.71805509601E+01  0.38363165727E+01 -0.33490091447E+01  0.88030392018E+01  0.00000000000E+00 0. -1.
</event>
<event>
 7    1  0.1096439E-011  0.5930193E+02  0.7816164E-02  0.1266605E+00
        -11   -1    0    0    0    0  0.00000000000E+00  0.00000000000E+00  0.45593999997E+02  0.45594000000E+02  0.51100000000E-03 0. -1.
         11   -1    0    0    0    0 -0.00000000000E+00 -0.00000000000E+00 -0.45593999997E+02  0.45594000000E+02  0.51100000000E-03 0.  1.
    9900012    2    1    2    0    0 -0.11124964712E+02  0.13407755493E+02  0.26705590886E+02  0.59301932011E+02  0.49999978085E+02 0.  0.
        -12    1    1    2    0    0  0.11124964712E+02 -0.13407755493E+02 -0.26705590886E+02  0.31886067989E+02  0.00000000000E+00 0.  1.
         11    1    3    3    0    0 -0.42484824386E+01 -0.10471791350E+02 -0.43687670848E+01  0.12115863288E+02  0.51100000000E-03 0.  1.
        -11    1    3    3    0    0 -0.86846426096E+01  0.18913116952E+02  0.61412773957E+01  0.21698946943E+02  0.51100000000E-03 0. -1.
         12    1    3    3    0    0  0.18081603362E+01  0.49664298911E+01  0.24933080575E+02  0.25487121780E+02  0.00000000000E+00 0. -1.
</event>
<event>
 7    1  0.1096439E-011  0.5930199E+02  0.7816164E-02  0.1266605E+00
        -11   -1    0    0    0    0  0.00000000000E+00  0.00000000000E+00  0.45593999997E+02  0.45594000000E+02  0.51100000000E-03 0.  1.
         11   -1    0    0    0    0 -0.00000000000E+00 -0.00000000000E+00 -0.45593999997E+02  0.45594000000E+02  0.51100000000E-03 0. -1.
    9900012    2    1    2    0    0 -0.21385459339E+02 -0.23792609813E+01 -0.23531231696E+02  0.59301990229E+02  0.50000084261E+02 0.  0.
        -12    1    1    2    0    0  0.21385459339E+02  0.23792609813E+01  0.23531231696E+02  0.31886009771E+02  0.00000000000E+00 0.  1.
         11    1    3    3    0    0 -0.11278524829E+02 -0.10776833695E+02 -0.34054501328E+02  0.37457366802E+02  0.51100000000E-03 0. -1.
        -11    1    3    3    0    0 -0.99780724409E+01  0.24258709630E+00  0.92148450564E+01  0.13584334647E+02  0.51100000000E-03 0.  1.
         12    1    3    3    0    0 -0.12886206890E+00  0.81549856175E+01  0.13084245756E+01  0.82602887797E+01  0.00000000000E+00 0. -1.
</event>
<event>
 7    1  0.1338534E-011  0.5930194E+02  0.7816164E-02  0.1266605E+00
        -11   -1    0    0    0    0  0.00000000000E+00  0.00000000000E+00  0.45593999997E+02  0.45594000000E+02  0.51100000000E-03 0. -1.
         11   -1    0    0    0    0 -0.00000000000E+00 -0.00000000000E+00 -0.45593999997E+02  0.45594000000E+02  0.51100000000E-03 0.  1.
    9900012    2    1    2    0    0 -0.18716685781E+02 -0.16080257842E+02  0.20194839328E+02  0.59301944201E+02  0.50000000317E+02 0.  0.
        -12    1    1    2    0    0  0.18716685781E+02  0.16080257842E+02 -0.20194839328E+02  0.31886055799E+02  0.00000000000E+00 0.  1.
         11    1    3    3    0    0 -0.67270950295E+01 -0.33300684502E+00  0.24204021040E+02  0.25123680778E+02  0.51100000000E-03 0. -1.
        -11    1    3    3    0    0 -0.20288283301E+02 -0.85436227344E+01 -0.64138337564E+01  0.22929134140E+02  0.51100000000E-03 0.  1.
        -12    1    3    3    0    0  0.82986925487E+01 -0.72036282624E+01  0.24046520446E+01  0.11249129283E+02  0.00000000000E+00 0.  1.
</event>
<event>
 7    1  0.1096439E-011  0.5930195E+02  0.7816164E-02  0.1266605E+00
        -11   -1    0    0    0    0  0.00000000000E+00  0.00000000000E+00  0.45593999997E+02  0.45594000000E+02  0.51100000000E-03 0. -1.
         11   -1    0    0    0    0 -0.00000000000E+00 -0.00000000000E+00 -0.45593999997E+02  0.45594000000E+02  0.51100000000E-03 0.  1.
    9900012    2    1    2    0    0  0.13498886976E+02 -0.13782728828E+02  0.25387723976E+02  0.59301951448E+02  0.50000013533E+02 0.  0.
        -12    1    1    2    0    0 -0.13498886976E+02  0.13782728828E+02 -0.25387723976E+02  0.31886048552E+02  0.00000000000E+00 0.  1.
         11    1    3    3    0    0  0.19952594996E+02  0.12862079473E+01  0.28892450629E+02  0.35135937180E+02  0.51100000000E-03 0. -1.
        -11    1    3    3    0    0  0.14267124874E+01 -0.15892698715E+02 -0.17651871533E+01  0.16053948639E+02  0.51100000000E-03 0.  1.
         12    1    3    3    0    0 -0.78804205067E+01  0.82376193934E+00 -0.17395394991E+01  0.81120656287E+01  0.00000000000E+00 0. -1.
</event>
<event>
 7    1  0.1096439E-011  0.5930195E+02  0.7816164E-02  0.1266605E+00
        -11   -1    0    0    0    0  0.00000000000E+00  0.00000000000E+00  0.45593999997E+02  0.45594000000E+02  0.51100000000E-03 0. -1.
         11   -1    0    0    0    0 -0.00000000000E+00 -0.00000000000E+00 -0.45593999997E+02  0.45594000000E+02  0.51100000000E-03 0.  1.
    9900012    2    1    2    0    0 -0.79798712762E+01 -0.21159814221E+02 -0.22478966751E+02  0.59301952429E+02  0.50000015323E+02 0.  0.
        -12    1    1    2    0    0  0.79798712762E+01  0.21159814221E+02  0.22478966751E+02  0.31886047571E+02  0.00000000000E+00 0.  1.
         11    1    3    3    0    0 -0.11273402692E+02 -0.10673861967E+02  0.93002311556E+01  0.18097382058E+02  0.51100000000E-03 0. -1.
        -11    1    3    3    0    0  0.38108533495E+01 -0.10792533792E+02 -0.35570132423E+02  0.37366237565E+02  0.51100000000E-03 0.  1.
         12    1    3    3    0    0 -0.51732193407E+00  0.30658153787E+00  0.37909345165E+01  0.38383328062E+01  0.00000000000E+00 0. -1.
</event>
<event>
 7    1  0.1096439E-011  0.5930195E+02  0.7816164E-02  0.1266605E+00
        -11   -1    0    0    0    0  0.00000000000E+00  0.00000000000E+00  0.45593999997E+02  0.45594000000E+02  0.51100000000E-03 0.  1.
         11   -1    0    0    0    0 -0.00000000000E+00 -0.00000000000E+00 -0.45593999997E+02  0.45594000000E+02  0.51100000000E-03 0. -1.
    9900012    2    1    2    0    0  0.14019478676E+02  0.20928238482E+02 -0.19549502402E+02  0.59301953013E+02  0.50000016387E+02 0.  0.
        -12    1    1    2    0    0 -0.14019478676E+02 -0.20928238482E+02  0.19549502402E+02  0.31886046987E+02  0.00000000000E+00 0.  1.
         11    1    3    3    0    0 -0.78190265250E+01 -0.30401230364E+01 -0.73473853865E+01  0.11151842725E+02  0.51100000000E-03 0.  1.
        -11    1    3    3    0    0  0.28293601897E+02  0.11595072090E+02 -0.14773628948E+02  0.33959295011E+02  0.51100000000E-03 0. -1.
        -12    1    3    3    0    0 -0.64550966957E+01  0.12373289428E+02  0.25715119331E+01  0.14190815277E+02  0.00000000000E+00 0.  1.
</event>
<event>
 7    1  0.1096439E-011  0.5930194E+02  0.7816164E-02  0.1266605E+00
        -11   -1    0    0    0    0  0.00000000000E+00  0.00000000000E+00  0.45593999997E+02  0.45594000000E+02  0.51100000000E-03 0. -1.
         11   -1    0    0    0    0 -0.00000000000E+00 -0.00000000000E+00 -0.45593999997E+02  0.45594000000E+02  0.51100000000E-03 0.  1.
    9900012    2    1    2    0    0 -0.83706816289E+01  0.23711224275E+02  0.19606890698E+02  0.59301943009E+02  0.49999998143E+02 0.  0.
        -12    1    1    2    0    0  0.83706816289E+01 -0.23711224275E+02 -0.19606890698E+02  0.31886056991E+02  0.00000000000E+00 0.  1.
         11    1    3    3    0    0  0.11669163361E+02  0.19913103147E+02  0.11404205117E+02  0.25744066212E+02  0.51100000000E-03 0. -1.
        -11    1    3    3    0    0 -0.20677404774E+02  0.85218655477E+01  0.13742677813E+02  0.26249541983E+02  0.51100000000E-03 0.  1.
         12    1    3    3    0    0  0.63755978383E+00 -0.47237444201E+01 -0.55399922321E+01  0.73083348142E+01  0.00000000000E+00 0. -1.
</event>
<event>
 7    1  0.1096439E-011  0.5930196E+02  0.7816164E-02  0.1266605E+00
        -11   -1    0    0    0    0  0.00000000000E+00  0.00000000000E+00  0.45593999997E+02  0.45594000000E+02  0.51100000000E-03 0. -1.
         11   -1    0    0    0    0 -0.00000000000E+00 -0.00000000000E+00 -0.45593999997E+02  0.45594000000E+02  0.51100000000E-03 0.  1.
    9900012    2    1    2    0    0  0.57807490963E+01  0.14247032761E+02  0.27934285706E+02  0.59301963549E+02  0.50000035603E+02 0.  0.
        -12    1    1    2    0    0 -0.57807490963E+01 -0.14247032761E+02 -0.27934285706E+02  0.31886036451E+02  0.00000000000E+00 0.  1.
         11    1    3    3    0    0 -0.13863720064E+01  0.22384384678E+02  0.18811267653E+02  0.29271940417E+02  0.51100000000E-03 0. -1.
        -11    1    3    3    0    0  0.12867611100E+02 -0.50036465530E+01  0.15612595817E+02  0.20841426119E+02  0.51100000000E-03 0.  1.
         12    1    3    3    0    0 -0.57004899973E+01 -0.31337053645E+01 -0.64895777643E+01  0.91885970136E+01  0.00000000000E+00 0. -1.
</event>
<event>
 7    1  0.1096439E-011  0.5930195E+02  0.7816164E-02  0.1266605E+00
        -11   -1    0    0    0    0  0.00000000000E+00  0.00000000000E+00  0.45593999997E+02  0.45594000000E+02  0.51100000000E-03 0.  1.
         11   -1    0    0    0    0 -0.00000000000E+00 -0.00000000000E+00 -0.45593999997E+02  0.45594000000E+02  0.51100000000E-03 0. -1.
    9900012    2    1    2    0    0 -0.12986631580E+02  0.27309076385E+02  0.10113445244E+02  0.59301952464E+02  0.50000015385E+02 0.  0.
        -12    1    1    2    0    0  0.12986631580E+02 -0.27309076385E+02 -0.10113445244E+02  0.31886047536E+02  0.00000000000E+00 0.  1.
         11    1    3    3    0    0 -0.13737812217E+02 -0.10989443318E+02  0.17274604004E+01  0.17677088806E+02  0.51100000000E-03 0. -1.
        -11    1    3    3    0    0  0.70941346849E+01  0.18703105253E+02  0.60395758344E+01  0.20895199677E+02  0.51100000000E-03 0.  1.
         12    1    3    3    0    0 -0.63429540474E+01  0.19595414450E+02  0.23464090095E+01  0.20729663981E+02  0.00000000000E+00 0. -1.
</event>
<event>
 7    1  0.1096439E-011  0.5930194E+02  0.7816164E-02  0.1266605E+00
        -11   -1    0    0    0    0  0.00000000000E+00  0.00000000000E+00  0.45593999997E+02  0.45594000000E+02  0.51100000000E-03 0.  1.
         11   -1    0    0    0    0 -0.00000000000E+00 -0.00000000000E+00 -0.45593999997E+02  0.45594000000E+02  0.51100000000E-03 0. -1.
    9900012    2    1    2    0    0 -0.14288659541E+02 -0.22432966405E+02 -0.17587420695E+02  0.59301935020E+02  0.49999983572E+02 0.  0.
        -12    1    1    2    0    0  0.14288659541E+02  0.22432966405E+02  0.17587420695E+02  0.31886064980E+02  0.00000000000E+00 0.  1.
         11    1    3    3    0    0  0.62232046736E+00 -0.25413484129E+02 -0.70793593328E+01  0.26388440408E+02  0.51100000000E-03 0. -1.
        -11    1    3    3    0    0 -0.72518498570E+01  0.13571281286E+02  0.11085107175E+01  0.15427177265E+02  0.51100000000E-03 0.  1.
         12    1    3    3    0    0 -0.76591301518E+01 -0.10590763562E+02 -0.11616572079E+02  0.17486317348E+02  0.00000000000E+00 0. -1.
</event>
<event>
 7    1  0.1096439E-011  0.5930194E+02  0.7816164E-02  0.1266605E+00
        -11   -1    0    0    0    0  0.00000000000E+00  0.00000000000E+00  0.45593999997E+02  0.45594000000E+02  0.51100000000E-03 0. -1.
         11   -1    0    0    0    0 -0.00000000000E+00 -0.00000000000E+00 -0.45593999997E+02  0.45594000000E+02  0.51100000000E-03 0.  1.
    9900012    2    1    2    0    0  0.28398631478E+02 -0.20481249074E+01  0.14354216745E+02  0.59301943112E+02  0.49999998330E+02 0.  0.
        -12    1    1    2    0    0 -0.28398631478E+02  0.20481249074E+01 -0.14354216745E+02  0.31886056888E+02  0.00000000000E+00 0.  1.
         11    1    3    3    0    0  0.58649543639E+01 -0.10738005489E+02  0.40739912745E+01  0.12895730175E+02  0.51100000000E-03 0. -1.
        -11    1    3    3    0    0  0.22289011995E+02  0.18979142289E+02 -0.31967151384E+01  0.29448716197E+02  0.51100000000E-03 0.  1.
        -12    1    3    3    0    0  0.24466511996E+00 -0.10289261707E+02  0.13476940609E+02  0.16957496740E+02  0.00000000000E+00 0.  1.
</event>
<event>
 7    1  0.1096439E-011  0.5930194E+02  0.7816164E-02  0.1266605E+00
        -11   -1    0    0    0    0  0.00000000000E+00  0.00000000000E+00  0.45593999997E+02  0.45594000000E+02  0.51100000000E-03 0. -1.
         11   -1    0    0    0    0 -0.00000000000E+00 -0.00000000000E+00 -0.45593999997E+02  0.45594000000E+02  0.51100000000E-03 0.  1.
    9900012    2    1    2    0    0 -0.15518778285E+02  0.14225572453E+02  0.23948303238E+02  0.59301943187E+02  0.49999998467E+02 0.  0.
        -12    1    1    2    0    0  0.15518778285E+02 -0.14225572453E+02 -0.23948303238E+02  0.31886056813E+02  0.00000000000E+00 0.  1.
         11    1    3    3    0    0 -0.10371162309E+01  0.21324053206E+02  0.33684621499E+00  0.21351916093E+02  0.51100000000E-03 0. -1.
        -11    1    3    3    0    0  0.95947965316E-01  0.94789268924E+00  0.21087451415E+02  0.21108962884E+02  0.51100000000E-03 0.  1.
        -12    1    3    3    0    0 -0.14577610020E+02 -0.80463734418E+01  0.25240056073E+01  0.16841064211E+02  0.00000000000E+00 0.  1.
</event>
<event>
 7    1  0.1096439E-011  0.5930195E+02  0.7816164E-02  0.1266605E+00
        -11   -1    0    0    0    0  0.00000000000E+00  0.00000000000E+00  0.45593999997E+02  0.45594000000E+02  0.51100000000E-03 0.  1.
         11   -1    0    0    0    0 -0.00000000000E+00 -0.00000000000E+00 -0.45593999997E+02  0.45594000000E+02  0.51100000000E-03 0. -1.
    9900012    2    1    2    0    0  0.17740381367E+02  0.82228992771E+01 -0.25186965268E+02  0.59301946262E+02  0.50000004075E+02 0.  0.
        -12    1    1    2    0    0 -0.17740381367E+02 -0.82228992771E+01  0.25186965268E+02  0.31886053738E+02  0.00000000000E+00 0.  1.
         11    1    3    3    0    0  0.17872021290E+02  0.42598151318E+00 -0.22460058519E+02  0.28706181114E+02  0.51100000000E-03 0. -1.
        -11    1    3    3    0    0  0.87569152929E+01  0.11566531197E+02  0.76675352896E+01  0.16409122678E+02  0.51100000000E-03 0.  1.
         12    1    3    3    0    0 -0.88885552162E+01 -0.37696134330E+01 -0.10394442039E+02  0.14186642470E+02  0.00000000000E+00 0. -1.
</event>
<event>
 7    1  0.1096439E-011  0.5930193E+02  0.7816164E-02  0.1266605E+00
        -11   -1    0    0    0    0  0.00000000000E+00  0.00000000000E+00  0.45593999997E+02  0.45594000000E+02  0.51100000000E-03 0.  1.
         11   -1    0    0    0    0 -0.00000000000E+00 -0.00000000000E+00 -0.45593999997E+02  0.45594000000E+02  0.51100000000E-03 0. -1.
    9900012    2    1    2    0    0 -0.11799185630E+01  0.53045708871E+01 -0.31419589308E+02  0.59301932943E+02  0.49999979783E+02 0.  0.
        -12    1    1    2    0    0  0.11799185630E+01 -0.53045708871E+01  0.31419589308E+02  0.31886067057E+02  0.00000000000E+00 0.  1.
         11    1    3    3    0    0  0.51655862112E+01 -0.15261632864E+02 -0.21132277998E+02  0.26573932570E+02  0.51100000000E-03 0. -1.
        -11    1    3    3    0    0 -0.13533741677E+02  0.19274442853E+02 -0.94509140840E+01  0.25376880981E+02  0.51100000000E-03 0.  1.
         12    1    3    3    0    0  0.71882369029E+01  0.12917608979E+01 -0.83639722578E+00  0.73511193915E+01  0.00000000000E+00 0. -1.
</event>
<event>
 7    1  0.1096439E-011  0.5930199E+02  0.7816164E-02  0.1266605E+00
        -11   -1    0    0    0    0  0.00000000000E+00  0.00000000000E+00  0.45593999997E+02  0.45594000000E+02  0.51100000000E-03 0.  1.
         11   -1    0    0    0    0 -0.00000000000E+00 -0.00000000000E+00 -0.45593999997E+02  0.45594000000E+02  0.51100000000E-03 0. -1.
    9900012    2    1    2    0    0 -0.85113397453E-01  0.86708737482E+01 -0.30684305749E+02  0.59301985587E+02  0.50000075794E+02 0.  0.
        -12    1    1    2    0    0  0.85113397453E-01 -0.86708737482E+01  0.30684305749E+02  0.31886014413E+02  0.00000000000E+00 0.  1.
         11    1    3    3    0    0  0.10533177606E+02 -0.82931258164E+01 -0.16367589631E+02  0.21157073448E+02  0.51100000000E-03 0. -1.
        -11    1    3    3    0    0 -0.19627438763E+02  0.60606831481E+01 -0.47931665193E+01  0.21093664408E+02  0.51100000000E-03 0.  1.
         12    1    3    3    0    0  0.90091477592E+01  0.10903316416E+02 -0.95235495991E+01  0.17051247731E+02  0.00000000000E+00 0. -1.
</event>
<event>
 7    1  0.1096439E-011  0.5930188E+02  0.7816164E-02  0.1266605E+00
        -11   -1    0    0    0    0  0.00000000000E+00  0.00000000000E+00  0.45593999997E+02  0.45594000000E+02  0.51100000000E-03 0.  1.
         11   -1    0    0    0    0 -0.00000000000E+00 -0.00000000000E+00 -0.45593999997E+02  0.45594000000E+02  0.51100000000E-03 0. -1.
    9900012    2    1    2    0    0  0.97723741557E+01  0.18769778259E+02 -0.23852054575E+02  0.59301884213E+02  0.49999890912E+02 0.  0.
        -12    1    1    2    0    0 -0.97723741557E+01 -0.18769778259E+02  0.23852054575E+02  0.31886115787E+02  0.00000000000E+00 0.  1.
         11    1    3    3    0    0  0.13337553473E+01  0.12875911617E+02 -0.94855180675E+01  0.16048148073E+02  0.51100000000E-03 0. -1.
        -11    1    3    3    0    0  0.15577354520E+02  0.30506804959E+01  0.92821317346E+01  0.18388001390E+02  0.51100000000E-03 0.  1.
        -12    1    3    3    0    0 -0.71387357115E+01  0.28431861460E+01 -0.23648668242E+02  0.24865734750E+02  0.00000000000E+00 0.  1.
</event>
<event>
 7    1  0.1096439E-011  0.5930223E+02  0.7816164E-02  0.1266604E+00
        -11   -1    0    0    0    0  0.00000000000E+00  0.00000000000E+00  0.45593999997E+02  0.45594000000E+02  0.51100000000E-03 0.  1.
         11   -1    0    0    0    0 -0.00000000000E+00 -0.00000000000E+00 -0.45593999997E+02  0.45594000000E+02  0.51100000000E-03 0. -1.
    9900012    2    1    2    0    0  0.13691395655E+01 -0.16933973814E+02 -0.26982740570E+02  0.59302230432E+02  0.50000522329E+02 0.  0.
        -12    1    1    2    0    0 -0.13691395655E+01  0.16933973814E+02  0.26982740570E+02  0.31885769568E+02  0.00000000000E+00 0.  1.
         11    1    3    3    0    0  0.19822624309E+02 -0.20709842542E+02 -0.24335988111E+02  0.37604179691E+02  0.51100000000E-03 0. -1.
        -11    1    3    3    0    0 -0.26769090293E+01  0.21874382118E+01  0.32846764815E+01  0.47686295443E+01  0.51100000000E-03 0.  1.
         12    1    3    3    0    0 -0.15776575714E+02  0.15884305165E+01 -0.59314289405E+01  0.16929421196E+02  0.00000000000E+00 0. -1.
</event>
<event>
 7    1  0.1096439E-011  0.5930196E+02  0.7816164E-02  0.1266605E+00
        -11   -1    0    0    0    0  0.00000000000E+00  0.00000000000E+00  0.45593999997E+02  0.45594000000E+02  0.51100000000E-03 0.  1.
         11   -1    0    0    0    0 -0.00000000000E+00 -0.00000000000E+00 -0.45593999997E+02  0.45594000000E+02  0.51100000000E-03 0. -1.
    9900012    2    1    2    0    0 -0.22349933356E+02  0.15871002308E+02 -0.16288379823E+02  0.59301959912E+02  0.50000028969E+02 0.  0.
        -12    1    1    2    0    0  0.22349933356E+02 -0.15871002308E+02  0.16288379823E+02  0.31886040088E+02  0.00000000000E+00 0.  1.
         11    1    3    3    0    0  0.17530511020E+01 -0.69568804467E+01 -0.22892540164E+02  0.23990409941E+02  0.51100000000E-03 0. -1.
        -11    1    3    3    0    0 -0.99539833187E+01  0.50640392524E+01  0.58067075012E+01  0.12587459224E+02  0.51100000000E-03 0.  1.
         12    1    3    3    0    0 -0.14149001139E+02  0.17763843502E+02  0.79745284049E+00  0.22724090746E+02  0.00000000000E+00 0. -1.
</event>
<event>
 7    1  0.1096439E-011  0.5930209E+02  0.7816164E-02  0.1266604E+00
        -11   -1    0    0    0    0  0.00000000000E+00  0.00000000000E+00  0.45593999997E+02  0.45594000000E+02  0.51100000000E-03 0. -1.
         11   -1    0    0    0    0 -0.00000000000E+00 -0.00000000000E+00 -0.45593999997E+02  0.45594000000E+02  0.51100000000E-03 0.  1.
    9900012    2    1    2    0    0 -0.17579406677E+02  0.43728677348E+01  0.26240310770E+02  0.59302087427E+02  0.50000261525E+02 0.  0.
        -12    1    1    2    0    0  0.17579406677E+02 -0.43728677348E+01 -0.26240310770E+02  0.31885912573E+02  0.00000000000E+00 0.  1.
         11    1    3    3    0    0 -0.46618932816E+01 -0.20775128138E+02  0.20907444539E+02  0.29840583699E+02  0.51100000000E-03 0. -1.
        -11    1    3    3    0    0 -0.21964751643E+01  0.16077117522E+01 -0.87711728969E+00  0.28598208382E+01  0.51100000000E-03 0.  1.
         12    1    3    3    0    0 -0.10721038231E+02  0.23540284120E+02  0.62099835201E+01  0.26601682889E+02  0.00000000000E+00 0. -1.
</event>
<event>
 7    1  0.1096439E-011  0.5930195E+02  0.7816164E-02  0.1266605E+00
        -11   -1    0    0    0    0  0.00000000000E+00  0.00000000000E+00  0.45593999997E+02  0.45594000000E+02  0.51100000000E-03 0.  1.
         11   -1    0    0    0    0 -0.00000000000E+00 -0.00000000000E+00 -0.45593999997E+02  0.45594000000E+02  0.51100000000E-03 0. -1.
    9900012    2    1    2    0    0 -0.14925714117E+02  0.16715214055E+02 -0.22683581014E+02  0.59301950222E+02  0.50000011297E+02 0.  0.
        -12    1    1    2    0    0  0.14925714117E+02 -0.16715214055E+02  0.22683581014E+02  0.31886049778E+02  0.00000000000E+00 0.  1.
         11    1    3    3    0    0 -0.31702622689E+01  0.27415880028E+01  0.25347757833E+01  0.48981584461E+01  0.51100000000E-03 0. -1.
        -11    1    3    3    0    0 -0.29805910418E+01  0.26535875699E+02 -0.28152378360E+02  0.38801971982E+02  0.51100000000E-03 0.  1.
        -12    1    3    3    0    0 -0.87748608061E+01 -0.12562249647E+02  0.29340215624E+01  0.15601819794E+02  0.00000000000E+00 0.  1.
</event>
<event>
 7    1  0.1096439E-011  0.5930191E+02  0.7816164E-02  0.1266605E+00
        -11   -1    0    0    0    0  0.00000000000E+00  0.00000000000E+00  0.45593999997E+02  0.45594000000E+02  0.51100000000E-03 0.  1.
         11   -1    0    0    0    0 -0.00000000000E+00 -0.00000000000E+00 -0.45593999997E+02  0.45594000000E+02  0.51100000000E-03 0. -1.
    9900012    2    1    2    0    0 -0.22161199550E+02  0.10911818730E+02 -0.20162740930E+02  0.59301910944E+02  0.49999939663E+02 0.  0.
        -12    1    1    2    0    0  0.22161199550E+02 -0.10911818730E+02  0.20162740930E+02  0.31886089056E+02  0.00000000000E+00 0.  1.
         11    1    3    3    0    0 -0.30493496606E+02 -0.88137025868E+01 -0.99664908910E+01  0.33269590162E+02  0.51100000000E-03 0. -1.
        -11    1    3    3    0    0  0.96280832260E+01  0.91904639098E+01 -0.50500175866E+01  0.14236126277E+02  0.51100000000E-03 0.  1.
         12    1    3    3    0    0 -0.12957861692E+01  0.10535057407E+02 -0.51462324522E+01  0.11796194506E+02  0.00000000000E+00 0. -1.
</event>
<event>
 7    1  0.1096439E-011  0.5930192E+02  0.7816164E-02  0.1266605E+00
        -11   -1    0    0    0    0  0.00000000000E+00  0.00000000000E+00  0.45593999997E+02  0.45594000000E+02  0.51100000000E-03 0.  1.
         11   -1    0    0    0    0 -0.00000000000E+00 -0.00000000000E+00 -0.45593999997E+02  0.45594000000E+02  0.51100000000E-03 0. -1.
    9900012    2    1    2    0    0  0.32543746780E+00  0.15230027861E+02 -0.28011821458E+02  0.59301924675E+02  0.49999964706E+02 0.  0.
        -12    1    1    2    0    0 -0.32543746780E+00 -0.15230027861E+02  0.28011821458E+02  0.31886075325E+02  0.00000000000E+00 0.  1.
         11    1    3    3    0    0  0.36502147994E+01  0.88259892042E+01 -0.33909148289E+02  0.35228574928E+02  0.51100000000E-03 0. -1.
        -11    1    3    3    0    0  0.21633616906E+00  0.74663592833E+01  0.13607404255E+02  0.15522717968E+02  0.51100000000E-03 0.  1.
        -12    1    3    3    0    0 -0.35411135007E+01 -0.10623206261E+01 -0.77100774242E+01  0.85506317792E+01  0.00000000000E+00 0.  1.
</event>
<event>
 7    1  0.1096439E-011  0.5930197E+02  0.7816164E-02  0.1266605E+00
        -11   -1    0    0    0    0  0.00000000000E+00  0.00000000000E+00  0.45593999997E+02  0.45594000000E+02  0.51100000000E-03 0.  1.
         11   -1    0    0    0    0 -0.00000000000E+00 -0.00000000000E+00 -0.45593999997E+02  0.45594000000E+02  0.51100000000E-03 0. -1.
    9900012    2    1    2    0    0 -0.97907914772E+01 -0.28321365785E+02 -0.10897691819E+02  0.59301967875E+02  0.50000043492E+02 0.  0.
        -12    1    1    2    0    0  0.97907914772E+01  0.28321365785E+02  0.10897691819E+02  0.31886032125E+02  0.00000000000E+00 0.  1.
         11    1    3    3    0    0  0.80219251045E+01  0.76253321123E+01  0.52688004468E+01  0.12257945612E+02  0.51100000000E-03 0.  1.
        -11    1    3    3    0    0 -0.81639963387E+01 -0.93138586024E+01  0.31231100231E+01  0.12773120792E+02  0.51100000000E-03 0. -1.
         12    1    3    3    0    0 -0.96487202430E+01 -0.26632839295E+02 -0.19289602289E+02  0.34270901472E+02  0.00000000000E+00 0. -1.
</event>
<event>
 7    1  0.1096439E-011  0.5930198E+02  0.7816164E-02  0.1266605E+00
        -11   -1    0    0    0    0  0.00000000000E+00  0.00000000000E+00  0.45593999997E+02  0.45594000000E+02  0.51100000000E-03 0. -1.
         11   -1    0    0    0    0 -0.00000000000E+00 -0.00000000000E+00 -0.45593999997E+02  0.45594000000E+02  0.51100000000E-03 0.  1.
    9900012    2    1    2    0    0 -0.29564352461E+02  0.11200713517E+02  0.41486630741E+01  0.59301979159E+02  0.50000064072E+02 0.  0.
        -12    1    1    2    0    0  0.29564352461E+02 -0.11200713517E+02 -0.41486630741E+01  0.31886020841E+02  0.00000000000E+00 0.  1.
         11    1    3    3    0    0 -0.88986117749E+00  0.16406678922E+02  0.95369778403E+01  0.18998023917E+02  0.51100000000E-03 0. -1.
        -11    1    3    3    0    0 -0.29702084354E+02  0.12717872136E+01  0.27448235622E+01  0.29855741731E+02  0.51100000000E-03 0.  1.
        -12    1    3    3    0    0  0.10275930696E+01 -0.64777526187E+01 -0.81331383284E+01  0.10448213511E+02  0.00000000000E+00 0.  1.
</event>
<event>
 7    1  0.1096439E-011  0.5930199E+02  0.7816164E-02  0.1266605E+00
        -11   -1    0    0    0    0  0.00000000000E+00  0.00000000000E+00  0.45593999997E+02  0.45594000000E+02  0.51100000000E-03 0.  1.
         11   -1    0    0    0    0 -0.00000000000E+00 -0.00000000000E+00 -0.45593999997E+02  0.45594000000E+02  0.51100000000E-03 0. -1.
    9900012    2    1    2    0    0 -0.30901308993E+02 -0.55188828814E+01 -0.56007951995E+01  0.59301986254E+02  0.50000077011E+02 0.  0.
        -12    1    1    2    0    0  0.30901308993E+02  0.55188828814E+01  0.56007951995E+01  0.31886013746E+02  0.00000000000E+00 0.  1.
         11    1    3    3    0    0 -0.21933839269E+02  0.63342555164E+01  0.40383088525E+01  0.23184564621E+02  0.51100000000E-03 0. -1.
        -11    1    3    3    0    0  0.10159746758E+02 -0.15126721647E+01  0.33323601890E+01  0.10798761779E+02  0.51100000000E-03 0.  1.
         12    1    3    3    0    0 -0.19127216482E+02 -0.10340466233E+02 -0.12971464241E+02  0.25318659854E+02  0.00000000000E+00 0. -1.
</event>
<event>
 7    1  0.1096439E-011  0.5930198E+02  0.7816164E-02  0.1266605E+00
        -11   -1    0    0    0    0  0.00000000000E+00  0.00000000000E+00  0.45593999997E+02  0.45594000000E+02  0.51100000000E-03 0.  1.
         11   -1    0    0    0    0 -0.00000000000E+00 -0.00000000000E+00 -0.45593999997E+02  0.45594000000E+02  0.51100000000E-03 0. -1.
    9900012    2    1    2    0    0  0.15195580711E+02  0.27991231833E+02 -0.15177830963E+01  0.59301978013E+02  0.50000061980E+02 0.  0.
        -12    1    1    2    0    0 -0.15195580711E+02 -0.27991231833E+02  0.15177830963E+01  0.31886021987E+02  0.00000000000E+00 0.  1.
         11    1    3    3    0    0 -0.54169655366E+01  0.19842054411E+02  0.45165115813E+01  0.21058241047E+02  0.51100000000E-03 0. -1.
        -11    1    3    3    0    0  0.13465437737E+02  0.15868308363E+01  0.11778183412E+02  0.17960001400E+02  0.51100000000E-03 0.  1.
         12    1    3    3    0    0  0.71471085112E+01  0.65623465856E+01 -0.17812478090E+02  0.20283735565E+02  0.00000000000E+00 0. -1.
</event>
<event>
 7    1  0.1096439E-011  0.5930193E+02  0.7816164E-02  0.1266605E+00
        -11   -1    0    0    0    0  0.00000000000E+00  0.00000000000E+00  0.45593999997E+02  0.45594000000E+02  0.51100000000E-03 0.  1.
         11   -1    0    0    0    0 -0.00000000000E+00 -0.00000000000E+00 -0.45593999997E+02  0.45594000000E+02  0.51100000000E-03 0. -1.
    9900012    2    1    2    0    0 -0.18965451867E+02 -0.24051833249E+02  0.88624076755E+01  0.59301932244E+02  0.49999978508E+02 0.  0.
        -12    1    1    2    0    0  0.18965451867E+02  0.24051833249E+02 -0.88624076755E+01  0.31886067756E+02  0.00000000000E+00 0.  1.
         11    1    3    3    0    0 -0.22624024764E+02 -0.21756843772E+02 -0.11918035662E+02  0.33574489151E+02  0.51100000000E-03 0. -1.
        -11    1    3    3    0    0 -0.17347781463E+01 -0.72023336574E+00  0.19961317086E+02  0.20049498033E+02  0.51100000000E-03 0.  1.
         12    1    3    3    0    0  0.53933510430E+01 -0.15747561108E+01  0.81912625179E+00  0.56779450594E+01  0.00000000000E+00 0. -1.
</event>
<event>
 7    1  0.1096439E-011  0.5930195E+02  0.7816164E-02  0.1266605E+00
        -11   -1    0    0    0    0  0.00000000000E+00  0.00000000000E+00  0.45593999997E+02  0.45594000000E+02  0.51100000000E-03 0.  1.
         11   -1    0    0    0    0 -0.00000000000E+00 -0.00000000000E+00 -0.45593999997E+02  0.45594000000E+02  0.51100000000E-03 0. -1.
    9900012    2    1    2    0    0 -0.39439854060E+01  0.86108197772E+01 -0.30446988250E+02  0.59301947695E+02  0.50000006688E+02 0.  0.
        -12    1    1    2    0    0  0.39439854060E+01 -0.86108197772E+01  0.30446988250E+02  0.31886052305E+02  0.00000000000E+00 0.  1.
         11    1    3    3    0    0 -0.12355819011E+02  0.66929849088E+01 -0.34416137634E+02  0.37174357295E+02  0.51100000000E-03 0. -1.
        -11    1    3    3    0    0  0.13556582396E+02 -0.18178643529E+01 -0.14750315782E+01  0.13757226301E+02  0.51100000000E-03 0.  1.
        -12    1    3    3    0    0 -0.51447487912E+01  0.37356992214E+01  0.54441809623E+01  0.83703640988E+01  0.00000000000E+00 0.  1.
</event>
<event>
 7    1  0.1096439E-011  0.5930196E+02  0.7816164E-02  0.1266605E+00
        -11   -1    0    0    0    0  0.00000000000E+00  0.00000000000E+00  0.45593999997E+02  0.45594000000E+02  0.51100000000E-03 0.  1.
         11   -1    0    0    0    0 -0.00000000000E+00 -0.00000000000E+00 -0.45593999997E+02  0.45594000000E+02  0.51100000000E-03 0. -1.
    9900012    2    1    2    0    0  0.72169368068E+01  0.10884395987E+02 -0.29088921037E+02  0.59301959481E+02  0.50000028183E+02 0.  0.
        -12    1    1    2    0    0 -0.72169368068E+01 -0.10884395987E+02  0.29088921037E+02  0.31886040519E+02  0.00000000000E+00 0.  1.
         11    1    3    3    0    0  0.23677370642E+02  0.96684755406E+01 -0.12712752743E+02  0.28560661449E+02  0.51100000000E-03 0. -1.
        -11    1    3    3    0    0 -0.15219730518E+02  0.34153206135E+00 -0.20964272239E+02  0.25908638559E+02  0.51100000000E-03 0.  1.
         12    1    3    3    0    0 -0.12407033171E+01  0.87438838491E+00  0.45881039454E+01  0.48326594730E+01  0.00000000000E+00 0. -1.
</event>
<event>
 7    1  0.1096439E-011  0.5930200E+02  0.7816164E-02  0.1266605E+00
        -11   -1    0    0    0    0  0.00000000000E+00  0.00000000000E+00  0.45593999997E+02  0.45594000000E+02  0.51100000000E-03 0.  1.
         11   -1    0    0    0    0 -0.00000000000E+00 -0.00000000000E+00 -0.45593999997E+02  0.45594000000E+02  0.51100000000E-03 0. -1.
    9900012    2    1    2    0    0  0.18517523193E+02  0.15539785829E+02  0.20792627012E+02  0.59302000770E+02  0.50000103484E+02 0.  0.
        -12    1    1    2    0    0 -0.18517523193E+02 -0.15539785829E+02 -0.20792627012E+02  0.31885999230E+02  0.00000000000E+00 0.  1.
         11    1    3    3    0    0 -0.12724228531E+02  0.24020617511E+01 -0.66666198440E+01  0.14564330152E+02  0.51100000000E-03 0. -1.
        -11    1    3    3    0    0  0.15233293539E+02  0.99873222471E+01  0.19144659287E+02  0.26425703722E+02  0.51100000000E-03 0.  1.
         12    1    3    3    0    0  0.16008458186E+02  0.31504018311E+01  0.83145875687E+01  0.18311966896E+02  0.00000000000E+00 0. -1.
</event>
<event>
 7    1  0.1096439E-011  0.5930194E+02  0.7816164E-02  0.1266605E+00
        -11   -1    0    0    0    0  0.00000000000E+00  0.00000000000E+00  0.45593999997E+02  0.45594000000E+02  0.51100000000E-03 0. -1.
         11   -1    0    0    0    0 -0.00000000000E+00 -0.00000000000E+00 -0.45593999997E+02  0.45594000000E+02  0.51100000000E-03 0.  1.
    9900012    2    1    2    0    0 -0.15811932327E+02 -0.66017360182E+01  0.26890900505E+02  0.59301942665E+02  0.49999997515E+02 0.  0.
        -12    1    1    2    0    0  0.15811932327E+02  0.66017360182E+01 -0.26890900505E+02  0.31886057335E+02  0.00000000000E+00 0.  1.
         11    1    3    3    0    0 -0.14759717234E+02  0.80690945603E+01  0.31965131849E+01  0.17122419124E+02  0.51100000000E-03 0. -1.
        -11    1    3    3    0    0 -0.36121254956E+01 -0.18516094194E+02  0.29341992927E+02  0.34883316127E+02  0.51100000000E-03 0.  1.
        -12    1    3    3    0    0  0.25599104018E+01  0.38452636160E+01 -0.56476056068E+01  0.72962074143E+01  0.00000000000E+00 0.  1.
</event>
<event>
 7    1  0.1096439E-011  0.5930196E+02  0.7816164E-02  0.1266605E+00
        -11   -1    0    0    0    0  0.00000000000E+00  0.00000000000E+00  0.45593999997E+02  0.45594000000E+02  0.51100000000E-03 0. -1.
         11   -1    0    0    0    0 -0.00000000000E+00 -0.00000000000E+00 -0.45593999997E+02  0.45594000000E+02  0.51100000000E-03 0.  1.
    9900012    2    1    2    0    0 -0.97302718899E+01 -0.29892691655E+02  0.53355670600E+01  0.59301961029E+02  0.50000031006E+02 0.  0.
        -12    1    1    2    0    0  0.97302718899E+01  0.29892691655E+02 -0.53355670600E+01  0.31886038971E+02  0.00000000000E+00 0.  1.
         11    1    3    3    0    0 -0.61712634581E+01 -0.32625523574E+02  0.15793733636E+02  0.36768890432E+02  0.51100000000E-03 0. -1.
        -11    1    3    3    0    0  0.61292997267E+01  0.68293263537E+01 -0.30603397861E+01  0.96733496501E+01  0.51100000000E-03 0.  1.
         12    1    3    3    0    0 -0.96883081585E+01 -0.40964944345E+01 -0.73978267900E+01  0.12859720947E+02  0.00000000000E+00 0. -1.
</event>
<event>
 7    1  0.1096439E-011  0.5930200E+02  0.7816164E-02  0.1266605E+00
        -11   -1    0    0    0    0  0.00000000000E+00  0.00000000000E+00  0.45593999997E+02  0.45594000000E+02  0.51100000000E-03 0.  1.
         11   -1    0    0    0    0 -0.00000000000E+00 -0.00000000000E+00 -0.45593999997E+02  0.45594000000E+02  0.51100000000E-03 0. -1.
    9900012    2    1    2    0    0 -0.26194272696E+02  0.66115814286E+01 -0.16937052627E+02  0.59302004913E+02  0.50000111039E+02 0.  0.
        -12    1    1    2    0    0  0.26194272696E+02 -0.66115814286E+01  0.16937052627E+02  0.31885995087E+02  0.00000000000E+00 0.  1.
         11    1    3    3    0    0 -0.82683410077E+01 -0.62254996719E+01 -0.29309430418E+02  0.31083195152E+02  0.51100000000E-03 0. -1.
        -11    1    3    3    0    0 -0.68893770533E+01 -0.16954287106E+01  0.29812806171E+01  0.76958449227E+01  0.51100000000E-03 0.  1.
         12    1    3    3    0    0 -0.11036554635E+02  0.14532509811E+02  0.93910971740E+01  0.20522964838E+02  0.00000000000E+00 0. -1.
</event>
<event>
 7    1  0.1096439E-011  0.5930195E+02  0.7816164E-02  0.1266605E+00
        -11   -1    0    0    0    0  0.00000000000E+00  0.00000000000E+00  0.45593999997E+02  0.45594000000E+02  0.51100000000E-03 0. -1.
         11   -1    0    0    0    0 -0.00000000000E+00 -0.00000000000E+00 -0.45593999997E+02  0.45594000000E+02  0.51100000000E-03 0.  1.
    9900012    2    1    2    0    0  0.15096940917E+02  0.21650583989E+02  0.17890075259E+02  0.59301949682E+02  0.50000010313E+02 0.  0.
        -12    1    1    2    0    0 -0.15096940917E+02 -0.21650583989E+02 -0.17890075259E+02  0.31886050318E+02  0.00000000000E+00 0.  1.
         11    1    3    3    0    0  0.19382595725E+02  0.11887440698E+02  0.16647596750E+02  0.28180467370E+02  0.51100000000E-03 0. -1.
        -11    1    3    3    0    0 -0.15035341968E+02  0.46592554514E+01  0.77645117718E+01  0.17551575791E+02  0.51100000000E-03 0.  1.
         12    1    3    3    0    0  0.10749687159E+02  0.51038878393E+01 -0.65220332630E+01  0.13569906521E+02  0.00000000000E+00 0. -1.
</event>
<event>
 7    1  0.1096439E-011  0.5930192E+02  0.7816164E-02  0.1266605E+00
        -11   -1    0    0    0    0  0.00000000000E+00  0.00000000000E+00  0.45593999997E+02  0.45594000000E+02  0.51100000000E-03 0. -1.
         11   -1    0    0    0    0 -0.00000000000E+00 -0.00000000000E+00 -0.45593999997E+02  0.45594000000E+02  0.51100000000E-03 0.  1.
    9900012    2    1    2    0    0 -0.22215415176E+02 -0.18194398111E+02  0.13862231982E+02  0.59301917305E+02  0.49999951265E+02 0.  0.
        -12    1    1    2    0    0  0.22215415176E+02  0.18194398111E+02 -0.13862231982E+02  0.31886082695E+02  0.00000000000E+00 0.  1.
         11    1    3    3    0    0  0.10494345349E+02  0.79459704672E+01  0.79654223213E+01  0.15385632388E+02  0.51100000000E-03 0. -1.
        -11    1    3    3    0    0 -0.30195689462E+02 -0.18935057904E+02  0.66189103539E+01  0.36250876602E+02  0.51100000000E-03 0.  1.
         12    1    3    3    0    0 -0.25140710635E+01 -0.72053106745E+01 -0.72210069366E+00  0.76654083153E+01  0.00000000000E+00 0. -1.
</event>
<event>
 7    1  0.1096439E-011  0.5930195E+02  0.7816164E-02  0.1266605E+00
        -11   -1    0    0    0    0  0.00000000000E+00  0.00000000000E+00  0.45593999997E+02  0.45594000000E+02  0.51100000000E-03 0. -1.
         11   -1    0    0    0    0 -0.00000000000E+00 -0.00000000000E+00 -0.45593999997E+02  0.45594000000E+02  0.51100000000E-03 0.  1.
    9900012    2    1    2    0    0 -0.14562048409E+02  0.28306716209E+02  0.18430225761E+01  0.59301950250E+02  0.50000011349E+02 0.  0.
        -12    1    1    2    0    0  0.14562048409E+02 -0.28306716209E+02 -0.18430225761E+01  0.31886049750E+02  0.00000000000E+00 0.  1.
         11    1    3    3    0    0 -0.24383869943E+01 -0.47079014524E+01  0.16614594117E+02  0.17440034552E+02  0.51100000000E-03 0. -1.
        -11    1    3    3    0    0 -0.55208921301E+01  0.32016736942E+02 -0.12416570472E+02  0.34781071244E+02  0.51100000000E-03 0.  1.
        -12    1    3    3    0    0 -0.66027692849E+01  0.99788071976E+00 -0.23550010691E+01  0.70808444550E+01  0.00000000000E+00 0.  1.
</event>
<event>
 7    1  0.1096439E-011  0.5930193E+02  0.7816164E-02  0.1266605E+00
        -11   -1    0    0    0    0  0.00000000000E+00  0.00000000000E+00  0.45593999997E+02  0.45594000000E+02  0.51100000000E-03 0. -1.
         11   -1    0    0    0    0 -0.00000000000E+00 -0.00000000000E+00 -0.45593999997E+02  0.45594000000E+02  0.51100000000E-03 0.  1.
    9900012    2    1    2    0    0 -0.31563128222E+02  0.36890034276E+01 -0.26233457714E+01  0.59301925415E+02  0.49999966054E+02 0.  0.
        -12    1    1    2    0    0  0.31563128222E+02 -0.36890034276E+01  0.26233457714E+01  0.31886074585E+02  0.00000000000E+00 0.  1.
         11    1    3    3    0    0 -0.99840440637E+01 -0.18849545695E+01  0.17771854025E+02  0.20471272197E+02  0.51100000000E-03 0. -1.
        -11    1    3    3    0    0 -0.19822224714E+02  0.11985660734E+02 -0.22048746548E+02  0.31980054416E+02  0.51100000000E-03 0.  1.
        -12    1    3    3    0    0 -0.17568594441E+01 -0.64117027369E+01  0.16535467516E+01  0.68505988025E+01  0.00000000000E+00 0.  1.
</event>
<event>
 7    1  0.1096439E-011  0.5930194E+02  0.7816164E-02  0.1266605E+00
        -11   -1    0    0    0    0  0.00000000000E+00  0.00000000000E+00  0.45593999997E+02  0.45594000000E+02  0.51100000000E-03 0. -1.
         11   -1    0    0    0    0 -0.00000000000E+00 -0.00000000000E+00 -0.45593999997E+02  0.45594000000E+02  0.51100000000E-03 0.  1.
    9900012    2    1    2    0    0 -0.18562663530E+01 -0.23168563682E+02  0.21828716041E+02  0.59301938596E+02  0.49999990093E+02 0.  0.
        -12    1    1    2    0    0  0.18562663530E+01  0.23168563682E+02 -0.21828716041E+02  0.31886061404E+02  0.00000000000E+00 0.  1.
         11    1    3    3    0    0  0.15098765502E+02 -0.53001810465E+01  0.29417384279E+02  0.33488014825E+02  0.51100000000E-03 0. -1.
        -11    1    3    3    0    0 -0.64108957052E+01 -0.66372471050E+01 -0.35603562908E+01  0.98908427373E+01  0.51100000000E-03 0.  1.
         12    1    3    3    0    0 -0.10544136150E+02 -0.11231135531E+02 -0.40283119469E+01  0.15923081034E+02  0.00000000000E+00 0. -1.
</event>
<event>
 7    1  0.1096439E-011  0.5930196E+02  0.7816164E-02  0.1266605E+00
        -11   -1    0    0    0    0  0.00000000000E+00  0.00000000000E+00  0.45593999997E+02  0.45594000000E+02  0.51100000000E-03 0.  1.
         11   -1    0    0    0    0 -0.00000000000E+00 -0.00000000000E+00 -0.45593999997E+02  0.45594000000E+02  0.51100000000E-03 0. -1.
    9900012    2    1    2    0    0  0.70568156955E+01  0.30922539859E+02  0.32737395407E+01  0.59301960897E+02  0.50000030766E+02 0.  0.
        -12    1    1    2    0    0 -0.70568156955E+01 -0.30922539859E+02 -0.32737395407E+01  0.31886039103E+02  0.00000000000E+00 0.  1.
         11    1    3    3    0    0 -0.15434934350E+02  0.45971574260E+01  0.14671116615E+01  0.16171687348E+02  0.51100000000E-03 0.  1.
        -11    1    3    3    0    0  0.13266900363E+02  0.29383652631E+02 -0.28270190702E+01  0.32363586394E+02  0.51100000000E-03 0. -1.
         12    1    3    3    0    0  0.92248496820E+01 -0.30582701981E+01  0.46336469493E+01  0.10766687156E+02  0.00000000000E+00 0. -1.
</event>
<event>
 7    1  0.1096439E-011  0.5930193E+02  0.7816164E-02  0.1266605E+00
        -11   -1    0    0    0    0  0.00000000000E+00  0.00000000000E+00  0.45593999997E+02  0.45594000000E+02  0.51100000000E-03 0.  1.
         11   -1    0    0    0    0 -0.00000000000E+00 -0.00000000000E+00 -0.45593999997E+02  0.45594000000E+02  0.51100000000E-03 0. -1.
    9900012    2    1    2    0    0  0.17117322491E+02  0.12819721101E+02 -0.23651072952E+02  0.59301933605E+02  0.49999980992E+02 0.  0.
        -12    1    1    2    0    0 -0.17117322491E+02 -0.12819721101E+02  0.23651072952E+02  0.31886066395E+02  0.00000000000E+00 0.  1.
         11    1    3    3    0    0  0.48601242952E+01  0.24606351045E+02 -0.10893020652E+02  0.27345040119E+02  0.51100000000E-03 0. -1.
        -11    1    3    3    0    0 -0.23773714123E+01 -0.10475538878E+02  0.22268463837E+01  0.10970307867E+02  0.51100000000E-03 0.  1.
        -12    1    3    3    0    0  0.14634569608E+02 -0.13110910659E+01 -0.14984898684E+02  0.20986585619E+02  0.00000000000E+00 0.  1.
</event>
<event>
 7    1  0.1096439E-011  0.5930196E+02  0.7816164E-02  0.1266605E+00
        -11   -1    0    0    0    0  0.00000000000E+00  0.00000000000E+00  0.45593999997E+02  0.45594000000E+02  0.51100000000E-03 0.  1.
         11   -1    0    0    0    0 -0.00000000000E+00 -0.00000000000E+00 -0.45593999997E+02  0.45594000000E+02  0.51100000000E-03 0. -1.
    9900012    2    1    2    0    0  0.30399784999E+02 -0.61464766483E+01  0.74022590097E+01  0.59301960083E+02  0.50000029281E+02 0.  0.
        -12    1    1    2    0    0 -0.30399784999E+02  0.61464766483E+01 -0.74022590097E+01  0.31886039917E+02  0.00000000000E+00 0.  1.
         11    1    3    3    0    0 -0.15861084256E+01 -0.38202939281E+01 -0.16448649766E+02  0.16960791992E+02  0.51100000000E-03 0. -1.
        -11    1    3    3    0    0  0.24893655236E+02  0.43188520735E+01  0.17204533778E+02  0.30567017143E+02  0.51100000000E-03 0.  1.
         12    1    3    3    0    0  0.70922381884E+01 -0.66450347937E+01  0.66463749973E+01  0.11774150947E+02  0.00000000000E+00 0. -1.
</event>
<event>
 7    1  0.1096439E-011  0.5930224E+02  0.7816164E-02  0.1266604E+00
        -11   -1    0    0    0    0  0.00000000000E+00  0.00000000000E+00  0.45593999997E+02  0.45594000000E+02  0.51100000000E-03 0.  1.
         11   -1    0    0    0    0 -0.00000000000E+00 -0.00000000000E+00 -0.45593999997E+02  0.45594000000E+02  0.51100000000E-03 0. -1.
    9900012    2    1    2    0    0  0.24696301233E+01  0.31057686209E+02  0.67839930462E+01  0.59302242878E+02  0.50000545028E+02 0.  0.
        -12    1    1    2    0    0 -0.24696301233E+01 -0.31057686209E+02 -0.67839930462E+01  0.31885757122E+02  0.00000000000E+00 0.  1.
         11    1    3    3    0    0  0.16377922438E+02  0.12766498078E+02 -0.89348132495E+01  0.22606430604E+02  0.51100000000E-03 0. -1.
        -11    1    3    3    0    0 -0.10988871434E+02  0.89336579385E+01  0.21177136250E+02  0.25476197510E+02  0.51100000000E-03 0.  1.
         12    1    3    3    0    0 -0.29194208807E+01  0.93575301922E+01 -0.54583299541E+01  0.11219614765E+02  0.00000000000E+00 0. -1.
</event>
<event>
 7    1  0.1096439E-011  0.5930194E+02  0.7816164E-02  0.1266605E+00
        -11   -1    0    0    0    0  0.00000000000E+00  0.00000000000E+00  0.45593999997E+02  0.45594000000E+02  0.51100000000E-03 0. -1.
         11   -1    0    0    0    0 -0.00000000000E+00 -0.00000000000E+00 -0.45593999997E+02  0.45594000000E+02  0.51100000000E-03 0.  1.
    9900012    2    1    2    0    0 -0.23377480574E+01  0.31549414764E+02 -0.39862544020E+01  0.59301939377E+02  0.49999991518E+02 0.  0.
        -12    1    1    2    0    0  0.23377480574E+01 -0.31549414764E+02  0.39862544020E+01  0.31886060623E+02  0.00000000000E+00 0.  1.
         11    1    3    3    0    0  0.86933750972E+01  0.30552776865E+02 -0.95997593355E+01  0.33184368674E+02  0.51100000000E-03 0.  1.
        -11    1    3    3    0    0 -0.37958477692E+01 -0.37952612565E+01  0.13414458738E+02  0.14448535281E+02  0.51100000000E-03 0. -1.
        -12    1    3    3    0    0 -0.72352753855E+01  0.47918991550E+01 -0.78009538040E+01  0.11669035421E+02  0.00000000000E+00 0.  1.
</event>
<event>
 7    1  0.1096439E-011  0.5930199E+02  0.7816164E-02  0.1266605E+00
        -11   -1    0    0    0    0  0.00000000000E+00  0.00000000000E+00  0.45593999997E+02  0.45594000000E+02  0.51100000000E-03 0. -1.
         11   -1    0    0    0    0 -0.00000000000E+00 -0.00000000000E+00 -0.45593999997E+02  0.45594000000E+02  0.51100000000E-03 0.  1.
    9900012    2    1    2    0    0 -0.54556406121E+01 -0.13385066432E+02  0.28421706247E+02  0.59301993604E+02  0.50000090416E+02 0.  0.
        -12    1    1    2    0    0  0.54556406121E+01  0.13385066432E+02 -0.28421706247E+02  0.31886006396E+02  0.00000000000E+00 0.  1.
         11    1    3    3    0    0 -0.50829500908E+01 -0.22756027042E+02  0.24345215289E+02  0.33709978583E+02  0.51100000000E-03 0. -1.
        -11    1    3    3    0    0 -0.38283833346E+01 -0.74753507146E+00 -0.83394497472E+01  0.92066144693E+01  0.51100000000E-03 0.  1.
        -12    1    3    3    0    0  0.34556928132E+01  0.10118495681E+02  0.12415940705E+02  0.16385400552E+02  0.00000000000E+00 0.  1.
</event>
<event>
 7    1  0.1096439E-011  0.5930195E+02  0.7816164E-02  0.1266605E+00
        -11   -1    0    0    0    0  0.00000000000E+00  0.00000000000E+00  0.45593999997E+02  0.45594000000E+02  0.51100000000E-03 0. -1.
         11   -1    0    0    0    0 -0.00000000000E+00 -0.00000000000E+00 -0.45593999997E+02  0.45594000000E+02  0.51100000000E-03 0.  1.
    9900012    2    1    2    0    0  0.36363149334E+01  0.31630720488E+02 -0.17304954347E+01  0.59301954787E+02  0.50000019623E+02 0.  0.
        -12    1    1    2    0    0 -0.36363149334E+01 -0.31630720488E+02  0.17304954347E+01  0.31886045213E+02  0.00000000000E+00 0.  1.
         11    1    3    3    0    0  0.41514762920E+01  0.21746232420E+02  0.16511143443E+02  0.27617951371E+02  0.51100000000E-03 0. -1.
        -11    1    3    3    0    0  0.10999985072E+02  0.11497377137E+01 -0.10669075179E+02  0.15367196681E+02  0.51100000000E-03 0.  1.
         12    1    3    3    0    0 -0.11515146431E+02  0.87347503542E+01 -0.75725636990E+01  0.16316806735E+02  0.00000000000E+00 0. -1.
</event>
<event>
 7    1  0.1096439E-011  0.5930196E+02  0.7816164E-02  0.1266605E+00
        -11   -1    0    0    0    0  0.00000000000E+00  0.00000000000E+00  0.45593999997E+02  0.45594000000E+02  0.51100000000E-03 0. -1.
         11   -1    0    0    0    0 -0.00000000000E+00 -0.00000000000E+00 -0.45593999997E+02  0.45594000000E+02  0.51100000000E-03 0.  1.
    9900012    2    1    2    0    0 -0.99808580233E+01  0.30106138918E+02  0.32745000591E+01  0.59301961079E+02  0.50000031097E+02 0.  0.
        -12    1    1    2    0    0  0.99808580233E+01 -0.30106138918E+02 -0.32745000591E+01  0.31886038921E+02  0.00000000000E+00 0.  1.
         11    1    3    3    0    0 -0.22790289084E+02  0.26935063841E+02  0.11290338121E+02  0.37045467682E+02  0.51100000000E-03 0. -1.
        -11    1    3    3    0    0  0.96517882115E+01  0.10397052125E+01 -0.12848066292E+02  0.16103130451E+02  0.51100000000E-03 0.  1.
        -12    1    3    3    0    0  0.31576428496E+01  0.21313698651E+01  0.48322282306E+01  0.61533629456E+01  0.00000000000E+00 0.  1.
</event>
<event>
 7    1  0.1096439E-011  0.5930202E+02  0.7816164E-02  0.1266604E+00
        -11   -1    0    0    0    0  0.00000000000E+00  0.00000000000E+00  0.45593999997E+02  0.45594000000E+02  0.51100000000E-03 0.  1.
         11   -1    0    0    0    0 -0.00000000000E+00 -0.00000000000E+00 -0.45593999997E+02  0.45594000000E+02  0.51100000000E-03 0. -1.
    9900012    2    1    2    0    0 -0.11038446427E+02  0.66816233907E+01 -0.29158606686E+02  0.59302019781E+02  0.50000138156E+02 0.  0.
        -12    1    1    2    0    0  0.11038446427E+02 -0.66816233907E+01  0.29158606686E+02  0.31885980219E+02  0.00000000000E+00 0.  1.
         11    1    3    3    0    0 -0.16531013217E+02  0.15396415316E+02 -0.34900699897E+02  0.41573824170E+02  0.51100000000E-03 0. -1.
        -11    1    3    3    0    0  0.94078090304E+00 -0.11212294171E+02  0.55167460257E+01  0.12531364501E+02  0.51100000000E-03 0.  1.
        -12    1    3    3    0    0  0.45517858876E+01  0.24975022459E+01  0.22534718583E+00  0.51968311103E+01  0.00000000000E+00 0.  1.
</event>
<event>
 7    1  0.1096439E-011  0.5930197E+02  0.7816164E-02  0.1266605E+00
        -11   -1    0    0    0    0  0.00000000000E+00  0.00000000000E+00  0.45593999997E+02  0.45594000000E+02  0.51100000000E-03 0.  1.
         11   -1    0    0    0    0 -0.00000000000E+00 -0.00000000000E+00 -0.45593999997E+02  0.45594000000E+02  0.51100000000E-03 0. -1.
    9900012    2    1    2    0    0  0.25920186296E+02 -0.15437731977E+02 -0.10321799563E+02  0.59301965871E+02  0.50000039837E+02 0.  0.
        -12    1    1    2    0    0 -0.25920186296E+02  0.15437731977E+02  0.10321799563E+02  0.31886034129E+02  0.00000000000E+00 0.  1.
         11    1    3    3    0    0  0.12338819587E+02 -0.23931648004E+02  0.58793005125E+01  0.27559688310E+02  0.51100000000E-03 0. -1.
        -11    1    3    3    0    0  0.19163471783E+02  0.95841302772E+01 -0.11243479631E+02  0.24197314695E+02  0.51100000000E-03 0.  1.
         12    1    3    3    0    0 -0.55821050745E+01 -0.10902142507E+01 -0.49576204450E+01  0.75449628661E+01  0.00000000000E+00 0. -1.
</event>
<event>
 7    1  0.1096439E-011  0.5930193E+02  0.7816164E-02  0.1266605E+00
        -11   -1    0    0    0    0  0.00000000000E+00  0.00000000000E+00  0.45593999997E+02  0.45594000000E+02  0.51100000000E-03 0.  1.
         11   -1    0    0    0    0 -0.00000000000E+00 -0.00000000000E+00 -0.45593999997E+02  0.45594000000E+02  0.51100000000E-03 0. -1.
    9900012    2    1    2    0    0  0.93590617341E+01 -0.30460331270E+02  0.11390807241E+01  0.59301932156E+02  0.49999978349E+02 0.  0.
        -12    1    1    2    0    0 -0.93590617341E+01  0.30460331270E+02 -0.11390807241E+01  0.31886067844E+02  0.00000000000E+00 0.  1.
         11    1    3    3    0    0 -0.39207477247E+01 -0.23976098358E+02 -0.24904088775E+01  0.24421869130E+02  0.51100000000E-03 0. -1.
        -11    1    3    3    0    0  0.17038588462E+02  0.14797508173E+01  0.13399618490E+02  0.21726779218E+02  0.51100000000E-03 0.  1.
        -12    1    3    3    0    0 -0.37587790030E+01 -0.79639837301E+01 -0.97701288880E+01  0.13153283808E+02  0.00000000000E+00 0.  1.
</event>
<event>
 7    1  0.1582029E-011  0.5930197E+02  0.7816164E-02  0.1266605E+00
        -11   -1    0    0    0    0  0.00000000000E+00  0.00000000000E+00  0.45593999997E+02  0.45594000000E+02  0.51100000000E-03 0. -1.
         11   -1    0    0    0    0 -0.00000000000E+00 -0.00000000000E+00 -0.45593999997E+02  0.45594000000E+02  0.51100000000E-03 0.  1.
    9900012    2    1    2    0    0 -0.21355464504E+02  0.10262265693E+02  0.21338902648E+02  0.59301972847E+02  0.50000052560E+02 0.  0.
        -12    1    1    2    0    0  0.21355464504E+02 -0.10262265693E+02 -0.21338902648E+02  0.31886027153E+02  0.00000000000E+00 0.  1.
         11    1    3    3    0    0 -0.34716425214E+01  0.23087926229E+02  0.53086063991E+01  0.23943390351E+02  0.51100000000E-03 0. -1.
        -11    1    3    3    0    0 -0.56451198735E+01 -0.10780129855E+02 -0.30990942020E+01  0.12557187711E+02  0.51100000000E-03 0.  1.
         12    1    3    3    0    0 -0.12238702109E+02 -0.20455306808E+01  0.19129390451E+02  0.22801394785E+02  0.00000000000E+00 0. -1.
</event>
<event>
 7    1  0.1096439E-011  0.5930193E+02  0.7816164E-02  0.1266605E+00
        -11   -1    0    0    0    0  0.00000000000E+00  0.00000000000E+00  0.45593999997E+02  0.45594000000E+02  0.51100000000E-03 0. -1.
         11   -1    0    0    0    0 -0.00000000000E+00 -0.00000000000E+00 -0.45593999997E+02  0.45594000000E+02  0.51100000000E-03 0.  1.
    9900012    2    1    2    0    0 -0.66202260937E+01 -0.25032143012E+02  0.18608751163E+02  0.59301934122E+02  0.49999981935E+02 0.  0.
        -12    1    1    2    0    0  0.66202260937E+01  0.25032143012E+02 -0.18608751163E+02  0.31886065878E+02  0.00000000000E+00 0.  1.
         11    1    3    3    0    0 -0.10911497220E+02 -0.93461299063E+01  0.19108141333E+02  0.23906735061E+02  0.51100000000E-03 0. -1.
        -11    1    3    3    0    0  0.60038542676E+01  0.83747417895E+01  0.36249932151E+01  0.10923513271E+02  0.51100000000E-03 0.  1.
        -12    1    3    3    0    0 -0.17125831415E+01 -0.24060754895E+02 -0.41243833847E+01  0.24471685791E+02  0.00000000000E+00 0.  1.
</event>
<event>
 7    1  0.1096439E-011  0.5930193E+02  0.7816164E-02  0.1266605E+00
        -11   -1    0    0    0    0  0.00000000000E+00  0.00000000000E+00  0.45593999997E+02  0.45594000000E+02  0.51100000000E-03 0. -1.
         11   -1    0    0    0    0 -0.00000000000E+00 -0.00000000000E+00 -0.45593999997E+02  0.45594000000E+02  0.51100000000E-03 0.  1.
    9900012    2    1    2    0    0  0.18566963028E+02 -0.10507304282E+02  0.23697802378E+02  0.59301930990E+02  0.49999976222E+02 0.  0.
        -12    1    1    2    0    0 -0.18566963028E+02  0.10507304282E+02 -0.23697802378E+02  0.31886069010E+02  0.00000000000E+00 0.  1.
         11    1    3    3    0    0  0.48730189665E+01 -0.14234110742E+02 -0.15496851756E+01  0.15124739563E+02  0.51100000000E-03 0.  1.
        -11    1    3    3    0    0  0.20620063090E+02  0.83832282105E+01  0.27646303288E+02  0.35493430418E+02  0.51100000000E-03 0. -1.
        -12    1    3    3    0    0 -0.69261190286E+01 -0.46564217510E+01 -0.23988157345E+01  0.86837610083E+01  0.00000000000E+00 0.  1.
</event>
<event>
 7    1  0.1096439E-011  0.5930195E+02  0.7816164E-02  0.1266605E+00
        -11   -1    0    0    0    0  0.00000000000E+00  0.00000000000E+00  0.45593999997E+02  0.45594000000E+02  0.51100000000E-03 0.  1.
         11   -1    0    0    0    0 -0.00000000000E+00 -0.00000000000E+00 -0.45593999997E+02  0.45594000000E+02  0.51100000000E-03 0. -1.
    9900012    2    1    2    0    0 -0.26670796047E+02 -0.53003574388E+01 -0.16652187129E+02  0.59301945259E+02  0.50000002245E+02 0.  0.
        -12    1    1    2    0    0  0.26670796047E+02  0.53003574388E+01  0.16652187129E+02  0.31886054741E+02  0.00000000000E+00 0.  1.
         11    1    3    3    0    0 -0.13649140712E+02 -0.96545699038E+01  0.11021301897E+02  0.20024456496E+02  0.51100000000E-03 0. -1.
        -11    1    3    3    0    0 -0.41251884534E+01  0.11849737144E+02 -0.44674132276E+01  0.13318829954E+02  0.51100000000E-03 0.  1.
         12    1    3    3    0    0 -0.88964668823E+01 -0.74955246786E+01 -0.23206075798E+02  0.25958658808E+02  0.00000000000E+00 0. -1.
</event>
<event>
 7    1  0.1096439E-011  0.5930195E+02  0.7816164E-02  0.1266605E+00
        -11   -1    0    0    0    0  0.00000000000E+00  0.00000000000E+00  0.45593999997E+02  0.45594000000E+02  0.51100000000E-03 0.  1.
         11   -1    0    0    0    0 -0.00000000000E+00 -0.00000000000E+00 -0.45593999997E+02  0.45594000000E+02  0.51100000000E-03 0. -1.
    9900012    2    1    2    0    0  0.25636575185E+02 -0.11964226519E+02  0.14708612789E+02  0.59301952995E+02  0.50000016354E+02 0.  0.
        -12    1    1    2    0    0 -0.25636575185E+02  0.11964226519E+02 -0.14708612789E+02  0.31886047005E+02  0.00000000000E+00 0.  1.
         11    1    3    3    0    0  0.65029474672E+01  0.85186895961E+01 -0.11339072102E+02  0.15602274020E+02  0.51100000000E-03 0. -1.
        -11    1    3    3    0    0  0.22816420914E+02 -0.17792339578E+02  0.16976320040E+02  0.33546264372E+02  0.51100000000E-03 0.  1.
        -12    1    3    3    0    0 -0.36827931961E+01 -0.26905765372E+01  0.90713648514E+01  0.10153414603E+02  0.00000000000E+00 0.  1.
</event>
<event>
 7    1  0.1096439E-011  0.5930195E+02  0.7816164E-02  0.1266605E+00
        -11   -1    0    0    0    0  0.00000000000E+00  0.00000000000E+00  0.45593999997E+02  0.45594000000E+02  0.51100000000E-03 0. -1.
         11   -1    0    0    0    0 -0.00000000000E+00 -0.00000000000E+00 -0.45593999997E+02  0.45594000000E+02  0.51100000000E-03 0.  1.
    9900012    2    1    2    0    0  0.30259225181E+02  0.54460380672E+01  0.84522249559E+01  0.59301950607E+02  0.50000012000E+02 0.  0.
        -12    1    1    2    0    0 -0.30259225181E+02 -0.54460380672E+01 -0.84522249559E+01  0.31886049393E+02  0.00000000000E+00 0.  1.
         11    1    3    3    0    0  0.21104425368E+02 -0.88765384178E+01  0.20146505742E+02  0.30497071962E+02  0.51100000000E-03 0. -1.
        -11    1    3    3    0    0 -0.18241655571E+01  0.14936152922E+02 -0.88110962253E+01  0.17437077193E+02  0.51100000000E-03 0.  1.
         12    1    3    3    0    0  0.10978965370E+02 -0.61357643713E+00 -0.28831845610E+01  0.11367801452E+02  0.00000000000E+00 0. -1.
</event>
<event>
 7    1  0.1096439E-011  0.5930194E+02  0.7816164E-02  0.1266605E+00
        -11   -1    0    0    0    0  0.00000000000E+00  0.00000000000E+00  0.45593999997E+02  0.45594000000E+02  0.51100000000E-03 0.  1.
         11   -1    0    0    0    0 -0.00000000000E+00 -0.00000000000E+00 -0.45593999997E+02  0.45594000000E+02  0.51100000000E-03 0. -1.
    9900012    2    1    2    0    0 -0.97164896302E+01  0.26280061700E+02 -0.15220669428E+02  0.59301943619E+02  0.49999999254E+02 0.  0.
        -12    1    1    2    0    0  0.97164896302E+01 -0.26280061700E+02  0.15220669428E+02  0.31886056381E+02  0.00000000000E+00 0.  1.
         11    1    3    3    0    0  0.26896832432E+01  0.61299509917E+01 -0.32717830883E+01  0.74508563231E+01  0.51100000000E-03 0. -1.
        -11    1    3    3    0    0 -0.27647551755E+02  0.40655122932E+01 -0.96908843052E+01  0.29577504072E+02  0.51100000000E-03 0.  1.
        -12    1    3    3    0    0  0.15241378882E+02  0.16084598415E+02 -0.22580020349E+01  0.22273583223E+02  0.00000000000E+00 0.  1.
</event>
<event>
 7    1  0.1096439E-011  0.5930197E+02  0.7816164E-02  0.1266605E+00
        -11   -1    0    0    0    0  0.00000000000E+00  0.00000000000E+00  0.45593999997E+02  0.45594000000E+02  0.51100000000E-03 0.  1.
         11   -1    0    0    0    0 -0.00000000000E+00 -0.00000000000E+00 -0.45593999997E+02  0.45594000000E+02  0.51100000000E-03 0. -1.
    9900012    2    1    2    0    0  0.24531976150E+02  0.53463071560E+01 -0.19654980454E+02  0.59301966840E+02  0.50000041604E+02 0.  0.
        -12    1    1    2    0    0 -0.24531976150E+02 -0.53463071560E+01  0.19654980454E+02  0.31886033160E+02  0.00000000000E+00 0.  1.
         11    1    3    3    0    0  0.12039645066E+02  0.16952306090E+02 -0.26888953482E+02  0.33990433282E+02  0.51100000000E-03 0. -1.
        -11    1    3    3    0    0 -0.14563842985E+01 -0.72671230482E+01 -0.24258841708E+01  0.77985285082E+01  0.51100000000E-03 0.  1.
         12    1    3    3    0    0  0.13948715382E+02 -0.43388758856E+01  0.96598571988E+01  0.17513005050E+02  0.00000000000E+00 0. -1.
</event>
<event>
 7    1  0.1096439E-011  0.5930194E+02  0.7816164E-02  0.1266605E+00
        -11   -1    0    0    0    0  0.00000000000E+00  0.00000000000E+00  0.45593999997E+02  0.45594000000E+02  0.51100000000E-03 0. -1.
         11   -1    0    0    0    0 -0.00000000000E+00 -0.00000000000E+00 -0.45593999997E+02  0.45594000000E+02  0.51100000000E-03 0.  1.
    9900012    2    1    2    0    0 -0.21724419460E+02 -0.98063317836E+01  0.21180321668E+02  0.59301943958E+02  0.49999999873E+02 0.  0.
        -12    1    1    2    0    0  0.21724419460E+02  0.98063317836E+01 -0.21180321668E+02  0.31886056042E+02  0.00000000000E+00 0.  1.
         11    1    3    3    0    0 -0.90949728868E+01 -0.28566193777E+02  0.47633842017E+01  0.30355160814E+02  0.51100000000E-03 0. -1.
        -11    1    3    3    0    0  0.79017363994E+00  0.22417574261E+01  0.66169106623E+00  0.24673236648E+01  0.51100000000E-03 0.  1.
         12    1    3    3    0    0 -0.13419620213E+02  0.16518104568E+02  0.15755246400E+02  0.26479459479E+02  0.00000000000E+00 0. -1.
</event>
<event>
 7    1  0.1096439E-011  0.5930191E+02  0.7816164E-02  0.1266605E+00
        -11   -1    0    0    0    0  0.00000000000E+00  0.00000000000E+00  0.45593999997E+02  0.45594000000E+02  0.51100000000E-03 0.  1.
         11   -1    0    0    0    0 -0.00000000000E+00 -0.00000000000E+00 -0.45593999997E+02  0.45594000000E+02  0.51100000000E-03 0. -1.
    9900012    2    1    2    0    0 -0.24506175360E+02 -0.69224114327E+00 -0.20388498357E+02  0.59301910654E+02  0.49999939134E+02 0.  0.
        -12    1    1    2    0    0  0.24506175360E+02  0.69224114327E+00  0.20388498357E+02  0.31886089346E+02  0.00000000000E+00 0.  1.
         11    1    3    3    0    0 -0.11087375050E+02 -0.15137117456E+02 -0.81917681158E+01  0.20473575055E+02  0.51100000000E-03 0. -1.
        -11    1    3    3    0    0 -0.11480095239E+02  0.15995963773E+02  0.59061985404E+01  0.20555938927E+02  0.51100000000E-03 0.  1.
        -12    1    3    3    0    0 -0.19387050703E+01 -0.15510874597E+01 -0.18102928782E+02  0.18272396672E+02  0.00000000000E+00 0.  1.
</event>
<event>
 7    1  0.1096439E-011  0.5930195E+02  0.7816164E-02  0.1266605E+00
        -11   -1    0    0    0    0  0.00000000000E+00  0.00000000000E+00  0.45593999997E+02  0.45594000000E+02  0.51100000000E-03 0. -1.
         11   -1    0    0    0    0 -0.00000000000E+00 -0.00000000000E+00 -0.45593999997E+02  0.45594000000E+02  0.51100000000E-03 0.  1.
    9900012    2    1    2    0    0  0.27458778089E+02  0.83006627871E+01  0.13922446467E+02  0.59301952699E+02  0.50000015815E+02 0.  0.
        -12    1    1    2    0    0 -0.27458778089E+02 -0.83006627871E+01 -0.13922446467E+02  0.31886047301E+02  0.00000000000E+00 0.  1.
         11    1    3    3    0    0  0.28310634264E+01 -0.10806633513E+02 -0.10602215499E+02  0.15401468168E+02  0.51100000000E-03 0.  1.
        -11    1    3    3    0    0  0.13599080034E+02  0.18426229322E+02  0.84834695120E+01  0.24421919663E+02  0.51100000000E-03 0. -1.
        -12    1    3    3    0    0  0.11028634629E+02  0.68106697795E+00  0.16041192453E+02  0.19478564868E+02  0.00000000000E+00 0.  1.
</event>
<event>
 7    1  0.1096439E-011  0.5930195E+02  0.7816164E-02  0.1266605E+00
        -11   -1    0    0    0    0  0.00000000000E+00  0.00000000000E+00  0.45593999997E+02  0.45594000000E+02  0.51100000000E-03 0. -1.
         11   -1    0    0    0    0 -0.00000000000E+00 -0.00000000000E+00 -0.45593999997E+02  0.45594000000E+02  0.51100000000E-03 0.  1.
    9900012    2    1    2    0    0 -0.28740653414E+02 -0.13793262487E+02 -0.66395524820E+00  0.59301951558E+02  0.50000013733E+02 0.  0.
        -12    1    1    2    0    0  0.28740653414E+02  0.13793262487E+02  0.66395524820E+00  0.31886048442E+02  0.00000000000E+00 0.  1.
         11    1    3    3    0    0 -0.18094516476E+02  0.61812765250E+00  0.35607363268E+01  0.18451895614E+02  0.51100000000E-03 0. -1.
        -11    1    3    3    0    0  0.31148302433E+01  0.83292312071E+01 -0.10276368425E+02  0.13589775870E+02  0.51100000000E-03 0.  1.
        -12    1    3    3    0    0 -0.13760967181E+02 -0.22740621346E+02  0.60516768496E+01  0.27260280073E+02  0.00000000000E+00 0.  1.
</event>
<event>
 7    1  0.1096439E-011  0.5930182E+02  0.7816164E-02  0.1266605E+00
        -11   -1    0    0    0    0  0.00000000000E+00  0.00000000000E+00  0.45593999997E+02  0.45594000000E+02  0.51100000000E-03 0.  1.
         11   -1    0    0    0    0 -0.00000000000E+00 -0.00000000000E+00 -0.45593999997E+02  0.45594000000E+02  0.51100000000E-03 0. -1.
    9900012    2    1    2    0    0 -0.89274918728E+01 -0.28594121149E+02  0.10927239397E+02  0.59301820607E+02  0.49999774911E+02 0.  0.
        -12    1    1    2    0    0  0.89274918728E+01  0.28594121149E+02 -0.10927239397E+02  0.31886179393E+02  0.00000000000E+00 0.  1.
         11    1    3    3    0    0  0.14037701041E+02 -0.52401549035E+01  0.10880557231E+02  0.18517634834E+02  0.51100000000E-03 0.  1.
        -11    1    3    3    0    0 -0.78598928706E+01 -0.18121873259E+01 -0.97993984273E+01  0.12692129397E+02  0.51100000000E-03 0. -1.
        -12    1    3    3    0    0 -0.15105300043E+02 -0.21541778920E+02  0.98460805930E+01  0.28092056376E+02  0.00000000000E+00 0.  1.
</event>
<event>
 7    1  0.1096439E-011  0.5930194E+02  0.7816164E-02  0.1266605E+00
        -11   -1    0    0    0    0  0.00000000000E+00  0.00000000000E+00  0.45593999997E+02  0.45594000000E+02  0.51100000000E-03 0.  1.
         11   -1    0    0    0    0 -0.00000000000E+00 -0.00000000000E+00 -0.45593999997E+02  0.45594000000E+02  0.51100000000E-03 0. -1.
    9900012    2    1    2    0    0 -0.26315393560E+01  0.11120033790E+02 -0.29768113447E+02  0.59301941462E+02  0.49999995322E+02 0.  0.
        -12    1    1    2    0    0  0.26315393560E+01 -0.11120033790E+02  0.29768113447E+02  0.31886058538E+02  0.00000000000E+00 0.  1.
         11    1    3    3    0    0  0.89418252428E+01  0.16452968127E+01 -0.22568920555E+02  0.24331449105E+02  0.51100000000E-03 0. -1.
        -11    1    3    3    0    0 -0.21616986746E+02  0.57072151465E+01 -0.57914603304E+00  0.22365192400E+02  0.51100000000E-03 0.  1.
        -12    1    3    3    0    0  0.10043622147E+02  0.37675218307E+01 -0.66200468585E+01  0.12605299957E+02  0.00000000000E+00 0.  1.
</event>
<event>
 7    1  0.1096439E-011  0.5930194E+02  0.7816164E-02  0.1266605E+00
        -11   -1    0    0    0    0  0.00000000000E+00  0.00000000000E+00  0.45593999997E+02  0.45594000000E+02  0.51100000000E-03 0. -1.
         11   -1    0    0    0    0 -0.00000000000E+00 -0.00000000000E+00 -0.45593999997E+02  0.45594000000E+02  0.51100000000E-03 0.  1.
    9900012    2    1    2    0    0  0.13023623950E+02 -0.50347487378E+01  0.28666307195E+02  0.59301942799E+02  0.49999997758E+02 0.  0.
        -12    1    1    2    0    0 -0.13023623950E+02  0.50347487378E+01 -0.28666307195E+02  0.31886057201E+02  0.00000000000E+00 0.  1.
         11    1    3    3    0    0 -0.42945998502E+01 -0.24288699965E+02  0.20099574527E+02  0.31817879098E+02  0.51100000000E-03 0. -1.
        -11    1    3    3    0    0  0.15706936643E+02  0.15678844074E+02  0.73272633386E+01  0.23371409852E+02  0.51100000000E-03 0.  1.
         12    1    3    3    0    0  0.16112871581E+01  0.35751071532E+01  0.12394693289E+01  0.41126538488E+01  0.00000000000E+00 0. -1.
</event>
<event>
 7    1  0.1096439E-011  0.5930195E+02  0.7816164E-02  0.1266605E+00
        -11   -1    0    0    0    0  0.00000000000E+00  0.00000000000E+00  0.45593999997E+02  0.45594000000E+02  0.51100000000E-03 0.  1.
         11   -1    0    0    0    0 -0.00000000000E+00 -0.00000000000E+00 -0.45593999997E+02  0.45594000000E+02  0.51100000000E-03 0. -1.
    9900012    2    1    2    0    0 -0.13508490367E+02  0.19799583524E+02  0.21028969618E+02  0.59301946891E+02  0.50000005221E+02 0.  0.
        -12    1    1    2    0    0  0.13508490367E+02 -0.19799583524E+02 -0.21028969618E+02  0.31886053109E+02  0.00000000000E+00 0.  1.
         11    1    3    3    0    0 -0.72493349609E+01 -0.90727005211E+01 -0.25578824894E+01  0.11891573286E+02  0.51100000000E-03 0. -1.
        -11    1    3    3    0    0  0.99244495471E+01  0.13116174942E+02  0.27417904610E+01  0.16674716163E+02  0.51100000000E-03 0.  1.
         12    1    3    3    0    0 -0.16183604953E+02  0.15756109103E+02  0.20845061646E+02  0.30735657441E+02  0.00000000000E+00 0. -1.
</event>
<event>
 7    1  0.1096439E-011  0.5930208E+02  0.7816164E-02  0.1266604E+00
        -11   -1    0    0    0    0  0.00000000000E+00  0.00000000000E+00  0.45593999997E+02  0.45594000000E+02  0.51100000000E-03 0. -1.
         11   -1    0    0    0    0 -0.00000000000E+00 -0.00000000000E+00 -0.45593999997E+02  0.45594000000E+02  0.51100000000E-03 0.  1.
    9900012    2    1    2    0    0  0.11788219948E+02  0.10214867704E+02  0.27810176955E+02  0.59302084708E+02  0.50000256566E+02 0.  0.
        -12    1    1    2    0    0 -0.11788219948E+02 -0.10214867704E+02 -0.27810176955E+02  0.31885915292E+02  0.00000000000E+00 0.  1.
         11    1    3    3    0    0  0.19233050841E+02 -0.86798563730E+01  0.19423425134E+01  0.21190159179E+02  0.51100000000E-03 0. -1.
        -11    1    3    3    0    0  0.10910665294E+00  0.16200211631E+02  0.70726833132E+01  0.17677149393E+02  0.51100000000E-03 0.  1.
         12    1    3    3    0    0 -0.75539375464E+01  0.26945124461E+01  0.18795151129E+02  0.20434776136E+02  0.00000000000E+00 0. -1.
</event>
<event>
 7    1  0.1096439E-011  0.5930198E+02  0.7816164E-02  0.1266605E+00
        -11   -1    0    0    0    0  0.00000000000E+00  0.00000000000E+00  0.45593999997E+02  0.45594000000E+02  0.51100000000E-03 0. -1.
         11   -1    0    0    0    0 -0.00000000000E+00 -0.00000000000E+00 -0.45593999997E+02  0.45594000000E+02  0.51100000000E-03 0.  1.
    9900012    2    1    2    0    0 -0.26026508381E+02  0.13090784102E+02  0.12960346417E+02  0.59301978828E+02  0.50000063468E+02 0.  0.
        -12    1    1    2    0    0  0.26026508381E+02 -0.13090784102E+02 -0.12960346417E+02  0.31886021172E+02  0.00000000000E+00 0.  1.
         11    1    3    3    0    0 -0.93675033038E+01  0.14090367145E+02  0.11370363801E+02  0.20385625761E+02  0.51100000000E-03 0. -1.
        -11    1    3    3    0    0  0.23150740535E+01  0.41867343352E+01 -0.13372280703E+02  0.14202330926E+02  0.51100000000E-03 0.  1.
        -12    1    3    3    0    0 -0.18974079131E+02 -0.51863173779E+01  0.14962263318E+02  0.24714022142E+02  0.00000000000E+00 0.  1.
</event>
<event>
 7    1  0.1096439E-011  0.5930195E+02  0.7816164E-02  0.1266605E+00
        -11   -1    0    0    0    0  0.00000000000E+00  0.00000000000E+00  0.45593999997E+02  0.45594000000E+02  0.51100000000E-03 0. -1.
         11   -1    0    0    0    0 -0.00000000000E+00 -0.00000000000E+00 -0.45593999997E+02  0.45594000000E+02  0.51100000000E-03 0.  1.
    9900012    2    1    2    0    0  0.42508278918E+01 -0.15192353286E+02  0.27709982292E+02  0.59301948900E+02  0.50000008886E+02 0.  0.
        -12    1    1    2    0    0 -0.42508278918E+01  0.15192353286E+02 -0.27709982292E+02  0.31886051100E+02  0.00000000000E+00 0.  1.
         11    1    3    3    0    0  0.31758181455E+01  0.11155661491E+01  0.12593681280E+02  0.13035763007E+02  0.51100000000E-03 0. -1.
        -11    1    3    3    0    0  0.19095437825E+02 -0.16577929895E+02  0.56590411835E+01  0.25913090373E+02  0.51100000000E-03 0.  1.
        -12    1    3    3    0    0 -0.18020428078E+02  0.27001045972E+00  0.94572598281E+01  0.20353095520E+02  0.00000000000E+00 0.  1.
</event>
<event>
 7    1  0.1096439E-011  0.5930194E+02  0.7816164E-02  0.1266605E+00
        -11   -1    0    0    0    0  0.00000000000E+00  0.00000000000E+00  0.45593999997E+02  0.45594000000E+02  0.51100000000E-03 0. -1.
         11   -1    0    0    0    0 -0.00000000000E+00 -0.00000000000E+00 -0.45593999997E+02  0.45594000000E+02  0.51100000000E-03 0.  1.
    9900012    2    1    2    0    0 -0.16735535549E+02 -0.17119035593E+02  0.21061367240E+02  0.59301941608E+02  0.49999995587E+02 0.  0.
        -12    1    1    2    0    0  0.16735535549E+02  0.17119035593E+02 -0.21061367240E+02  0.31886058392E+02  0.00000000000E+00 0.  1.
         11    1    3    3    0    0 -0.32471890824E+02 -0.10355355170E+02  0.21444975090E+02  0.40268399909E+02  0.51100000000E-03 0. -1.
        -11    1    3    3    0    0  0.95589181552E+01 -0.82344924815E+01  0.47530836242E+00  0.12625597056E+02  0.51100000000E-03 0.  1.
         12    1    3    3    0    0  0.61774371201E+01  0.14708120589E+01 -0.85891621170E+00  0.64079446427E+01  0.00000000000E+00 0. -1.
</event>
<event>
 7    1  0.1096439E-011  0.5930194E+02  0.7816164E-02  0.1266605E+00
        -11   -1    0    0    0    0  0.00000000000E+00  0.00000000000E+00  0.45593999997E+02  0.45594000000E+02  0.51100000000E-03 0.  1.
         11   -1    0    0    0    0 -0.00000000000E+00 -0.00000000000E+00 -0.45593999997E+02  0.45594000000E+02  0.51100000000E-03 0. -1.
    9900012    2    1    2    0    0  0.29316236633E+02 -0.11459236226E+02  0.50956121186E+01  0.59301935833E+02  0.49999985055E+02 0.  0.
        -12    1    1    2    0    0 -0.29316236633E+02  0.11459236226E+02 -0.50956121186E+01  0.31886064167E+02  0.00000000000E+00 0.  1.
         11    1    3    3    0    0  0.12550258869E+02 -0.58631471276E+01  0.16788606338E+02  0.21765633346E+02  0.51100000000E-03 0. -1.
        -11    1    3    3    0    0 -0.48241517946E+01 -0.10679364148E+02  0.13648058263E+01  0.11797624945E+02  0.51100000000E-03 0.  1.
         12    1    3    3    0    0  0.21590129559E+02  0.50832750497E+01 -0.13057800046E+02  0.25738677542E+02  0.00000000000E+00 0. -1.
</event>
<event>
 7    1  0.1096439E-011  0.5930188E+02  0.7816164E-02  0.1266605E+00
        -11   -1    0    0    0    0  0.00000000000E+00  0.00000000000E+00  0.45593999997E+02  0.45594000000E+02  0.51100000000E-03 0.  1.
         11   -1    0    0    0    0 -0.00000000000E+00 -0.00000000000E+00 -0.45593999997E+02  0.45594000000E+02  0.51100000000E-03 0. -1.
    9900012    2    1    2    0    0 -0.13088178138E+02 -0.26391555869E+02  0.12202860909E+02  0.59301883232E+02  0.49999889124E+02 0.  0.
        -12    1    1    2    0    0  0.13088178138E+02  0.26391555869E+02 -0.12202860909E+02  0.31886116768E+02  0.00000000000E+00 0.  1.
         11    1    3    3    0    0 -0.15619106042E+02 -0.17683610392E+02  0.24228321539E+02  0.33818310350E+02  0.51100000000E-03 0. -1.
        -11    1    3    3    0    0  0.10846698577E+02 -0.36008575145E+01 -0.22063063667E+01  0.11639795227E+02  0.51100000000E-03 0.  1.
         12    1    3    3    0    0 -0.83157706733E+01 -0.51070879625E+01 -0.98191542635E+01  0.13843777656E+02  0.00000000000E+00 0. -1.
</event>
<event>
 7    1  0.1096439E-011  0.5930194E+02  0.7816164E-02  0.1266605E+00
        -11   -1    0    0    0    0  0.00000000000E+00  0.00000000000E+00  0.45593999997E+02  0.45594000000E+02  0.51100000000E-03 0.  1.
         11   -1    0    0    0    0 -0.00000000000E+00 -0.00000000000E+00 -0.45593999997E+02  0.45594000000E+02  0.51100000000E-03 0. -1.
    9900012    2    1    2    0    0 -0.12834289662E+02  0.12450930812E+02 -0.26400301734E+02  0.59301943473E+02  0.49999998988E+02 0.  0.
        -12    1    1    2    0    0  0.12834289662E+02 -0.12450930812E+02  0.26400301734E+02  0.31886056527E+02  0.00000000000E+00 0.  1.
         11    1    3    3    0    0  0.35074473866E+00  0.11786369993E+02 -0.20830881948E+02  0.23936732911E+02  0.51100000000E-03 0. -1.
        -11    1    3    3    0    0 -0.10425393892E+02 -0.15009862098E+02  0.62704003808E+00  0.18286004962E+02  0.51100000000E-03 0.  1.
        -12    1    3    3    0    0 -0.27596405085E+01  0.15674422918E+02 -0.61964598241E+01  0.17079205599E+02  0.00000000000E+00 0.  1.
</event>
<event>
 7    1  0.1096439E-011  0.5930195E+02  0.7816164E-02  0.1266605E+00
        -11   -1    0    0    0    0  0.00000000000E+00  0.00000000000E+00  0.45593999997E+02  0.45594000000E+02  0.51100000000E-03 0.  1.
         11   -1    0    0    0    0 -0.00000000000E+00 -0.00000000000E+00 -0.45593999997E+02  0.45594000000E+02  0.51100000000E-03 0. -1.
    9900012    2    1    2    0    0  0.23985383315E+02  0.83766739001E+01 -0.19267926805E+02  0.59301948477E+02  0.50000008114E+02 0.  0.
        -12    1    1    2    0    0 -0.23985383315E+02 -0.83766739001E+01  0.19267926805E+02  0.31886051523E+02  0.00000000000E+00 0.  1.
         11    1    3    3    0    0  0.19616627470E+02  0.93205789203E+01 -0.23093687601E+02  0.31701792883E+02  0.51100000000E-03 0. -1.
        -11    1    3    3    0    0 -0.73966671026E+01 -0.10032921579E+02  0.15914243262E+01  0.12565939332E+02  0.51100000000E-03 0.  1.
        -12    1    3    3    0    0  0.11765422948E+02  0.90890165590E+01  0.22343364701E+01  0.15034216262E+02  0.00000000000E+00 0.  1.
</event>
<event>
 7    1  0.1096439E-011  0.5930221E+02  0.7816164E-02  0.1266604E+00
        -11   -1    0    0    0    0  0.00000000000E+00  0.00000000000E+00  0.45593999997E+02  0.45594000000E+02  0.51100000000E-03 0.  1.
         11   -1    0    0    0    0 -0.00000000000E+00 -0.00000000000E+00 -0.45593999997E+02  0.45594000000E+02  0.51100000000E-03 0. -1.
    9900012    2    1    2    0    0  0.35724797406E+01 -0.21060301101E+02 -0.23672867639E+02  0.59302210748E+02  0.50000486431E+02 0.  0.
        -12    1    1    2    0    0 -0.35724797406E+01  0.21060301101E+02  0.23672867639E+02  0.31885789252E+02  0.00000000000E+00 0.  1.
         11    1    3    3    0    0 -0.15418706948E+02  0.27622605143E+01 -0.10051225120E+00  0.15664504783E+02  0.51100000000E-03 0.  1.
        -11    1    3    3    0    0  0.63166975627E+01 -0.14151170704E+02 -0.22937801837E+02  0.27682107105E+02  0.51100000000E-03 0. -1.
        -12    1    3    3    0    0  0.12674489126E+02 -0.96713909116E+01 -0.63455355074E+00  0.15955598860E+02  0.00000000000E+00 0.  1.
</event>
<event>
 7    1  0.1096439E-011  0.5930196E+02  0.7816164E-02  0.1266605E+00
        -11   -1    0    0    0    0  0.00000000000E+00  0.00000000000E+00  0.45593999997E+02  0.45594000000E+02  0.51100000000E-03 0.  1.
         11   -1    0    0    0    0 -0.00000000000E+00 -0.00000000000E+00 -0.45593999997E+02  0.45594000000E+02  0.51100000000E-03 0. -1.
    9900012    2    1    2    0    0  0.39753910100E+01 -0.12003075890E+02 -0.29271868695E+02  0.59301955068E+02  0.50000020134E+02 0.  0.
        -12    1    1    2    0    0 -0.39753910100E+01  0.12003075890E+02  0.29271868695E+02  0.31886044932E+02  0.00000000000E+00 0.  1.
         11    1    3    3    0    0  0.12659832477E+02 -0.11958936905E+02 -0.83493213672E+01  0.19313174203E+02  0.51100000000E-03 0. -1.
        -11    1    3    3    0    0  0.38193049945E+01  0.10516345067E+02 -0.20803936461E+02  0.23621692928E+02  0.51100000000E-03 0.  1.
        -12    1    3    3    0    0 -0.12503746462E+02 -0.10560484053E+02 -0.11861086667E+00  0.16367087937E+02  0.00000000000E+00 0.  1.
</event>
<event>
 7    1  0.1096439E-011  0.5930182E+02  0.7816164E-02  0.1266605E+00
        -11   -1    0    0    0    0  0.00000000000E+00  0.00000000000E+00  0.45593999997E+02  0.45594000000E+02  0.51100000000E-03 0.  1.
         11   -1    0    0    0    0 -0.00000000000E+00 -0.00000000000E+00 -0.45593999997E+02  0.45594000000E+02  0.51100000000E-03 0. -1.
    9900012    2    1    2    0    0 -0.15947453236E+02  0.27541740025E+02 -0.19646642056E+01  0.59301817824E+02  0.49999769834E+02 0.  0.
        -12    1    1    2    0    0  0.15947453236E+02 -0.27541740025E+02  0.19646642056E+01  0.31886182176E+02  0.00000000000E+00 0.  1.
         11    1    3    3    0    0 -0.13376012770E+02  0.52003406306E+01  0.11377072452E+02  0.18313902864E+02  0.51100000000E-03 0. -1.
        -11    1    3    3    0    0 -0.10681124954E+02  0.27173896308E+02 -0.11434183947E+02  0.31356779708E+02  0.51100000000E-03 0.  1.
        -12    1    3    3    0    0  0.81096844874E+01 -0.48324969136E+01 -0.19075527103E+01  0.96311352523E+01  0.00000000000E+00 0.  1.
</event>
<event>
 7    1  0.1096439E-011  0.5930190E+02  0.7816164E-02  0.1266605E+00
        -11   -1    0    0    0    0  0.00000000000E+00  0.00000000000E+00  0.45593999997E+02  0.45594000000E+02  0.51100000000E-03 0.  1.
         11   -1    0    0    0    0 -0.00000000000E+00 -0.00000000000E+00 -0.45593999997E+02  0.45594000000E+02  0.51100000000E-03 0. -1.
    9900012    2    1    2    0    0  0.10400857335E+02  0.78287395185E+01 -0.29107669351E+02  0.59301899410E+02  0.49999918629E+02 0.  0.
        -12    1    1    2    0    0 -0.10400857335E+02 -0.78287395185E+01  0.29107669351E+02  0.31886100590E+02  0.00000000000E+00 0.  1.
         11    1    3    3    0    0  0.59488624683E+01 -0.18575005324E+02 -0.65865418810E+01  0.20586459668E+02  0.51100000000E-03 0. -1.
        -11    1    3    3    0    0 -0.52679215235E+01  0.75157508750E+01 -0.24704285972E+01  0.95047633378E+01  0.51100000000E-03 0.  1.
         12    1    3    3    0    0  0.97199163902E+01  0.18887993967E+02 -0.20050698873E+02  0.29210676405E+02  0.00000000000E+00 0. -1.
</event>
<event>
 7    1  0.1096439E-011  0.5930199E+02  0.7816164E-02  0.1266605E+00
        -11   -1    0    0    0    0  0.00000000000E+00  0.00000000000E+00  0.45593999997E+02  0.45594000000E+02  0.51100000000E-03 0.  1.
         11   -1    0    0    0    0 -0.00000000000E+00 -0.00000000000E+00 -0.45593999997E+02  0.45594000000E+02  0.51100000000E-03 0. -1.
    9900012    2    1    2    0    0  0.85233137062E+01 -0.30444688007E+02 -0.41462761987E+01  0.59301991929E+02  0.50000087361E+02 0.  0.
        -12    1    1    2    0    0 -0.85233137062E+01  0.30444688007E+02  0.41462761987E+01  0.31886008071E+02  0.00000000000E+00 0.  1.
         11    1    3    3    0    0  0.18525343988E+02 -0.57971730011E+01 -0.11919758993E+02  0.22778855094E+02  0.51100000000E-03 0. -1.
        -11    1    3    3    0    0 -0.62245398309E+01 -0.21046344559E+02  0.15733758979E+02  0.27004530865E+02  0.51100000000E-03 0.  1.
        -12    1    3    3    0    0 -0.37774904504E+01 -0.36011704471E+01 -0.79602761839E+01  0.95186059702E+01  0.00000000000E+00 0.  1.
</event>
<event>
 7    1  0.1096439E-011  0.5930194E+02  0.7816164E-02  0.1266605E+00
        -11   -1    0    0    0    0  0.00000000000E+00  0.00000000000E+00  0.45593999997E+02  0.45594000000E+02  0.51100000000E-03 0. -1.
         11   -1    0    0    0    0 -0.00000000000E+00 -0.00000000000E+00 -0.45593999997E+02  0.45594000000E+02  0.51100000000E-03 0.  1.
    9900012    2    1    2    0    0 -0.26241016340E+02 -0.15342349327E+02  0.96302791957E+01  0.59301938800E+02  0.49999990466E+02 0.  0.
        -12    1    1    2    0    0  0.26241016340E+02  0.15342349327E+02 -0.96302791957E+01  0.31886061200E+02  0.00000000000E+00 0.  1.
         11    1    3    3    0    0 -0.42795218878E+00  0.23095589621E+01  0.36701154683E+01  0.43574021489E+01  0.51100000000E-03 0. -1.
        -11    1    3    3    0    0  0.35163823070E+01 -0.22945866768E+02 -0.39277633233E+01  0.23543684318E+02  0.51100000000E-03 0.  1.
        -12    1    3    3    0    0 -0.29329446458E+02  0.52939584786E+01  0.98879270506E+01  0.31400852334E+02  0.00000000000E+00 0.  1.
</event>
<event>
 7    1  0.1096439E-011  0.5930196E+02  0.7816164E-02  0.1266605E+00
        -11   -1    0    0    0    0  0.00000000000E+00  0.00000000000E+00  0.45593999997E+02  0.45594000000E+02  0.51100000000E-03 0.  1.
         11   -1    0    0    0    0 -0.00000000000E+00 -0.00000000000E+00 -0.45593999997E+02  0.45594000000E+02  0.51100000000E-03 0. -1.
    9900012    2    1    2    0    0  0.20831935184E+02 -0.21843421551E+01 -0.24041193035E+02  0.59301955455E+02  0.50000020841E+02 0.  0.
        -12    1    1    2    0    0 -0.20831935184E+02  0.21843421551E+01  0.24041193035E+02  0.31886044545E+02  0.00000000000E+00 0.  1.
         11    1    3    3    0    0  0.12937770029E+02 -0.45637008024E+01 -0.43831920153E+01  0.14402278668E+02  0.51100000000E-03 0. -1.
        -11    1    3    3    0    0 -0.12711859045E+02 -0.95795037018E+01 -0.11794047583E+02  0.19810547953E+02  0.51100000000E-03 0.  1.
        -12    1    3    3    0    0  0.20606024200E+02  0.11958862349E+02 -0.78639534370E+01  0.25089128834E+02  0.00000000000E+00 0.  1.
</event>
<event>
 7    1  0.1096439E-011  0.5930195E+02  0.7816164E-02  0.1266605E+00
        -11   -1    0    0    0    0  0.00000000000E+00  0.00000000000E+00  0.45593999997E+02  0.45594000000E+02  0.51100000000E-03 0. -1.
         11   -1    0    0    0    0 -0.00000000000E+00 -0.00000000000E+00 -0.45593999997E+02  0.45594000000E+02  0.51100000000E-03 0.  1.
    9900012    2    1    2    0    0 -0.24196573652E+02 -0.95956778212E+01  0.18416543414E+02  0.59301948494E+02  0.50000008145E+02 0.  0.
        -12    1    1    2    0    0  0.24196573652E+02  0.95956778212E+01 -0.18416543414E+02  0.31886051506E+02  0.00000000000E+00 0.  1.
         11    1    3    3    0    0 -0.86023481980E+00 -0.44030633544E+01  0.28381720192E+02  0.28734108864E+02  0.51100000000E-03 0. -1.
        -11    1    3    3    0    0 -0.11124580367E+02  0.12875834957E+01 -0.12203493971E+02  0.16563194890E+02  0.51100000000E-03 0.  1.
        -12    1    3    3    0    0 -0.12211758465E+02 -0.64801979625E+01  0.22383171924E+01  0.14004644740E+02  0.00000000000E+00 0.  1.
</event>
<event>
 7    1  0.1096439E-011  0.5930198E+02  0.7816164E-02  0.1266605E+00
        -11   -1    0    0    0    0  0.00000000000E+00  0.00000000000E+00  0.45593999997E+02  0.45594000000E+02  0.51100000000E-03 0.  1.
         11   -1    0    0    0    0 -0.00000000000E+00 -0.00000000000E+00 -0.45593999997E+02  0.45594000000E+02  0.51100000000E-03 0. -1.
    9900012    2    1    2    0    0  0.17127049369E+02 -0.15840529823E+02 -0.21736146434E+02  0.59301980070E+02  0.50000065733E+02 0.  0.
        -12    1    1    2    0    0 -0.17127049369E+02  0.15840529823E+02  0.21736146434E+02  0.31886019930E+02  0.00000000000E+00 0.  1.
         11    1    3    3    0    0 -0.16390046298E+01 -0.92798130004E+01 -0.24299297797E+02  0.26062562023E+02  0.51100000000E-03 0. -1.
        -11    1    3    3    0    0  0.16707451240E+02  0.61669594810E+01 -0.47297753600E+01  0.18426640806E+02  0.51100000000E-03 0.  1.
         12    1    3    3    0    0  0.20586027585E+01 -0.12727676303E+02  0.72929267233E+01  0.14812777241E+02  0.00000000000E+00 0. -1.
</event>
<event>
 7    1  0.1096439E-011  0.5930194E+02  0.7816164E-02  0.1266605E+00
        -11   -1    0    0    0    0  0.00000000000E+00  0.00000000000E+00  0.45593999997E+02  0.45594000000E+02  0.51100000000E-03 0.  1.
         11   -1    0    0    0    0 -0.00000000000E+00 -0.00000000000E+00 -0.45593999997E+02  0.45594000000E+02  0.51100000000E-03 0. -1.
    9900012    2    1    2    0    0  0.51067422048E+01  0.22004517347E+02 -0.22504296022E+02  0.59301938169E+02  0.49999989316E+02 0.  0.
        -12    1    1    2    0    0 -0.51067422048E+01 -0.22004517347E+02  0.22504296022E+02  0.31886061831E+02  0.00000000000E+00 0.  1.
         11    1    3    3    0    0  0.22579619189E+02  0.99422238508E+00 -0.19893001687E+02  0.30109121496E+02  0.51100000000E-03 0. -1.
        -11    1    3    3    0    0 -0.89591622467E+01  0.39763337998E+01  0.84624692498E+00  0.98383917776E+01  0.51100000000E-03 0.  1.
         12    1    3    3    0    0 -0.85137147376E+01  0.17033961162E+02 -0.34575412606E+01  0.19354424896E+02  0.00000000000E+00 0. -1.
</event>
<event>
 7    1  0.1096439E-011  0.5930193E+02  0.7816164E-02  0.1266605E+00
        -11   -1    0    0    0    0  0.00000000000E+00  0.00000000000E+00  0.45593999997E+02  0.45594000000E+02  0.51100000000E-03 0. -1.
         11   -1    0    0    0    0 -0.00000000000E+00 -0.00000000000E+00 -0.45593999997E+02  0.45594000000E+02  0.51100000000E-03 0.  1.
    9900012    2    1    2    0    0  0.16148779738E+02  0.27213793886E+02  0.39176304851E+01  0.59301929478E+02  0.49999973465E+02 0.  0.
        -12    1    1    2    0    0 -0.16148779738E+02 -0.27213793886E+02 -0.39176304851E+01  0.31886070522E+02  0.00000000000E+00 0.  1.
         11    1    3    3    0    0  0.94495583986E+01 -0.13223970649E+02  0.32405819146E+00  0.16256462334E+02  0.51100000000E-03 0. -1.
        -11    1    3    3    0    0  0.23070467921E+01  0.36902805691E+02  0.47842964971E+01  0.37283093031E+02  0.51100000000E-03 0.  1.
         12    1    3    3    0    0  0.43921745470E+01  0.35349588448E+01 -0.11907242035E+01  0.57623741127E+01  0.00000000000E+00 0. -1.
</event>
<event>
 7    1  0.1096439E-011  0.5930194E+02  0.7816164E-02  0.1266605E+00
        -11   -1    0    0    0    0  0.00000000000E+00  0.00000000000E+00  0.45593999997E+02  0.45594000000E+02  0.51100000000E-03 0.  1.
         11   -1    0    0    0    0 -0.00000000000E+00 -0.00000000000E+00 -0.45593999997E+02  0.45594000000E+02  0.51100000000E-03 0. -1.
    9900012    2    1    2    0    0  0.75827762409E+01  0.23360094012E+02 -0.20335394969E+02  0.59301940721E+02  0.49999993970E+02 0.  0.
        -12    1    1    2    0    0 -0.75827762409E+01 -0.23360094012E+02  0.20335394969E+02  0.31886059279E+02  0.00000000000E+00 0.  1.
         11    1    3    3    0    0 -0.51164311765E+01  0.20876631444E+02 -0.68284127615E+01  0.22553022625E+02  0.51100000000E-03 0. -1.
        -11    1    3    3    0    0  0.23379443828E+02  0.23165480199E+01 -0.94275416139E+01  0.25314883558E+02  0.51100000000E-03 0.  1.
        -12    1    3    3    0    0 -0.10680236411E+02  0.16691454825E+00 -0.40794405939E+01  0.11434034538E+02  0.00000000000E+00 0.  1.
</event>
<event>
 7    1  0.1096439E-011  0.5930195E+02  0.7816164E-02  0.1266605E+00
        -11   -1    0    0    0    0  0.00000000000E+00  0.00000000000E+00  0.45593999997E+02  0.45594000000E+02  0.51100000000E-03 0.  1.
         11   -1    0    0    0    0 -0.00000000000E+00 -0.00000000000E+00 -0.45593999997E+02  0.45594000000E+02  0.51100000000E-03 0. -1.
    9900012    2    1    2    0    0  0.88231871478E+01  0.30353295653E+02  0.41891362196E+01  0.59301952100E+02  0.50000014722E+02 0.  0.
        -12    1    1    2    0    0 -0.88231871478E+01 -0.30353295653E+02 -0.41891362196E+01  0.31886047900E+02  0.00000000000E+00 0.  1.
         11    1    3    3    0    0 -0.10686602941E+02 -0.73693949790E+01 -0.65125019592E+01  0.14523227837E+02  0.51100000000E-03 0. -1.
        -11    1    3    3    0    0  0.47854706441E+01  0.32535847961E+01  0.29812275621E+01  0.65095515475E+01  0.51100000000E-03 0.  1.
         12    1    3    3    0    0  0.14724319445E+02  0.34469105836E+02  0.77204106166E+01  0.38269172715E+02  0.00000000000E+00 0. -1.
</event>
<event>
 7    1  0.1096439E-011  0.5930196E+02  0.7816164E-02  0.1266605E+00
        -11   -1    0    0    0    0  0.00000000000E+00  0.00000000000E+00  0.45593999997E+02  0.45594000000E+02  0.51100000000E-03 0.  1.
         11   -1    0    0    0    0 -0.00000000000E+00 -0.00000000000E+00 -0.45593999997E+02  0.45594000000E+02  0.51100000000E-03 0. -1.
    9900012    2    1    2    0    0 -0.24385809540E+02 -0.20335351322E+02 -0.29197930546E+01  0.59301962118E+02  0.50000032993E+02 0.  0.
        -12    1    1    2    0    0  0.24385809540E+02  0.20335351322E+02  0.29197930546E+01  0.31886037882E+02  0.00000000000E+00 0.  1.
         11    1    3    3    0    0 -0.18979661596E+02 -0.18102705768E+02 -0.79693658475E+01  0.27412520911E+02  0.51100000000E-03 0. -1.
        -11    1    3    3    0    0 -0.78616527203E+01 -0.30069423536E+01  0.17370500641E+02  0.19302372356E+02  0.51100000000E-03 0.  1.
        -12    1    3    3    0    0  0.24555047760E+01  0.77429679976E+00 -0.12320927848E+02  0.12587068851E+02  0.00000000000E+00 0.  1.
</event>
<event>
 7    1  0.1096439E-011  0.5930195E+02  0.7816164E-02  0.1266605E+00
        -11   -1    0    0    0    0  0.00000000000E+00  0.00000000000E+00  0.45593999997E+02  0.45594000000E+02  0.51100000000E-03 0.  1.
         11   -1    0    0    0    0 -0.00000000000E+00 -0.00000000000E+00 -0.45593999997E+02  0.45594000000E+02  0.51100000000E-03 0. -1.
    9900012    2    1    2    0    0 -0.23899156260E+02  0.20438507684E+02 -0.52742429846E+01  0.59301954378E+02  0.50000018877E+02 0.  0.
        -12    1    1    2    0    0  0.23899156260E+02 -0.20438507684E+02  0.52742429846E+01  0.31886045622E+02  0.00000000000E+00 0.  1.
         11    1    3    3    0    0 -0.37464467481E+02  0.22117066889E+02 -0.18916980196E+00  0.43506169182E+02  0.51100000000E-03 0. -1.
        -11    1    3    3    0    0  0.84122040563E+01  0.16342019085E+01 -0.43955310996E+01  0.96310169178E+01  0.51100000000E-03 0.  1.
         12    1    3    3    0    0  0.51531071646E+01 -0.33127611129E+01 -0.68954208300E+00  0.61647682783E+01  0.00000000000E+00 0. -1.
</event>
<event>
 7    1  0.1096439E-011  0.5930198E+02  0.7816164E-02  0.1266605E+00
        -11   -1    0    0    0    0  0.00000000000E+00  0.00000000000E+00  0.45593999997E+02  0.45594000000E+02  0.51100000000E-03 0.  1.
         11   -1    0    0    0    0 -0.00000000000E+00 -0.00000000000E+00 -0.45593999997E+02  0.45594000000E+02  0.51100000000E-03 0. -1.
    9900012    2    1    2    0    0  0.13425608987E+02 -0.28901262039E+02 -0.10901811435E+01  0.59301977685E+02  0.50000061383E+02 0.  0.
        -12    1    1    2    0    0 -0.13425608987E+02  0.28901262039E+02  0.10901811435E+01  0.31886022315E+02  0.00000000000E+00 0.  1.
         11    1    3    3    0    0 -0.97044872500E+01 -0.32712881179E+02 -0.36850514859E+01  0.34320391498E+02  0.51100000000E-03 0. -1.
        -11    1    3    3    0    0  0.30050562508E+01 -0.11445671558E+00  0.33004563105E+01  0.44650280546E+01  0.51100000000E-03 0.  1.
         12    1    3    3    0    0  0.20125039986E+02  0.39260758556E+01 -0.70558596813E+00  0.20516558133E+02  0.00000000000E+00 0. -1.
</event>
<event>
 7    1  0.1096439E-011  0.5930196E+02  0.7816164E-02  0.1266605E+00
        -11   -1    0    0    0    0  0.00000000000E+00  0.00000000000E+00  0.45593999997E+02  0.45594000000E+02  0.51100000000E-03 0.  1.
         11   -1    0    0    0    0 -0.00000000000E+00 -0.00000000000E+00 -0.45593999997E+02  0.45594000000E+02  0.51100000000E-03 0. -1.
    9900012    2    1    2    0    0 -0.19938339723E+02  0.22628963435E+02 -0.10349490627E+02  0.59301963349E+02  0.50000035238E+02 0.  0.
        -12    1    1    2    0    0  0.19938339723E+02 -0.22628963435E+02  0.10349490627E+02  0.31886036651E+02  0.00000000000E+00 0.  1.
         11    1    3    3    0    0 -0.14752810316E+02  0.13781137791E+02  0.10973002530E+02  0.22977640345E+02  0.51100000000E-03 0. -1.
        -11    1    3    3    0    0  0.76905728020E+01 -0.56663573370E+01 -0.10135921778E+02  0.13928008689E+02  0.51100000000E-03 0.  1.
        -12    1    3    3    0    0 -0.12876102209E+02  0.14514182981E+02 -0.11186571379E+02  0.22396314316E+02  0.00000000000E+00 0.  1.
</event>
<event>
 7    1  0.1096439E-011  0.5930195E+02  0.7816164E-02  0.1266605E+00
        -11   -1    0    0    0    0  0.00000000000E+00  0.00000000000E+00  0.45593999997E+02  0.45594000000E+02  0.51100000000E-03 0.  1.
         11   -1    0    0    0    0 -0.00000000000E+00 -0.00000000000E+00 -0.45593999997E+02  0.45594000000E+02  0.51100000000E-03 0. -1.
    9900012    2    1    2    0    0 -0.17997013254E+02 -0.36865803752E+01 -0.26062170916E+02  0.59301951111E+02  0.50000012918E+02 0.  0.
        -12    1    1    2    0    0  0.17997013254E+02  0.36865803752E+01  0.26062170916E+02  0.31886048889E+02  0.00000000000E+00 0.  1.
         11    1    3    3    0    0 -0.30923872495E+02  0.82542943338E+00 -0.24532465230E+02  0.39481756221E+02  0.51100000000E-03 0. -1.
        -11    1    3    3    0    0  0.66875823338E+01  0.18673140633E+00  0.59886144463E+01  0.89789826449E+01  0.51100000000E-03 0.  1.
         12    1    3    3    0    0  0.62392769070E+01 -0.46987412150E+01 -0.75183201321E+01  0.10841212245E+02  0.00000000000E+00 0. -1.
</event>
<event>
 7    1  0.1096439E-011  0.5930195E+02  0.7816164E-02  0.1266605E+00
        -11   -1    0    0    0    0  0.00000000000E+00  0.00000000000E+00  0.45593999997E+02  0.45594000000E+02  0.51100000000E-03 0.  1.
         11   -1    0    0    0    0 -0.00000000000E+00 -0.00000000000E+00 -0.45593999997E+02  0.45594000000E+02  0.51100000000E-03 0. -1.
    9900012    2    1    2    0    0 -0.20282987441E+02 -0.13448067752E+02 -0.20602671995E+02  0.59301949772E+02  0.50000010477E+02 0.  0.
        -12    1    1    2    0    0  0.20282987441E+02  0.13448067752E+02  0.20602671995E+02  0.31886050228E+02  0.00000000000E+00 0.  1.
         11    1    3    3    0    0 -0.49089216019E+01 -0.10705170041E+02 -0.31074660593E+02  0.33231501743E+02  0.51100000000E-03 0. -1.
        -11    1    3    3    0    0 -0.17327457912E+02 -0.60057243665E+01  0.12060493645E+02  0.21949146455E+02  0.51100000000E-03 0.  1.
        -12    1    3    3    0    0  0.19533920737E+01  0.32628266556E+01 -0.15885050479E+01  0.41213015742E+01  0.00000000000E+00 0.  1.
</event>
<event>
 7    1  0.1096439E-011  0.5930193E+02  0.7816164E-02  0.1266605E+00
        -11   -1    0    0    0    0  0.00000000000E+00  0.00000000000E+00  0.45593999997E+02  0.45594000000E+02  0.51100000000E-03 0. -1.
         11   -1    0    0    0    0 -0.00000000000E+00 -0.00000000000E+00 -0.45593999997E+02  0.45594000000E+02  0.51100000000E-03 0.  1.
    9900012    2    1    2    0    0 -0.37300623396E+01  0.24162024482E+02 -0.20469608981E+02  0.59301926489E+02  0.49999968013E+02 0.  0.
        -12    1    1    2    0    0  0.37300623396E+01 -0.24162024482E+02  0.20469608981E+02  0.31886073511E+02  0.00000000000E+00 0.  1.
         11    1    3    3    0    0 -0.13242223512E+02  0.29721046398E+02 -0.29685304466E+01  0.32672760149E+02  0.51100000000E-03 0. -1.
        -11    1    3    3    0    0  0.17551653475E+01  0.45458394023E+01 -0.11615780597E+02  0.12596492386E+02  0.51100000000E-03 0.  1.
         12    1    3    3    0    0  0.77569958248E+01 -0.10104861318E+02 -0.58852979372E+01  0.14032673954E+02  0.00000000000E+00 0. -1.
</event>
<event>
 7    1  0.1096439E-011  0.5930194E+02  0.7816164E-02  0.1266605E+00
        -11   -1    0    0    0    0  0.00000000000E+00  0.00000000000E+00  0.45593999997E+02  0.45594000000E+02  0.51100000000E-03 0.  1.
         11   -1    0    0    0    0 -0.00000000000E+00 -0.00000000000E+00 -0.45593999997E+02  0.45594000000E+02  0.51100000000E-03 0. -1.
    9900012    2    1    2    0    0 -0.11637866874E+02 -0.19246204115E+02  0.22602312901E+02  0.59301939305E+02  0.49999991386E+02 0.  0.
        -12    1    1    2    0    0  0.11637866874E+02  0.19246204115E+02 -0.22602312901E+02  0.31886060695E+02  0.00000000000E+00 0.  1.
         11    1    3    3    0    0 -0.12402320416E+02 -0.13553613270E+02 -0.10057095357E+02  0.20944286850E+02  0.51100000000E-03 0. -1.
        -11    1    3    3    0    0  0.50926883651E+01 -0.10551028054E+02  0.28007005858E+02  0.30358722720E+02  0.51100000000E-03 0.  1.
        -12    1    3    3    0    0 -0.43282348224E+01  0.48584372100E+01  0.46524023996E+01  0.79989297339E+01  0.00000000000E+00 0.  1.
</event>
<event>
 7    1  0.1096439E-011  0.5930195E+02  0.7816164E-02  0.1266605E+00
        -11   -1    0    0    0    0  0.00000000000E+00  0.00000000000E+00  0.45593999997E+02  0.45594000000E+02  0.51100000000E-03 0.  1.
         11   -1    0    0    0    0 -0.00000000000E+00 -0.00000000000E+00 -0.45593999997E+02  0.45594000000E+02  0.51100000000E-03 0. -1.
    9900012    2    1    2    0    0  0.28330046115E+02 -0.20492274387E+01 -0.14488944221E+02  0.59301947397E+02  0.50000006144E+02 0.  0.
        -12    1    1    2    0    0 -0.28330046115E+02  0.20492274387E+01  0.14488944221E+02  0.31886052603E+02  0.00000000000E+00 0.  1.
         11    1    3    3    0    0  0.70752720981E+01  0.43324642009E+01 -0.29248749003E+02  0.30402615674E+02  0.51100000000E-03 0. -1.
        -11    1    3    3    0    0  0.16232702346E+02  0.60205492280E+00  0.96146969332E+01  0.18876056076E+02  0.51100000000E-03 0.  1.
        -12    1    3    3    0    0  0.50220716708E+01 -0.69837465624E+01  0.51451078488E+01  0.10023275647E+02  0.00000000000E+00 0.  1.
</event>
<event>
 7    1  0.1096439E-011  0.5930194E+02  0.7816164E-02  0.1266605E+00
        -11   -1    0    0    0    0  0.00000000000E+00  0.00000000000E+00  0.45593999997E+02  0.45594000000E+02  0.51100000000E-03 0. -1.
         11   -1    0    0    0    0 -0.00000000000E+00 -0.00000000000E+00 -0.45593999997E+02  0.45594000000E+02  0.51100000000E-03 0.  1.
    9900012    2    1    2    0    0  0.18175224087E+02  0.17361648160E+02  0.19620276733E+02  0.59301939464E+02  0.49999991676E+02 0.  0.
        -12    1    1    2    0    0 -0.18175224087E+02 -0.17361648160E+02 -0.19620276733E+02  0.31886060536E+02  0.00000000000E+00 0.  1.
         11    1    3    3    0    0 -0.21703888032E+00  0.11053045616E+02  0.23893735694E+02  0.26327315263E+02  0.51100000000E-03 0. -1.
        -11    1    3    3    0    0 -0.30495888929E+01  0.67231954426E+01 -0.83491260036E+01  0.11144920577E+02  0.51100000000E-03 0.  1.
         12    1    3    3    0    0  0.21441851860E+02 -0.41459289842E+00  0.40756670423E+01  0.21829703624E+02  0.00000000000E+00 0. -1.
</event>
<event>
 7    1  0.1096439E-011  0.5930196E+02  0.7816164E-02  0.1266605E+00
        -11   -1    0    0    0    0  0.00000000000E+00  0.00000000000E+00  0.45593999997E+02  0.45594000000E+02  0.51100000000E-03 0.  1.
         11   -1    0    0    0    0 -0.00000000000E+00 -0.00000000000E+00 -0.45593999997E+02  0.45594000000E+02  0.51100000000E-03 0. -1.
    9900012    2    1    2    0    0 -0.19153758558E+02  0.20584405759E+02 -0.15037803812E+02  0.59301956488E+02  0.50000022725E+02 0.  0.
        -12    1    1    2    0    0  0.19153758558E+02 -0.20584405759E+02  0.15037803812E+02  0.31886043512E+02  0.00000000000E+00 0.  1.
         11    1    3    3    0    0 -0.26310648101E+02 -0.62495249550E+01  0.80865513676E+00  0.27054772020E+02  0.51100000000E-03 0. -1.
        -11    1    3    3    0    0  0.64813979830E+01  0.17096780333E+02 -0.11148192309E+02  0.21414728800E+02  0.51100000000E-03 0.  1.
         12    1    3    3    0    0  0.67549156021E+00  0.97371503805E+01 -0.46982666398E+01  0.10832455668E+02  0.00000000000E+00 0. -1.
</event>
<event>
 7    1  0.1096439E-011  0.5930221E+02  0.7816164E-02  0.1266604E+00
        -11   -1    0    0    0    0  0.00000000000E+00  0.00000000000E+00  0.45593999997E+02  0.45594000000E+02  0.51100000000E-03 0.  1.
         11   -1    0    0    0    0 -0.00000000000E+00 -0.00000000000E+00 -0.45593999997E+02  0.45594000000E+02  0.51100000000E-03 0. -1.
    9900012    2    1    2    0    0  0.52941048127E+01 -0.29684706913E+02  0.10367953892E+02  0.59302206327E+02  0.50000478368E+02 0.  0.
        -12    1    1    2    0    0 -0.52941048127E+01  0.29684706913E+02 -0.10367953892E+02  0.31885793673E+02  0.00000000000E+00 0.  1.
         11    1    3    3    0    0  0.61071379827E+01  0.10539655829E+02 -0.63209265042E+01  0.13723541506E+02  0.51100000000E-03 0. -1.
        -11    1    3    3    0    0  0.31214506804E+01 -0.25962891074E+02  0.47718455601E+01  0.26581679360E+02  0.51100000000E-03 0.  1.
         12    1    3    3    0    0 -0.39344838504E+01 -0.14261471668E+02  0.11917034836E+02  0.18996985460E+02  0.00000000000E+00 0. -1.
</event>
<event>
 7    1  0.1096439E-011  0.5930193E+02  0.7816164E-02  0.1266605E+00
        -11   -1    0    0    0    0  0.00000000000E+00  0.00000000000E+00  0.45593999997E+02  0.45594000000E+02  0.51100000000E-03 0. -1.
         11   -1    0    0    0    0 -0.00000000000E+00 -0.00000000000E+00 -0.45593999997E+02  0.45594000000E+02  0.51100000000E-03 0.  1.
    9900012    2    1    2    0    0 -0.11148829599E+02 -0.77146436999E+01  0.28860171610E+02  0.59301927269E+02  0.49999969436E+02 0.  0.
        -12    1    1    2    0    0  0.11148829599E+02  0.77146436999E+01 -0.28860171610E+02  0.31886072731E+02  0.00000000000E+00 0.  1.
         11    1    3    3    0    0  0.12334375533E+02  0.88291009152E+01  0.19373053833E+02  0.24604980347E+02  0.51100000000E-03 0. -1.
        -11    1    3    3    0    0  0.58464877072E+00 -0.63269967876E+01 -0.11720209858E+01  0.64611404556E+01  0.51100000000E-03 0.  1.
         12    1    3    3    0    0 -0.24067853903E+02 -0.10216747828E+02  0.10659138763E+02  0.28235806467E+02  0.00000000000E+00 0. -1.
</event>
<event>
 7    1  0.1096439E-011  0.5930193E+02  0.7816164E-02  0.1266605E+00
        -11   -1    0    0    0    0  0.00000000000E+00  0.00000000000E+00  0.45593999997E+02  0.45594000000E+02  0.51100000000E-03 0.  1.
         11   -1    0    0    0    0 -0.00000000000E+00 -0.00000000000E+00 -0.45593999997E+02  0.45594000000E+02  0.51100000000E-03 0. -1.
    9900012    2    1    2    0    0  0.30280021076E+02 -0.88894265651E+01  0.45628960323E+01  0.59301927786E+02  0.49999970379E+02 0.  0.
        -12    1    1    2    0    0 -0.30280021076E+02  0.88894265651E+01 -0.45628960323E+01  0.31886072214E+02  0.00000000000E+00 0.  1.
         11    1    3    3    0    0  0.39351784177E+01  0.11099436648E+02  0.22865687183E+00  0.11778599548E+02  0.51100000000E-03 0. -1.
        -11    1    3    3    0    0  0.89962654489E+01 -0.12968707710E+02  0.18303987815E+02  0.24169322330E+02  0.51100000000E-03 0.  1.
        -12    1    3    3    0    0  0.17348577209E+02 -0.70201555030E+01 -0.13969748655E+02  0.23354005908E+02  0.00000000000E+00 0.  1.
</event>
<event>
 7    1  0.1096439E-011  0.5930203E+02  0.7816164E-02  0.1266604E+00
        -11   -1    0    0    0    0  0.00000000000E+00  0.00000000000E+00  0.45593999997E+02  0.45594000000E+02  0.51100000000E-03 0.  1.
         11   -1    0    0    0    0 -0.00000000000E+00 -0.00000000000E+00 -0.45593999997E+02  0.45594000000E+02  0.51100000000E-03 0. -1.
    9900012    2    1    2    0    0 -0.15600636818E+02 -0.10343163490E+02 -0.25813836340E+02  0.59302030567E+02  0.50000157826E+02 0.  0.
        -12    1    1    2    0    0  0.15600636818E+02  0.10343163490E+02  0.25813836340E+02  0.31885969433E+02  0.00000000000E+00 0.  1.
         11    1    3    3    0    0 -0.18085317138E+02 -0.12872065877E+02 -0.28667546922E+02  0.36257371977E+02  0.51100000000E-03 0. -1.
        -11    1    3    3    0    0  0.59813854978E+01  0.96382503041E+00 -0.88526864890E+01  0.10727347738E+02  0.51100000000E-03 0.  1.
         12    1    3    3    0    0 -0.34967051786E+01  0.15650773573E+01  0.11706397070E+02  0.12317310851E+02  0.00000000000E+00 0. -1.
</event>
<event>
 7    1  0.1096439E-011  0.5930196E+02  0.7816164E-02  0.1266605E+00
        -11   -1    0    0    0    0  0.00000000000E+00  0.00000000000E+00  0.45593999997E+02  0.45594000000E+02  0.51100000000E-03 0.  1.
         11   -1    0    0    0    0 -0.00000000000E+00 -0.00000000000E+00 -0.45593999997E+02  0.45594000000E+02  0.51100000000E-03 0. -1.
    9900012    2    1    2    0    0  0.19958212276E+02 -0.21301342368E+02 -0.12831303575E+02  0.59301956418E+02  0.50000022596E+02 0.  0.
        -12    1    1    2    0    0 -0.19958212276E+02  0.21301342368E+02  0.12831303575E+02  0.31886043582E+02  0.00000000000E+00 0.  1.
         11    1    3    3    0    0 -0.66143389001E+01 -0.10996156140E+02 -0.20612951012E+02  0.24280829447E+02  0.51100000000E-03 0. -1.
        -11    1    3    3    0    0  0.16785729327E+02 -0.15667971333E+02  0.58506536429E+01  0.23695488665E+02  0.51100000000E-03 0.  1.
        -12    1    3    3    0    0  0.97868218488E+01  0.53627851060E+01  0.19309937947E+01  0.11325638306E+02  0.00000000000E+00 0.  1.
</event>
<event>
 7    1  0.1096439E-011  0.5930195E+02  0.7816164E-02  0.1266605E+00
        -11   -1    0    0    0    0  0.00000000000E+00  0.00000000000E+00  0.45593999997E+02  0.45594000000E+02  0.51100000000E-03 0.  1.
         11   -1    0    0    0    0 -0.00000000000E+00 -0.00000000000E+00 -0.45593999997E+02  0.45594000000E+02  0.51100000000E-03 0. -1.
    9900012    2    1    2    0    0  0.18697116509E+02 -0.91301675822E+01 -0.24161504807E+02  0.59301945990E+02  0.50000003578E+02 0.  0.
        -12    1    1    2    0    0 -0.18697116509E+02  0.91301675822E+01  0.24161504807E+02  0.31886054010E+02  0.00000000000E+00 0.  1.
         11    1    3    3    0    0 -0.29313849010E-02 -0.15834803472E+01 -0.16117648389E+01  0.22594700175E+01  0.51100000000E-03 0. -1.
        -11    1    3    3    0    0  0.25679881778E+02  0.30680935307E+01  0.53288295375E+01  0.26405793883E+02  0.51100000000E-03 0.  1.
        -12    1    3    3    0    0 -0.69798338849E+01 -0.10614780766E+02 -0.27878569506E+02  0.30636682089E+02  0.00000000000E+00 0.  1.
</event>
<event>
 7    1  0.1096439E-011  0.5930188E+02  0.7816164E-02  0.1266605E+00
        -11   -1    0    0    0    0  0.00000000000E+00  0.00000000000E+00  0.45593999997E+02  0.45594000000E+02  0.51100000000E-03 0. -1.
         11   -1    0    0    0    0 -0.00000000000E+00 -0.00000000000E+00 -0.45593999997E+02  0.45594000000E+02  0.51100000000E-03 0.  1.
    9900012    2    1    2    0    0 -0.26990331211E+02 -0.91787294231E+01  0.14282766613E+02  0.59301882726E+02  0.49999888200E+02 0.  0.
        -12    1    1    2    0    0  0.26990331211E+02  0.91787294231E+01 -0.14282766613E+02  0.31886117274E+02  0.00000000000E+00 0.  1.
         11    1    3    3    0    0 -0.16625543940E+02  0.53944183478E+01 -0.74631017305E+01  0.19005429443E+02  0.51100000000E-03 0. -1.
        -11    1    3    3    0    0 -0.29893215902E+01 -0.17104945014E+02  0.26112740642E+02  0.31359056293E+02  0.51100000000E-03 0.  1.
        -12    1    3    3    0    0 -0.73754656812E+01  0.25317972429E+01 -0.43668722983E+01  0.89373969904E+01  0.00000000000E+00 0.  1.
</event>
<event>
 7    1  0.1096439E-011  0.5930195E+02  0.7816164E-02  0.1266605E+00
        -11   -1    0    0    0    0  0.00000000000E+00  0.00000000000E+00  0.45593999997E+02  0.45594000000E+02  0.51100000000E-03 0.  1.
         11   -1    0    0    0    0 -0.00000000000E+00 -0.00000000000E+00 -0.45593999997E+02  0.45594000000E+02  0.51100000000E-03 0. -1.
    9900012    2    1    2    0    0 -0.12457114887E+02  0.23034137543E+02 -0.18192553480E+02  0.59301949668E+02  0.50000010287E+02 0.  0.
        -12    1    1    2    0    0  0.12457114887E+02 -0.23034137543E+02  0.18192553480E+02  0.31886050332E+02  0.00000000000E+00 0.  1.
         11    1    3    3    0    0  0.84558170230E+01  0.14554498059E+02 -0.42037315388E+01  0.17349513376E+02  0.51100000000E-03 0. -1.
        -11    1    3    3    0    0 -0.12557596747E+02 -0.99488919399E+01 -0.14647301074E+02  0.21707535925E+02  0.51100000000E-03 0.  1.
         12    1    3    3    0    0 -0.83553351628E+01  0.18428531423E+02  0.65847913307E+00  0.20244900367E+02  0.00000000000E+00 0. -1.
</event>
<event>
 7    1  0.1096439E-011  0.5930195E+02  0.7816164E-02  0.1266605E+00
        -11   -1    0    0    0    0  0.00000000000E+00  0.00000000000E+00  0.45593999997E+02  0.45594000000E+02  0.51100000000E-03 0.  1.
         11   -1    0    0    0    0 -0.00000000000E+00 -0.00000000000E+00 -0.45593999997E+02  0.45594000000E+02  0.51100000000E-03 0. -1.
    9900012    2    1    2    0    0 -0.16194542756E+02 -0.94356276873E+01 -0.25795852968E+02  0.59301947951E+02  0.50000007155E+02 0.  0.
        -12    1    1    2    0    0  0.16194542756E+02  0.94356276873E+01  0.25795852968E+02  0.31886052049E+02  0.00000000000E+00 0.  1.
         11    1    3    3    0    0 -0.24015022369E+02 -0.78278120151E+01 -0.11862218505E+02  0.27905343009E+02  0.51100000000E-03 0. -1.
        -11    1    3    3    0    0  0.50943106100E+01 -0.44124979485E+01  0.72244581626E+01  0.98800270617E+01  0.51100000000E-03 0.  1.
         12    1    3    3    0    0  0.27261690028E+01  0.28046822763E+01 -0.21158092626E+02  0.21516577880E+02  0.00000000000E+00 0. -1.
</event>
<event>
 7    1  0.1096439E-011  0.5930194E+02  0.7816164E-02  0.1266605E+00
        -11   -1    0    0    0    0  0.00000000000E+00  0.00000000000E+00  0.45593999997E+02  0.45594000000E+02  0.51100000000E-03 0.  1.
         11   -1    0    0    0    0 -0.00000000000E+00 -0.00000000000E+00 -0.45593999997E+02  0.45594000000E+02  0.51100000000E-03 0. -1.
    9900012    2    1    2    0    0  0.15606434931E+02  0.12423235971E+02 -0.24876154600E+02  0.59301942373E+02  0.49999996983E+02 0.  0.
        -12    1    1    2    0    0 -0.15606434931E+02 -0.12423235971E+02  0.24876154600E+02  0.31886057627E+02  0.00000000000E+00 0.  1.
         11    1    3    3    0    0 -0.42946295763E+01  0.35755771128E+01  0.11389309577E+02  0.12686408782E+02  0.51100000000E-03 0.  1.
        -11    1    3    3    0    0  0.21821135190E+02  0.32923552765E+01 -0.21883140653E+02  0.31078503654E+02  0.51100000000E-03 0. -1.
        -12    1    3    3    0    0 -0.19200706822E+01  0.55553035819E+01 -0.14382323524E+02  0.15537029937E+02  0.00000000000E+00 0.  1.
</event>
<event>
 7    1  0.1096439E-011  0.5930198E+02  0.7816164E-02  0.1266605E+00
        -11   -1    0    0    0    0  0.00000000000E+00  0.00000000000E+00  0.45593999997E+02  0.45594000000E+02  0.51100000000E-03 0. -1.
         11   -1    0    0    0    0 -0.00000000000E+00 -0.00000000000E+00 -0.45593999997E+02  0.45594000000E+02  0.51100000000E-03 0.  1.
    9900012    2    1    2    0    0 -0.26546185919E+02 -0.10038239894E+02  0.14534507382E+02  0.59301981875E+02  0.50000069025E+02 0.  0.
        -12    1    1    2    0    0  0.26546185919E+02  0.10038239894E+02 -0.14534507382E+02  0.31886018125E+02  0.00000000000E+00 0.  1.
         11    1    3    3    0    0 -0.27543919829E+02 -0.67773032768E+01  0.36333036986E+01  0.28597207124E+02  0.51100000000E-03 0. -1.
        -11    1    3    3    0    0  0.80715774351E+01 -0.13026682276E+02  0.14679389319E+01  0.15394793223E+02  0.51100000000E-03 0.  1.
        -12    1    3    3    0    0 -0.70738435248E+01  0.97657456597E+01  0.94332647517E+01  0.15309981528E+02  0.00000000000E+00 0.  1.
</event>
<event>
 7    1  0.1096439E-011  0.5930194E+02  0.7816164E-02  0.1266605E+00
        -11   -1    0    0    0    0  0.00000000000E+00  0.00000000000E+00  0.45593999997E+02  0.45594000000E+02  0.51100000000E-03 0. -1.
         11   -1    0    0    0    0 -0.00000000000E+00 -0.00000000000E+00 -0.45593999997E+02  0.45594000000E+02  0.51100000000E-03 0.  1.
    9900012    2    1    2    0    0 -0.23454006862E+02  0.21486898180E+02  0.22233668385E+01  0.59301943621E+02  0.49999999259E+02 0.  0.
        -12    1    1    2    0    0  0.23454006862E+02 -0.21486898180E+02 -0.22233668385E+01  0.31886056379E+02  0.00000000000E+00 0.  1.
         11    1    3    3    0    0 -0.20804231615E+02 -0.51465533029E+01 -0.23643724654E+01  0.21561384960E+02  0.51100000000E-03 0. -1.
        -11    1    3    3    0    0 -0.38218015518E-01  0.22227441384E+02 -0.84137313851E+01  0.23766604452E+02  0.51100000000E-03 0.  1.
         12    1    3    3    0    0 -0.26115572314E+01  0.44060100990E+01  0.13001470689E+02  0.13973954209E+02  0.00000000000E+00 0. -1.
</event>
<event>
 7    1  0.1096439E-011  0.5930196E+02  0.7816164E-02  0.1266605E+00
        -11   -1    0    0    0    0  0.00000000000E+00  0.00000000000E+00  0.45593999997E+02  0.45594000000E+02  0.51100000000E-03 0. -1.
         11   -1    0    0    0    0 -0.00000000000E+00 -0.00000000000E+00 -0.45593999997E+02  0.45594000000E+02  0.51100000000E-03 0.  1.
    9900012    2    1    2    0    0  0.22486970481E+02 -0.17366400752E+02  0.14472860231E+02  0.59301962307E+02  0.50000033337E+02 0.  0.
        -12    1    1    2    0    0 -0.22486970481E+02  0.17366400752E+02 -0.14472860231E+02  0.31886037693E+02  0.00000000000E+00 0.  1.
         11    1    3    3    0    0  0.16543765732E+02 -0.80300811023E+01  0.26969353275E+02  0.32642371290E+02  0.51100000000E-03 0. -1.
        -11    1    3    3    0    0  0.24247480306E+01  0.66784786326E+01 -0.45659559178E+01  0.84456754355E+01  0.51100000000E-03 0.  1.
         12    1    3    3    0    0  0.35184567184E+01 -0.16014798282E+02 -0.79305371261E+01  0.18213915582E+02  0.00000000000E+00 0. -1.
</event>
<event>
 7    1  0.1096439E-011  0.5930194E+02  0.7816164E-02  0.1266605E+00
        -11   -1    0    0    0    0  0.00000000000E+00  0.00000000000E+00  0.45593999997E+02  0.45594000000E+02  0.51100000000E-03 0.  1.
         11   -1    0    0    0    0 -0.00000000000E+00 -0.00000000000E+00 -0.45593999997E+02  0.45594000000E+02  0.51100000000E-03 0. -1.
    9900012    2    1    2    0    0 -0.22967530748E+02  0.15458642942E+02 -0.15819095189E+02  0.59301939051E+02  0.49999990923E+02 0.  0.
        -12    1    1    2    0    0  0.22967530748E+02 -0.15458642942E+02  0.15819095189E+02  0.31886060949E+02  0.00000000000E+00 0.  1.
         11    1    3    3    0    0 -0.11139147109E+02 -0.10977579463E+01 -0.26124715208E+02  0.28421583625E+02  0.51100000000E-03 0. -1.
        -11    1    3    3    0    0 -0.11161026962E+02  0.19054342463E+02  0.19899182802E+01  0.22171970245E+02  0.51100000000E-03 0.  1.
        -12    1    3    3    0    0 -0.66735667684E+00 -0.24979415738E+01  0.83157017384E+01  0.87083851799E+01  0.00000000000E+00 0.  1.
</event>
<event>
 7    1  0.1096439E-011  0.5930194E+02  0.7816164E-02  0.1266605E+00
        -11   -1    0    0    0    0  0.00000000000E+00  0.00000000000E+00  0.45593999997E+02  0.45594000000E+02  0.51100000000E-03 0.  1.
         11   -1    0    0    0    0 -0.00000000000E+00 -0.00000000000E+00 -0.45593999997E+02  0.45594000000E+02  0.51100000000E-03 0. -1.
    9900012    2    1    2    0    0  0.29873438284E+02  0.10428724231E+02 -0.39421163270E+01  0.59301939015E+02  0.49999990858E+02 0.  0.
        -12    1    1    2    0    0 -0.29873438284E+02 -0.10428724231E+02  0.39421163270E+01  0.31886060985E+02  0.00000000000E+00 0.  1.
         11    1    3    3    0    0  0.22802899696E+02  0.12300556019E+02  0.15652892380E+02  0.30270265163E+02  0.51100000000E-03 0. -1.
        -11    1    3    3    0    0  0.94110832799E+01 -0.83944336125E+01 -0.64332163305E+01  0.14157022172E+02  0.51100000000E-03 0.  1.
         12    1    3    3    0    0 -0.23405446919E+01  0.65226018238E+01 -0.13161792377E+02  0.14874651679E+02  0.00000000000E+00 0. -1.
</event>
<event>
 7    1  0.1096439E-011  0.5930220E+02  0.7816164E-02  0.1266604E+00
        -11   -1    0    0    0    0  0.00000000000E+00  0.00000000000E+00  0.45593999997E+02  0.45594000000E+02  0.51100000000E-03 0.  1.
         11   -1    0    0    0    0 -0.00000000000E+00 -0.00000000000E+00 -0.45593999997E+02  0.45594000000E+02  0.51100000000E-03 0. -1.
    9900012    2    1    2    0    0 -0.12549964147E+02  0.57543768134E+01 -0.28741780628E+02  0.59302197419E+02  0.50000462122E+02 0.  0.
        -12    1    1    2    0    0  0.12549964147E+02 -0.57543768134E+01  0.28741780628E+02  0.31885802581E+02  0.00000000000E+00 0.  1.
         11    1    3    3    0    0  0.14543248147E+01 -0.47811256774E+01 -0.29168550824E+02  0.29593556407E+02  0.51100000000E-03 0.  1.
        -11    1    3    3    0    0 -0.73545453532E+01  0.16237924318E+02  0.65822577598E+01  0.19002253577E+02  0.51100000000E-03 0. -1.
        -12    1    3    3    0    0 -0.66497436083E+01 -0.57024218273E+01 -0.61554875642E+01  0.10706387435E+02  0.00000000000E+00 0.  1.
</event>
<event>
 7    1  0.1096439E-011  0.5930192E+02  0.7816164E-02  0.1266605E+00
        -11   -1    0    0    0    0  0.00000000000E+00  0.00000000000E+00  0.45593999997E+02  0.45594000000E+02  0.51100000000E-03 0.  1.
         11   -1    0    0    0    0 -0.00000000000E+00 -0.00000000000E+00 -0.45593999997E+02  0.45594000000E+02  0.51100000000E-03 0. -1.
    9900012    2    1    2    0    0  0.24419731159E+02  0.11186836259E+02 -0.17182936129E+02  0.59301923581E+02  0.49999962711E+02 0.  0.
        -12    1    1    2    0    0 -0.24419731159E+02 -0.11186836259E+02  0.17182936129E+02  0.31886076419E+02  0.00000000000E+00 0.  1.
         11    1    3    3    0    0  0.14444575973E+02  0.15202263688E+02 -0.11569327703E+02  0.23950030063E+02  0.51100000000E-03 0.  1.
        -11    1    3    3    0    0 -0.35270015082E+01 -0.11734170197E+02 -0.13231773958E+02  0.18033588999E+02  0.51100000000E-03 0. -1.
        -12    1    3    3    0    0  0.13502156695E+02  0.77187427673E+01  0.76181655329E+01  0.17318304519E+02  0.00000000000E+00 0.  1.
</event>
<event>
 7    1  0.1096439E-011  0.5930193E+02  0.7816164E-02  0.1266605E+00
        -11   -1    0    0    0    0  0.00000000000E+00  0.00000000000E+00  0.45593999997E+02  0.45594000000E+02  0.51100000000E-03 0.  1.
         11   -1    0    0    0    0 -0.00000000000E+00 -0.00000000000E+00 -0.45593999997E+02  0.45594000000E+02  0.51100000000E-03 0. -1.
    9900012    2    1    2    0    0  0.21230109706E+02  0.20976073286E+01  0.23698181408E+02  0.59301932248E+02  0.49999978516E+02 0.  0.
        -12    1    1    2    0    0 -0.21230109706E+02 -0.20976073286E+01 -0.23698181408E+02  0.31886067752E+02  0.00000000000E+00 0.  1.
         11    1    3    3    0    0 -0.10382359199E+02 -0.21120199508E+01 -0.40888277504E+01  0.11356607039E+02  0.51100000000E-03 0. -1.
        -11    1    3    3    0    0  0.13349132440E+02 -0.64379579729E+01  0.21076032350E+02  0.25765204824E+02  0.51100000000E-03 0.  1.
         12    1    3    3    0    0  0.18263336465E+02  0.10647585252E+02  0.67109768089E+01  0.22180120384E+02  0.00000000000E+00 0. -1.
</event>
<event>
 7    1  0.1096439E-011  0.5930193E+02  0.7816164E-02  0.1266605E+00
        -11   -1    0    0    0    0  0.00000000000E+00  0.00000000000E+00  0.45593999997E+02  0.45594000000E+02  0.51100000000E-03 0.  1.
         11   -1    0    0    0    0 -0.00000000000E+00 -0.00000000000E+00 -0.45593999997E+02  0.45594000000E+02  0.51100000000E-03 0. -1.
    9900012    2    1    2    0    0  0.87864482676E+01  0.11572496576E+02 -0.28383046314E+02  0.59301926735E+02  0.49999968463E+02 0.  0.
        -12    1    1    2    0    0 -0.87864482676E+01 -0.11572496576E+02  0.28383046314E+02  0.31886073265E+02  0.00000000000E+00 0.  1.
         11    1    3    3    0    0 -0.39649271411E+01  0.16481457042E+02 -0.72556873964E+01  0.18439199368E+02  0.51100000000E-03 0. -1.
        -11    1    3    3    0    0  0.19531816147E+02 -0.13712317347E+02 -0.14301318617E+02  0.27821703820E+02  0.51100000000E-03 0.  1.
        -12    1    3    3    0    0 -0.67804407385E+01  0.88033568808E+01 -0.68260403004E+01  0.13041023547E+02  0.00000000000E+00 0.  1.
</event>
<event>
 7    1  0.1096439E-011  0.5930200E+02  0.7816164E-02  0.1266605E+00
        -11   -1    0    0    0    0  0.00000000000E+00  0.00000000000E+00  0.45593999997E+02  0.45594000000E+02  0.51100000000E-03 0.  1.
         11   -1    0    0    0    0 -0.00000000000E+00 -0.00000000000E+00 -0.45593999997E+02  0.45594000000E+02  0.51100000000E-03 0. -1.
    9900012    2    1    2    0    0 -0.15892218695E+02  0.12660810789E+02 -0.24573527840E+02  0.59301999696E+02  0.50000101526E+02 0.  0.
        -12    1    1    2    0    0  0.15892218695E+02 -0.12660810789E+02  0.24573527840E+02  0.31886000304E+02  0.00000000000E+00 0.  1.
         11    1    3    3    0    0 -0.43183416985E+00 -0.16619450317E+00 -0.20983098785E+02  0.20988199928E+02  0.51100000000E-03 0. -1.
        -11    1    3    3    0    0 -0.18048920763E+02  0.23753002262E+01  0.10161074246E+02  0.20848333794E+02  0.51100000000E-03 0.  1.
        -12    1    3    3    0    0  0.25885362378E+01  0.10451705066E+02 -0.13751503301E+02  0.17465465974E+02  0.00000000000E+00 0.  1.
</event>
<event>
 7    1  0.1096439E-011  0.5930196E+02  0.7816164E-02  0.1266605E+00
        -11   -1    0    0    0    0  0.00000000000E+00  0.00000000000E+00  0.45593999997E+02  0.45594000000E+02  0.51100000000E-03 0.  1.
         11   -1    0    0    0    0 -0.00000000000E+00 -0.00000000000E+00 -0.45593999997E+02  0.45594000000E+02  0.51100000000E-03 0. -1.
    9900012    2    1    2    0    0  0.30000096964E+02 -0.10125340684E+01  0.10755866367E+02  0.59301957530E+02  0.50000024625E+02 0.  0.
        -12    1    1    2    0    0 -0.30000096964E+02  0.10125340684E+01 -0.10755866367E+02  0.31886042470E+02  0.00000000000E+00 0.  1.
         11    1    3    3    0    0  0.22440584383E+02 -0.12393972618E+02 -0.55996885772E+01  0.26240177155E+02  0.51100000000E-03 0. -1.
        -11    1    3    3    0    0 -0.91669374457E+01  0.40420709949E+01  0.30801767215E+01  0.10481343853E+02  0.51100000000E-03 0.  1.
         12    1    3    3    0    0  0.16726450027E+02  0.73393675546E+01  0.13275378223E+02  0.22580436522E+02  0.00000000000E+00 0. -1.
</event>
<event>
 7    1  0.1096439E-011  0.5930194E+02  0.7816164E-02  0.1266605E+00
        -11   -1    0    0    0    0  0.00000000000E+00  0.00000000000E+00  0.45593999997E+02  0.45594000000E+02  0.51100000000E-03 0.  1.
         11   -1    0    0    0    0 -0.00000000000E+00 -0.00000000000E+00 -0.45593999997E+02  0.45594000000E+02  0.51100000000E-03 0. -1.
    9900012    2    1    2    0    0  0.23144614540E+02 -0.14215126977E+02 -0.16702635658E+02  0.59301936350E+02  0.49999985997E+02 0.  0.
        -12    1    1    2    0    0 -0.23144614540E+02  0.14215126977E+02  0.16702635658E+02  0.31886063650E+02  0.00000000000E+00 0.  1.
         11    1    3    3    0    0 -0.14388259334E+02 -0.10733370427E+01  0.10166128526E+01  0.14464009161E+02  0.51100000000E-03 0.  1.
        -11    1    3    3    0    0  0.29680755401E+02 -0.13317486122E+02 -0.17590448440E+02  0.36982787271E+02  0.51100000000E-03 0. -1.
         12    1    3    3    0    0  0.78521184732E+01  0.17569618775E+00 -0.12880007106E+00  0.78551399176E+01  0.00000000000E+00 0. -1.
</event>
<event>
 7    1  0.1096439E-011  0.5930194E+02  0.7816164E-02  0.1266605E+00
        -11   -1    0    0    0    0  0.00000000000E+00  0.00000000000E+00  0.45593999997E+02  0.45594000000E+02  0.51100000000E-03 0.  1.
         11   -1    0    0    0    0 -0.00000000000E+00 -0.00000000000E+00 -0.45593999997E+02  0.45594000000E+02  0.51100000000E-03 0. -1.
    9900012    2    1    2    0    0  0.28685735633E+02  0.47028228241E+01  0.13104685756E+02  0.59301940976E+02  0.49999994434E+02 0.  0.
        -12    1    1    2    0    0 -0.28685735633E+02 -0.47028228241E+01 -0.13104685756E+02  0.31886059024E+02  0.00000000000E+00 0.  1.
         11    1    3    3    0    0  0.28304456262E+01  0.11568817503E+02  0.25299322496E+01  0.12175775881E+02  0.51100000000E-03 0. -1.
        -11    1    3    3    0    0  0.33574785809E+02 -0.58465056444E+01  0.10730493482E+00  0.34080190507E+02  0.51100000000E-03 0.  1.
        -12    1    3    3    0    0 -0.77194958022E+01 -0.10194890347E+01  0.10467448571E+02  0.13045974587E+02  0.00000000000E+00 0.  1.
</event>
<event>
 7    1  0.1096439E-011  0.5930196E+02  0.7816164E-02  0.1266605E+00
        -11   -1    0    0    0    0  0.00000000000E+00  0.00000000000E+00  0.45593999997E+02  0.45594000000E+02  0.51100000000E-03 0.  1.
         11   -1    0    0    0    0 -0.00000000000E+00 -0.00000000000E+00 -0.45593999997E+02  0.45594000000E+02  0.51100000000E-03 0. -1.
    9900012    2    1    2    0    0  0.28437563338E+02  0.50759232342E+01 -0.13500353006E+02  0.59301960162E+02  0.50000029424E+02 0.  0.
        -12    1    1    2    0    0 -0.28437563338E+02 -0.50759232342E+01  0.13500353006E+02  0.31886039838E+02  0.00000000000E+00 0.  1.
         11    1    3    3    0    0 -0.36880149921E+01  0.34934929128E+00 -0.40085492831E+01  0.54582018216E+01  0.51100000000E-03 0. -1.
        -11    1    3    3    0    0  0.90412534175E+01  0.13789173295E+02  0.12504999766E+02  0.20694457783E+02  0.51100000000E-03 0.  1.
        -12    1    3    3    0    0  0.23084324913E+02 -0.90625993522E+01 -0.21996803489E+02  0.33149300557E+02  0.00000000000E+00 0.  1.
</event>
<event>
 7    1  0.1096439E-011  0.5930201E+02  0.7816164E-02  0.1266605E+00
        -11   -1    0    0    0    0  0.00000000000E+00  0.00000000000E+00  0.45593999997E+02  0.45594000000E+02  0.51100000000E-03 0.  1.
         11   -1    0    0    0    0 -0.00000000000E+00 -0.00000000000E+00 -0.45593999997E+02  0.45594000000E+02  0.51100000000E-03 0. -1.
    9900012    2    1    2    0    0 -0.25631628453E+02  0.17143524565E+02 -0.81139097073E+01  0.59302010249E+02  0.50000120772E+02 0.  0.
        -12    1    1    2    0    0  0.25631628453E+02 -0.17143524565E+02  0.81139097073E+01  0.31885989751E+02  0.00000000000E+00 0.  1.
         11    1    3    3    0    0 -0.32366268838E+02  0.28455174873E+02 -0.91459406360E+01  0.44055880038E+02  0.51100000000E-03 0. -1.
        -11    1    3    3    0    0  0.20208508372E+01 -0.65740001922E+00  0.27438987325E+01  0.34705897779E+01  0.51100000000E-03 0.  1.
         12    1    3    3    0    0  0.47137895479E+01 -0.10654250289E+02 -0.17118678038E+01  0.11775540433E+02  0.00000000000E+00 0. -1.
</event>
<event>
 7    1  0.1096439E-011  0.5930195E+02  0.7816164E-02  0.1266605E+00
        -11   -1    0    0    0    0  0.00000000000E+00  0.00000000000E+00  0.45593999997E+02  0.45594000000E+02  0.51100000000E-03 0.  1.
         11   -1    0    0    0    0 -0.00000000000E+00 -0.00000000000E+00 -0.45593999997E+02  0.45594000000E+02  0.51100000000E-03 0. -1.
    9900012    2    1    2    0    0  0.22908174164E+02 -0.18904703506E+02 -0.11599468833E+02  0.59301953908E+02  0.50000018018E+02 0.  0.
        -12    1    1    2    0    0 -0.22908174164E+02  0.18904703506E+02  0.11599468833E+02  0.31886046092E+02  0.00000000000E+00 0.  1.
         11    1    3    3    0    0 -0.76382416770E+01  0.10535416924E+02 -0.94022905675E+01  0.16054308264E+02  0.51100000000E-03 0. -1.
        -11    1    3    3    0    0  0.16350279552E+02 -0.13103094369E+02  0.24972796774E+01  0.21101164175E+02  0.51100000000E-03 0.  1.
         12    1    3    3    0    0  0.14196136289E+02 -0.16337026061E+02 -0.46944579427E+01  0.22146481468E+02  0.00000000000E+00 0. -1.
</event>
<event>
 7    1  0.1096439E-011  0.5930193E+02  0.7816164E-02  0.1266605E+00
        -11   -1    0    0    0    0  0.00000000000E+00  0.00000000000E+00  0.45593999997E+02  0.45594000000E+02  0.51100000000E-03 0.  1.
         11   -1    0    0    0    0 -0.00000000000E+00 -0.00000000000E+00 -0.45593999997E+02  0.45594000000E+02  0.51100000000E-03 0. -1.
    9900012    2    1    2    0    0  0.19988044944E+02  0.62272641859E+00 -0.24835698760E+02  0.59301926836E+02  0.49999968647E+02 0.  0.
        -12    1    1    2    0    0 -0.19988044944E+02 -0.62272641859E+00  0.24835698760E+02  0.31886073164E+02  0.00000000000E+00 0.  1.
         11    1    3    3    0    0 -0.63720855204E-01  0.81940838111E+01 -0.13505545597E+02  0.15797051370E+02  0.51100000000E-03 0. -1.
        -11    1    3    3    0    0 -0.27969350437E+01 -0.12277125476E+02  0.64742252377E+01  0.14158610393E+02  0.51100000000E-03 0.  1.
        -12    1    3    3    0    0  0.22848700843E+02  0.47057680830E+01 -0.17804378401E+02  0.29346265073E+02  0.00000000000E+00 0.  1.
</event>
<event>
 7    1  0.1096439E-011  0.5930174E+02  0.7816164E-02  0.1266605E+00
        -11   -1    0    0    0    0  0.00000000000E+00  0.00000000000E+00  0.45593999997E+02  0.45594000000E+02  0.51100000000E-03 0.  1.
         11   -1    0    0    0    0 -0.00000000000E+00 -0.00000000000E+00 -0.45593999997E+02  0.45594000000E+02  0.51100000000E-03 0. -1.
    9900012    2    1    2    0    0  0.84734248397E+00  0.58707486663E+00 -0.31869591802E+02  0.59301740768E+02  0.49999629302E+02 0.  0.
        -12    1    1    2    0    0 -0.84734248397E+00 -0.58707486663E+00  0.31869591802E+02  0.31886259232E+02  0.00000000000E+00 0.  1.
         11    1    3    3    0    0  0.64913074940E+01  0.13419167504E+02 -0.29341848395E+02  0.32911323234E+02  0.51100000000E-03 0. -1.
        -11    1    3    3    0    0 -0.10722659861E+01  0.16782651492E+01  0.77688374207E+01  0.80200475925E+01  0.51100000000E-03 0.  1.
        -12    1    3    3    0    0 -0.45716990239E+01 -0.14510357787E+02 -0.10296580827E+02  0.18370369942E+02  0.00000000000E+00 0.  1.
</event>
<event>
 7    1  0.1096439E-011  0.5930194E+02  0.7816164E-02  0.1266605E+00
        -11   -1    0    0    0    0  0.00000000000E+00  0.00000000000E+00  0.45593999997E+02  0.45594000000E+02  0.51100000000E-03 0. -1.
         11   -1    0    0    0    0 -0.00000000000E+00 -0.00000000000E+00 -0.45593999997E+02  0.45594000000E+02  0.51100000000E-03 0.  1.
    9900012    2    1    2    0    0 -0.13261285550E+02  0.16237829997E+02  0.24024819363E+02  0.59301940933E+02  0.49999994355E+02 0.  0.
        -12    1    1    2    0    0  0.13261285550E+02 -0.16237829997E+02 -0.24024819363E+02  0.31886059067E+02  0.00000000000E+00 0.  1.
         11    1    3    3    0    0 -0.24915207301E+01 -0.22363116382E+01  0.14715860202E+02  0.15091895409E+02  0.51100000000E-03 0. -1.
        -11    1    3    3    0    0 -0.54569916111E+01 -0.56502619134E+01 -0.10099769276E+02  0.12794903549E+02  0.51100000000E-03 0.  1.
        -12    1    3    3    0    0 -0.53127732090E+01  0.24124403548E+02  0.19408728437E+02  0.31415141975E+02  0.00000000000E+00 0.  1.
</event>
<event>
 7    1  0.1096439E-011  0.5930194E+02  0.7816164E-02  0.1266605E+00
        -11   -1    0    0    0    0  0.00000000000E+00  0.00000000000E+00  0.45593999997E+02  0.45594000000E+02  0.51100000000E-03 0. -1.
         11   -1    0    0    0    0 -0.00000000000E+00 -0.00000000000E+00 -0.45593999997E+02  0.45594000000E+02  0.51100000000E-03 0.  1.
    9900012    2    1    2    0    0  0.29012930267E+02  0.58411347357E+01  0.11868098485E+02  0.59301941302E+02  0.49999995028E+02 0.  0.
        -12    1    1    2    0    0 -0.29012930267E+02 -0.58411347357E+01 -0.11868098485E+02  0.31886058698E+02  0.00000000000E+00 0.  1.
         11    1    3    3    0    0 -0.51586080253E+01 -0.58824928777E+01  0.15984190611E+02  0.17796328525E+02  0.51100000000E-03 0. -1.
        -11    1    3    3    0    0  0.86049601929E+01  0.93248966529E+01 -0.87486082433E+01  0.15412241367E+02  0.51100000000E-03 0.  1.
         12    1    3    3    0    0  0.25566578099E+02  0.23987309605E+01  0.46325161170E+01  0.26093371409E+02  0.00000000000E+00 0. -1.
</event>
<event>
 7    1  0.1096439E-011  0.5930194E+02  0.7816164E-02  0.1266605E+00
        -11   -1    0    0    0    0  0.00000000000E+00  0.00000000000E+00  0.45593999997E+02  0.45594000000E+02  0.51100000000E-03 0.  1.
         11   -1    0    0    0    0 -0.00000000000E+00 -0.00000000000E+00 -0.45593999997E+02  0.45594000000E+02  0.51100000000E-03 0. -1.
    9900012    2    1    2    0    0 -0.61258118740E+01 -0.30129104404E+02 -0.84517768119E+01  0.59301936672E+02  0.49999986584E+02 0.  0.
        -12    1    1    2    0    0  0.61258118740E+01  0.30129104404E+02  0.84517768119E+01  0.31886063328E+02  0.00000000000E+00 0.  1.
         11    1    3    3    0    0  0.50493680291E+01 -0.63456940588E+01 -0.12547083424E+02  0.14939653721E+02  0.51100000000E-03 0. -1.
        -11    1    3    3    0    0 -0.36971606412E+01 -0.29323903130E+02  0.12244372393E+02  0.31991951287E+02  0.51100000000E-03 0.  1.
        -12    1    3    3    0    0 -0.74780192619E+01  0.55404927847E+01 -0.81490657810E+01  0.12370331664E+02  0.00000000000E+00 0.  1.
</event>
<event>
 7    1  0.1161878E-011  0.5930201E+02  0.7816164E-02  0.1266605E+00
        -11   -1    0    0    0    0  0.00000000000E+00  0.00000000000E+00  0.45593999997E+02  0.45594000000E+02  0.51100000000E-03 0. -1.
         11   -1    0    0    0    0 -0.00000000000E+00 -0.00000000000E+00 -0.45593999997E+02  0.45594000000E+02  0.51100000000E-03 0.  1.
    9900012    2    1    2    0    0 -0.18519960778E+02 -0.18866181775E+02  0.17826790294E+02  0.59302012260E+02  0.50000124439E+02 0.  0.
        -12    1    1    2    0    0  0.18519960778E+02  0.18866181775E+02 -0.17826790294E+02  0.31885987740E+02  0.00000000000E+00 0.  1.
         11    1    3    3    0    0 -0.11503813719E+02  0.31035983042E+01  0.22494483875E+02  0.25455291347E+02  0.51100000000E-03 0. -1.
        -11    1    3    3    0    0 -0.13476263735E+01 -0.29340870313E+01 -0.12188367041E+02  0.12608776901E+02  0.51100000000E-03 0.  1.
        -12    1    3    3    0    0 -0.56685206852E+01 -0.19035693048E+02  0.75206734599E+01  0.21237944012E+02  0.00000000000E+00 0.  1.
</event>
<event>
 7    1  0.1096439E-011  0.5930175E+02  0.7816164E-02  0.1266605E+00
        -11   -1    0    0    0    0  0.00000000000E+00  0.00000000000E+00  0.45593999997E+02  0.45594000000E+02  0.51100000000E-03 0.  1.
         11   -1    0    0    0    0 -0.00000000000E+00 -0.00000000000E+00 -0.45593999997E+02  0.45594000000E+02  0.51100000000E-03 0. -1.
    9900012    2    1    2    0    0  0.16474008818E+02 -0.27211400203E+02  0.22090489182E+01  0.59301746463E+02  0.49999639688E+02 0.  0.
        -12    1    1    2    0    0 -0.16474008818E+02  0.27211400203E+02 -0.22090489182E+01  0.31886253537E+02  0.00000000000E+00 0.  1.
         11    1    3    3    0    0  0.12404648475E+02 -0.26884416371E+02 -0.82580043923E+01  0.30738278810E+02  0.51100000000E-03 0. -1.
        -11    1    3    3    0    0  0.12326059242E+02  0.36444771174E-02  0.14777603683E+02  0.19243422788E+02  0.51100000000E-03 0.  1.
        -12    1    3    3    0    0 -0.82566988987E+01 -0.33062830882E+00 -0.43105503721E+01  0.93200448654E+01  0.00000000000E+00 0.  1.
</event>
<event>
 7    1  0.1096439E-011  0.5930206E+02  0.7816164E-02  0.1266604E+00
        -11   -1    0    0    0    0  0.00000000000E+00  0.00000000000E+00  0.45593999997E+02  0.45594000000E+02  0.51100000000E-03 0.  1.
         11   -1    0    0    0    0 -0.00000000000E+00 -0.00000000000E+00 -0.45593999997E+02  0.45594000000E+02  0.51100000000E-03 0. -1.
    9900012    2    1    2    0    0 -0.13003691391E+02  0.26302333446E+02  0.12482168205E+02  0.59302058621E+02  0.50000208991E+02 0.  0.
        -12    1    1    2    0    0  0.13003691391E+02 -0.26302333446E+02 -0.12482168205E+02  0.31885941379E+02  0.00000000000E+00 0.  1.
         11    1    3    3    0    0 -0.20751044261E+02  0.11327638681E+02  0.19399317478E+02  0.30581935107E+02  0.51100000000E-03 0. -1.
        -11    1    3    3    0    0  0.88099716234E+01  0.14289388327E+02  0.43827818917E+01  0.17349668473E+02  0.51100000000E-03 0.  1.
         12    1    3    3    0    0 -0.10626187534E+01  0.68530643747E+00 -0.11299931164E+02  0.11370455041E+02  0.00000000000E+00 0. -1.
</event>
<event>
 7    1  0.1096439E-011  0.5930198E+02  0.7816164E-02  0.1266605E+00
        -11   -1    0    0    0    0  0.00000000000E+00  0.00000000000E+00  0.45593999997E+02  0.45594000000E+02  0.51100000000E-03 0.  1.
         11   -1    0    0    0    0 -0.00000000000E+00 -0.00000000000E+00 -0.45593999997E+02  0.45594000000E+02  0.51100000000E-03 0. -1.
    9900012    2    1    2    0    0  0.17176724656E+02  0.24453732715E+02 -0.11121765251E+02  0.59301975226E+02  0.50000056897E+02 0.  0.
        -12    1    1    2    0    0 -0.17176724656E+02 -0.24453732715E+02  0.11121765251E+02  0.31886024774E+02  0.00000000000E+00 0.  1.
         11    1    3    3    0    0  0.18492177473E+02  0.32888746055E+02  0.43874946104E+01  0.37985264958E+02  0.51100000000E-03 0. -1.
        -11    1    3    3    0    0  0.71665846206E+00 -0.71481416351E+01 -0.17021568853E+02  0.18475479281E+02  0.51100000000E-03 0.  1.
         12    1    3    3    0    0 -0.20321112791E+01 -0.12868717043E+01  0.15123089909E+01  0.28412309864E+01  0.00000000000E+00 0. -1.
</event>
<event>
 7    1  0.1096439E-011  0.5930192E+02  0.7816164E-02  0.1266605E+00
        -11   -1    0    0    0    0  0.00000000000E+00  0.00000000000E+00  0.45593999997E+02  0.45594000000E+02  0.51100000000E-03 0. -1.
         11   -1    0    0    0    0 -0.00000000000E+00 -0.00000000000E+00 -0.45593999997E+02  0.45594000000E+02  0.51100000000E-03 0.  1.
    9900012    2    1    2    0    0 -0.27426421392E+02 -0.11652324724E+02  0.11346230443E+02  0.59301918285E+02  0.49999953051E+02 0.  0.
        -12    1    1    2    0    0  0.27426421392E+02  0.11652324724E+02 -0.11346230443E+02  0.31886081715E+02  0.00000000000E+00 0.  1.
         11    1    3    3    0    0 -0.35929659304E+02 -0.64771878420E+01  0.17446841340E+02  0.40463398931E+02  0.51100000000E-03 0. -1.
        -11    1    3    3    0    0 -0.13307250646E+01 -0.73027585098E+01 -0.79948721584E+00  0.74659420785E+01  0.51100000000E-03 0.  1.
         12    1    3    3    0    0  0.98339629764E+01  0.21276216273E+01 -0.53011236808E+01  0.11372577276E+02  0.00000000000E+00 0. -1.
</event>
<event>
 7    1  0.1096439E-011  0.5930196E+02  0.7816164E-02  0.1266605E+00
        -11   -1    0    0    0    0  0.00000000000E+00  0.00000000000E+00  0.45593999997E+02  0.45594000000E+02  0.51100000000E-03 0.  1.
         11   -1    0    0    0    0 -0.00000000000E+00 -0.00000000000E+00 -0.45593999997E+02  0.45594000000E+02  0.51100000000E-03 0. -1.
    9900012    2    1    2    0    0 -0.16806216391E+02 -0.17350041490E+02 -0.20814582782E+02  0.59301957513E+02  0.50000024595E+02 0.  0.
        -12    1    1    2    0    0  0.16806216391E+02  0.17350041490E+02  0.20814582782E+02  0.31886042487E+02  0.00000000000E+00 0.  1.
         11    1    3    3    0    0  0.14261166063E+01  0.53281723406E+01 -0.27421671342E+01  0.61597654110E+01  0.51100000000E-03 0. -1.
        -11    1    3    3    0    0 -0.16240924358E+02 -0.16199263393E+02 -0.30989005541E+02  0.38555184129E+02  0.51100000000E-03 0.  1.
        -12    1    3    3    0    0 -0.19914086395E+01 -0.64789504372E+01  0.12916589894E+02  0.14587007974E+02  0.00000000000E+00 0.  1.
</event>
<event>
 7    1  0.1096439E-011  0.5930192E+02  0.7816164E-02  0.1266605E+00
        -11   -1    0    0    0    0  0.00000000000E+00  0.00000000000E+00  0.45593999997E+02  0.45594000000E+02  0.51100000000E-03 0.  1.
         11   -1    0    0    0    0 -0.00000000000E+00 -0.00000000000E+00 -0.45593999997E+02  0.45594000000E+02  0.51100000000E-03 0. -1.
    9900012    2    1    2    0    0  0.11958255022E+01 -0.13369183281E+02 -0.28923290678E+02  0.59301924609E+02  0.49999964584E+02 0.  0.
        -12    1    1    2    0    0 -0.11958255022E+01  0.13369183281E+02  0.28923290678E+02  0.31886075391E+02  0.00000000000E+00 0.  1.
         11    1    3    3    0    0  0.11618629426E+02 -0.52568421421E+01 -0.29391968340E+02  0.32039268753E+02  0.51100000000E-03 0. -1.
        -11    1    3    3    0    0 -0.14465383049E+02 -0.11588907832E+02 -0.54272920856E+01  0.19313352665E+02  0.51100000000E-03 0.  1.
        -12    1    3    3    0    0  0.40425791256E+01  0.34765666936E+01  0.58959697478E+01  0.79493031914E+01  0.00000000000E+00 0.  1.
</event>
<event>
 7    1  0.1096439E-011  0.5930195E+02  0.7816164E-02  0.1266605E+00
        -11   -1    0    0    0    0  0.00000000000E+00  0.00000000000E+00  0.45593999997E+02  0.45594000000E+02  0.51100000000E-03 0.  1.
         11   -1    0    0    0    0 -0.00000000000E+00 -0.00000000000E+00 -0.45593999997E+02  0.45594000000E+02  0.51100000000E-03 0. -1.
    9900012    2    1    2    0    0 -0.12378942978E+02 -0.23922297133E+01 -0.29287526288E+02  0.59301949941E+02  0.50000010785E+02 0.  0.
        -12    1    1    2    0    0  0.12378942978E+02  0.23922297133E+01  0.29287526288E+02  0.31886050059E+02  0.00000000000E+00 0.  1.
         11    1    3    3    0    0 -0.12020249345E+02  0.17955003944E+01 -0.42876438508E+02  0.44565672837E+02  0.51100000000E-03 0. -1.
        -11    1    3    3    0    0 -0.97519738611E+00 -0.27302186662E+01  0.35974070428E+01  0.46202209471E+01  0.51100000000E-03 0.  1.
         12    1    3    3    0    0  0.61650375277E+00 -0.14575114415E+01  0.99915051771E+01  0.10116056158E+02  0.00000000000E+00 0. -1.
</event>
<event>
 7    1  0.1096439E-011  0.5930196E+02  0.7816164E-02  0.1266605E+00
        -11   -1    0    0    0    0  0.00000000000E+00  0.00000000000E+00  0.45593999997E+02  0.45594000000E+02  0.51100000000E-03 0. -1.
         11   -1    0    0    0    0 -0.00000000000E+00 -0.00000000000E+00 -0.45593999997E+02  0.45594000000E+02  0.51100000000E-03 0.  1.
    9900012    2    1    2    0    0  0.87896470950E+01 -0.20725994570E+02  0.22580845999E+02  0.59301963040E+02  0.50000034674E+02 0.  0.
        -12    1    1    2    0    0 -0.87896470950E+01  0.20725994570E+02 -0.22580845999E+02  0.31886036960E+02  0.00000000000E+00 0.  1.
         11    1    3    3    0    0  0.11034941336E+02 -0.71187696506E+01  0.24612998077E+01  0.13360569173E+02  0.51100000000E-03 0. -1.
        -11    1    3    3    0    0 -0.10650023360E+02 -0.41320970531E+00  0.26867666290E+02  0.28904415441E+02  0.51100000000E-03 0.  1.
        -12    1    3    3    0    0  0.84047291198E+01 -0.13194015214E+02 -0.67481200984E+01  0.17036978427E+02  0.00000000000E+00 0.  1.
</event>
<event>
 7    1  0.1096439E-011  0.5930195E+02  0.7816164E-02  0.1266605E+00
        -11   -1    0    0    0    0  0.00000000000E+00  0.00000000000E+00  0.45593999997E+02  0.45594000000E+02  0.51100000000E-03 0. -1.
         11   -1    0    0    0    0 -0.00000000000E+00 -0.00000000000E+00 -0.45593999997E+02  0.45594000000E+02  0.51100000000E-03 0.  1.
    9900012    2    1    2    0    0  0.13919980244E+01  0.28094175346E+01  0.31731520502E+02  0.59301954796E+02  0.50000019639E+02 0.  0.
        -12    1    1    2    0    0 -0.13919980244E+01 -0.28094175346E+01 -0.31731520502E+02  0.31886045204E+02  0.00000000000E+00 0.  1.
         11    1    3    3    0    0  0.99278706007E+01 -0.13536910765E+02  0.36102218702E+02  0.39814328616E+02  0.51100000000E-03 0. -1.
        -11    1    3    3    0    0 -0.25241885669E+01  0.87902706082E+01 -0.75334610027E+00  0.91764871217E+01  0.51100000000E-03 0.  1.
         12    1    3    3    0    0 -0.60116840094E+01  0.75560576912E+01 -0.36173520993E+01  0.10311139058E+02  0.00000000000E+00 0. -1.
</event>
<event>
 7    1  0.1096439E-011  0.5930196E+02  0.7816164E-02  0.1266605E+00
        -11   -1    0    0    0    0  0.00000000000E+00  0.00000000000E+00  0.45593999997E+02  0.45594000000E+02  0.51100000000E-03 0. -1.
         11   -1    0    0    0    0 -0.00000000000E+00 -0.00000000000E+00 -0.45593999997E+02  0.45594000000E+02  0.51100000000E-03 0.  1.
    9900012    2    1    2    0    0 -0.79721779247E+01 -0.30342550837E+02  0.57003125012E+01  0.59301959563E+02  0.50000028332E+02 0.  0.
        -12    1    1    2    0    0  0.79721779247E+01  0.30342550837E+02 -0.57003125012E+01  0.31886040437E+02  0.00000000000E+00 0.  1.
         11    1    3    3    0    0 -0.57744801058E+01 -0.90246161500E+00 -0.32461361645E+01  0.66855409443E+01  0.51100000000E-03 0. -1.
        -11    1    3    3    0    0  0.10451871426E+02  0.73877640613E+01  0.73514483646E+00  0.12820339790E+02  0.51100000000E-03 0.  1.
        -12    1    3    3    0    0 -0.12649569245E+02 -0.36827853283E+02  0.82113038292E+01  0.39796078828E+02  0.00000000000E+00 0.  1.
</event>
<event>
 7    1  0.1096439E-011  0.5930189E+02  0.7816164E-02  0.1266605E+00
        -11   -1    0    0    0    0  0.00000000000E+00  0.00000000000E+00  0.45593999997E+02  0.45594000000E+02  0.51100000000E-03 0.  1.
         11   -1    0    0    0    0 -0.00000000000E+00 -0.00000000000E+00 -0.45593999997E+02  0.45594000000E+02  0.51100000000E-03 0. -1.
    9900012    2    1    2    0    0  0.23895553056E+02  0.13594470016E+02 -0.16152925587E+02  0.59301888981E+02  0.49999899609E+02 0.  0.
        -12    1    1    2    0    0 -0.23895553056E+02 -0.13594470016E+02  0.16152925587E+02  0.31886111019E+02  0.00000000000E+00 0.  1.
         11    1    3    3    0    0  0.88826570035E+01  0.46629574779E+01 -0.98898664777E+01  0.14087378290E+02  0.51100000000E-03 0. -1.
        -11    1    3    3    0    0 -0.11156172052E+02 -0.39545391432E+01  0.63529397352E+01  0.13433480496E+02  0.51100000000E-03 0.  1.
        -12    1    3    3    0    0  0.26169068105E+02  0.12886051681E+02 -0.12615998845E+02  0.31781030195E+02  0.00000000000E+00 0.  1.
</event>
<event>
 7    1  0.1096439E-011  0.5930197E+02  0.7816164E-02  0.1266605E+00
        -11   -1    0    0    0    0  0.00000000000E+00  0.00000000000E+00  0.45593999997E+02  0.45594000000E+02  0.51100000000E-03 0. -1.
         11   -1    0    0    0    0 -0.00000000000E+00 -0.00000000000E+00 -0.45593999997E+02  0.45594000000E+02  0.51100000000E-03 0.  1.
    9900012    2    1    2    0    0  0.23451801952E+02 -0.16907610873E+02  0.13448598319E+02  0.59301966741E+02  0.50000041423E+02 0.  0.
        -12    1    1    2    0    0 -0.23451801952E+02  0.16907610873E+02 -0.13448598319E+02  0.31886033259E+02  0.00000000000E+00 0.  1.
         11    1    3    3    0    0  0.15108715744E+02  0.48467834064E+01  0.26242734235E+02  0.30666687157E+02  0.51100000000E-03 0. -1.
        -11    1    3    3    0    0  0.99665011632E+00 -0.43856710042E+01 -0.79990479893E+01  0.91767200354E+01  0.51100000000E-03 0.  1.
         12    1    3    3    0    0  0.73464360915E+01 -0.17368723276E+02 -0.47950879258E+01  0.19458559548E+02  0.00000000000E+00 0. -1.
</event>
<event>
 7    1  0.1096439E-011  0.5930193E+02  0.7816164E-02  0.1266605E+00
        -11   -1    0    0    0    0  0.00000000000E+00  0.00000000000E+00  0.45593999997E+02  0.45594000000E+02  0.51100000000E-03 0.  1.
         11   -1    0    0    0    0 -0.00000000000E+00 -0.00000000000E+00 -0.45593999997E+02  0.45594000000E+02  0.51100000000E-03 0. -1.
    9900012    2    1    2    0    0  0.55201906602E+01 -0.23929283026E+02 -0.20338103211E+02  0.59301928852E+02  0.49999972323E+02 0.  0.
        -12    1    1    2    0    0 -0.55201906602E+01  0.23929283026E+02  0.20338103211E+02  0.31886071148E+02  0.00000000000E+00 0.  1.
         11    1    3    3    0    0  0.15566545251E+02 -0.19753149217E+02 -0.20232572007E+02  0.32277874857E+02  0.51100000000E-03 0. -1.
        -11    1    3    3    0    0 -0.16351018351E+02  0.38635576423E+01  0.20242190833E+00  0.16802495460E+02  0.51100000000E-03 0.  1.
        -12    1    3    3    0    0  0.63046637605E+01 -0.80396914509E+01 -0.30795311278E+00  0.10221558535E+02  0.00000000000E+00 0.  1.
</event>
<event>
 7    1  0.1096439E-011  0.5930195E+02  0.7816164E-02  0.1266605E+00
        -11   -1    0    0    0    0  0.00000000000E+00  0.00000000000E+00  0.45593999997E+02  0.45594000000E+02  0.51100000000E-03 0.  1.
         11   -1    0    0    0    0 -0.00000000000E+00 -0.00000000000E+00 -0.45593999997E+02  0.45594000000E+02  0.51100000000E-03 0. -1.
    9900012    2    1    2    0    0 -0.24748332396E+02 -0.87155546447E+01 -0.18118477726E+02  0.59301951573E+02  0.50000013761E+02 0.  0.
        -12    1    1    2    0    0  0.24748332396E+02  0.87155546447E+01  0.18118477726E+02  0.31886048427E+02  0.00000000000E+00 0.  1.
         11    1    3    3    0    0 -0.14392688642E+01 -0.15771673401E+02 -0.11139134517E+02  0.19362269876E+02  0.51100000000E-03 0. -1.
        -11    1    3    3    0    0 -0.30914917382E+02  0.51057245229E+01 -0.42179440226E+01  0.31616318439E+02  0.51100000000E-03 0.  1.
         12    1    3    3    0    0  0.76058538497E+01  0.19503942330E+01 -0.27613991872E+01  0.83233632576E+01  0.00000000000E+00 0. -1.
</event>
<event>
 7    1  0.1096439E-011  0.5930194E+02  0.7816164E-02  0.1266605E+00
        -11   -1    0    0    0    0  0.00000000000E+00  0.00000000000E+00  0.45593999997E+02  0.45594000000E+02  0.51100000000E-03 0.  1.
         11   -1    0    0    0    0 -0.00000000000E+00 -0.00000000000E+00 -0.45593999997E+02  0.45594000000E+02  0.51100000000E-03 0. -1.
    9900012    2    1    2    0    0  0.11613085781E+02 -0.18059711900E+02 -0.23573373606E+02  0.59301938807E+02  0.49999990478E+02 0.  0.
        -12    1    1    2    0    0 -0.11613085781E+02  0.18059711900E+02  0.23573373606E+02  0.31886061193E+02  0.00000000000E+00 0.  1.
         11    1    3    3    0    0  0.17849968663E+02 -0.35828137109E+01 -0.10212219446E+02  0.20874562550E+02  0.51100000000E-03 0. -1.
        -11    1    3    3    0    0 -0.72902990627E+01 -0.22852173268E+02 -0.17208626243E+01  0.24048527022E+02  0.51100000000E-03 0.  1.
        -12    1    3    3    0    0  0.10534161802E+01  0.83752750788E+01 -0.11640291535E+02  0.14378849235E+02  0.00000000000E+00 0.  1.
</event>
<event>
 7    1  0.1096439E-011  0.5930191E+02  0.7816164E-02  0.1266605E+00
        -11   -1    0    0    0    0  0.00000000000E+00  0.00000000000E+00  0.45593999997E+02  0.45594000000E+02  0.51100000000E-03 0.  1.
         11   -1    0    0    0    0 -0.00000000000E+00 -0.00000000000E+00 -0.45593999997E+02  0.45594000000E+02  0.51100000000E-03 0. -1.
    9900012    2    1    2    0    0  0.55215867472E+01  0.51568051588E+01 -0.30978093581E+02  0.59301908336E+02  0.49999934907E+02 0.  0.
        -12    1    1    2    0    0 -0.55215867472E+01 -0.51568051588E+01  0.30978093581E+02  0.31886091664E+02  0.00000000000E+00 0.  1.
         11    1    3    3    0    0 -0.73747320926E+01 -0.99967965293E+01 -0.30378842043E+02  0.32820674253E+02  0.51100000000E-03 0. -1.
        -11    1    3    3    0    0  0.15171442349E+02  0.16880325779E+02 -0.28098927305E+01  0.22869489692E+02  0.51100000000E-03 0.  1.
         12    1    3    3    0    0 -0.22751235087E+01 -0.17267240910E+01  0.22106411923E+01  0.36117443912E+01  0.00000000000E+00 0. -1.
</event>
<event>
 7    1  0.1096439E-011  0.5930190E+02  0.7816164E-02  0.1266605E+00
        -11   -1    0    0    0    0  0.00000000000E+00  0.00000000000E+00  0.45593999997E+02  0.45594000000E+02  0.51100000000E-03 0.  1.
         11   -1    0    0    0    0 -0.00000000000E+00 -0.00000000000E+00 -0.45593999997E+02  0.45594000000E+02  0.51100000000E-03 0. -1.
    9900012    2    1    2    0    0 -0.83444120831E+01 -0.23043470161E+02 -0.20398344478E+02  0.59301902912E+02  0.49999925015E+02 0.  0.
        -12    1    1    2    0    0  0.83444120831E+01  0.23043470161E+02  0.20398344478E+02  0.31886097088E+02  0.00000000000E+00 0.  1.
         11    1    3    3    0    0 -0.82133182565E+01 -0.23407288132E+02 -0.28022840628E+02  0.37425116320E+02  0.51100000000E-03 0. -1.
        -11    1    3    3    0    0 -0.69067936906E+01  0.30140582392E+01  0.11411076331E+02  0.13674831240E+02  0.51100000000E-03 0.  1.
        -12    1    3    3    0    0  0.67756998640E+01 -0.26502402678E+01 -0.37865801813E+01  0.82019553518E+01  0.00000000000E+00 0.  1.
</event>
<event>
 7    1  0.1096439E-011  0.5930194E+02  0.7816164E-02  0.1266605E+00
        -11   -1    0    0    0    0  0.00000000000E+00  0.00000000000E+00  0.45593999997E+02  0.45594000000E+02  0.51100000000E-03 0.  1.
         11   -1    0    0    0    0 -0.00000000000E+00 -0.00000000000E+00 -0.45593999997E+02  0.45594000000E+02  0.51100000000E-03 0. -1.
    9900012    2    1    2    0    0  0.25526332094E+02 -0.39306044880E+01 -0.18699665476E+02  0.59301940809E+02  0.49999994129E+02 0.  0.
        -12    1    1    2    0    0 -0.25526332094E+02  0.39306044880E+01  0.18699665476E+02  0.31886059191E+02  0.00000000000E+00 0.  1.
         11    1    3    3    0    0  0.22463441845E+02 -0.66478899660E+01 -0.21593081039E+02  0.31860034675E+02  0.51100000000E-03 0. -1.
        -11    1    3    3    0    0  0.24663941178E+01  0.14842194925E+02  0.27881115948E+01  0.15301876246E+02  0.51100000000E-03 0.  1.
        -12    1    3    3    0    0  0.59649613196E+00 -0.12124909447E+02  0.10530396774E+00  0.12140029887E+02  0.00000000000E+00 0.  1.
</event>
<event>
 7    1  0.1096439E-011  0.5930196E+02  0.7816164E-02  0.1266605E+00
        -11   -1    0    0    0    0  0.00000000000E+00  0.00000000000E+00  0.45593999997E+02  0.45594000000E+02  0.51100000000E-03 0. -1.
         11   -1    0    0    0    0 -0.00000000000E+00 -0.00000000000E+00 -0.45593999997E+02  0.45594000000E+02  0.51100000000E-03 0.  1.
    9900012    2    1    2    0    0 -0.89179636816E+01 -0.55386167069E+01  0.30108352650E+02  0.59301964646E+02  0.50000037603E+02 0.  0.
        -12    1    1    2    0    0  0.89179636816E+01  0.55386167069E+01 -0.30108352650E+02  0.31886035354E+02  0.00000000000E+00 0.  1.
         11    1    3    3    0    0  0.10023042900E+02  0.54249636881E+01  0.33533893449E+02  0.35417702213E+02  0.51100000000E-03 0. -1.
        -11    1    3    3    0    0  0.49771923386E-01 -0.16308442512E+01 -0.21319690545E+01  0.26846643228E+01  0.51100000000E-03 0.  1.
         12    1    3    3    0    0 -0.18990778505E+02 -0.93327361439E+01 -0.12935717436E+01  0.21199598110E+02  0.00000000000E+00 0. -1.
</event>
<event>
 7    1  0.1096439E-011  0.5930190E+02  0.7816164E-02  0.1266605E+00
        -11   -1    0    0    0    0  0.00000000000E+00  0.00000000000E+00  0.45593999997E+02  0.45594000000E+02  0.51100000000E-03 0. -1.
         11   -1    0    0    0    0 -0.00000000000E+00 -0.00000000000E+00 -0.45593999997E+02  0.45594000000E+02  0.51100000000E-03 0.  1.
    9900012    2    1    2    0    0 -0.25831196163E+02  0.18592757848E+02  0.19447497158E+01  0.59301899720E+02  0.49999919193E+02 0.  0.
        -12    1    1    2    0    0  0.25831196163E+02 -0.18592757848E+02 -0.19447497158E+01  0.31886100280E+02  0.00000000000E+00 0.  1.
         11    1    3    3    0    0 -0.25154953518E+01  0.16417211621E+02  0.25154008325E+01  0.16798208115E+02  0.51100000000E-03 0.  1.
        -11    1    3    3    0    0 -0.76121918406E+01 -0.10241652942E+02 -0.13575015618E+02  0.18631102192E+02  0.51100000000E-03 0. -1.
         12    1    3    3    0    0 -0.15703508971E+02  0.12417199169E+02  0.13004364501E+02  0.23872589413E+02  0.00000000000E+00 0. -1.
</event>
<event>
 7    1  0.1096439E-011  0.5930195E+02  0.7816164E-02  0.1266605E+00
        -11   -1    0    0    0    0  0.00000000000E+00  0.00000000000E+00  0.45593999997E+02  0.45594000000E+02  0.51100000000E-03 0. -1.
         11   -1    0    0    0    0 -0.00000000000E+00 -0.00000000000E+00 -0.45593999997E+02  0.45594000000E+02  0.51100000000E-03 0.  1.
    9900012    2    1    2    0    0 -0.31764824288E+02  0.24989070584E+01  0.12130410315E+01  0.59301951843E+02  0.50000014253E+02 0.  0.
        -12    1    1    2    0    0  0.31764824288E+02 -0.24989070584E+01 -0.12130410315E+01  0.31886048157E+02  0.00000000000E+00 0.  1.
         11    1    3    3    0    0 -0.30771443286E+02 -0.16098519838E+02 -0.10101694745E+02  0.36167503368E+02  0.51100000000E-03 0. -1.
        -11    1    3    3    0    0 -0.37769233932E+01  0.94749449113E+01  0.34352024750E+01  0.10762915390E+02  0.51100000000E-03 0.  1.
         12    1    3    3    0    0  0.27835423908E+01  0.91224819851E+01  0.78795333021E+01  0.12371533085E+02  0.00000000000E+00 0. -1.
</event>
<event>
 7    1  0.1096439E-011  0.5930194E+02  0.7816164E-02  0.1266605E+00
        -11   -1    0    0    0    0  0.00000000000E+00  0.00000000000E+00  0.45593999997E+02  0.45594000000E+02  0.51100000000E-03 0.  1.
         11   -1    0    0    0    0 -0.00000000000E+00 -0.00000000000E+00 -0.45593999997E+02  0.45594000000E+02  0.51100000000E-03 0. -1.
    9900012    2    1    2    0    0  0.23024390681E+02  0.20700583607E+02 -0.76213116977E+01  0.59301935333E+02  0.49999984144E+02 0.  0.
        -12    1    1    2    0    0 -0.23024390681E+02 -0.20700583607E+02  0.76213116977E+01  0.31886064667E+02  0.00000000000E+00 0.  1.
         11    1    3    3    0    0  0.83422647807E+01  0.16069771575E+02 -0.16872151840E+02  0.24748746395E+02  0.51100000000E-03 0. -1.
        -11    1    3    3    0    0  0.54035128550E-01 -0.58280818722E+01  0.14658925571E+02  0.15775092940E+02  0.51100000000E-03 0.  1.
        -12    1    3    3    0    0  0.14628090772E+02  0.10458893905E+02 -0.54080854287E+01  0.18778095999E+02  0.00000000000E+00 0.  1.
</event>
<event>
 7    1  0.1096439E-011  0.5930207E+02  0.7816164E-02  0.1266604E+00
        -11   -1    0    0    0    0  0.00000000000E+00  0.00000000000E+00  0.45593999997E+02  0.45594000000E+02  0.51100000000E-03 0.  1.
         11   -1    0    0    0    0 -0.00000000000E+00 -0.00000000000E+00 -0.45593999997E+02  0.45594000000E+02  0.51100000000E-03 0. -1.
    9900012    2    1    2    0    0 -0.15623124697E+02 -0.15908254061E+02 -0.22793810740E+02  0.59302072373E+02  0.50000234070E+02 0.  0.
        -12    1    1    2    0    0  0.15623124697E+02  0.15908254061E+02  0.22793810740E+02  0.31885927627E+02  0.00000000000E+00 0.  1.
         11    1    3    3    0    0 -0.11724897431E+02 -0.97364476674E+01  0.12993930309E+02  0.20027827093E+02  0.51100000000E-03 0.  1.
        -11    1    3    3    0    0 -0.24041906456E+01 -0.10882025150E+02 -0.26640776477E+02  0.28877838831E+02  0.51100000000E-03 0. -1.
         12    1    3    3    0    0 -0.14940366202E+01  0.47102187558E+01 -0.91469645723E+01  0.10396406448E+02  0.00000000000E+00 0. -1.
</event>
<event>
 7    1  0.1096439E-011  0.5930193E+02  0.7816164E-02  0.1266605E+00
        -11   -1    0    0    0    0  0.00000000000E+00  0.00000000000E+00  0.45593999997E+02  0.45594000000E+02  0.51100000000E-03 0.  1.
         11   -1    0    0    0    0 -0.00000000000E+00 -0.00000000000E+00 -0.45593999997E+02  0.45594000000E+02  0.51100000000E-03 0. -1.
    9900012    2    1    2    0    0  0.13643098645E+02  0.24414241048E+02 -0.15314438069E+02  0.59301932197E+02  0.49999978424E+02 0.  0.
        -12    1    1    2    0    0 -0.13643098645E+02 -0.24414241048E+02  0.15314438069E+02  0.31886067803E+02  0.00000000000E+00 0.  1.
         11    1    3    3    0    0  0.49314238585E+01 -0.45903043548E+01  0.12893881871E+02  0.14547921683E+02  0.51100000000E-03 0.  1.
        -11    1    3    3    0    0  0.24618652810E-02  0.90409986130E+01 -0.19126838954E+02  0.21155983329E+02  0.51100000000E-03 0. -1.
        -12    1    3    3    0    0  0.87092129207E+01  0.19963546790E+02 -0.90814809855E+01  0.23598027185E+02  0.00000000000E+00 0.  1.
</event>
<event>
 7    1  0.1096439E-011  0.5930197E+02  0.7816164E-02  0.1266605E+00
        -11   -1    0    0    0    0  0.00000000000E+00  0.00000000000E+00  0.45593999997E+02  0.45594000000E+02  0.51100000000E-03 0. -1.
         11   -1    0    0    0    0 -0.00000000000E+00 -0.00000000000E+00 -0.45593999997E+02  0.45594000000E+02  0.51100000000E-03 0.  1.
    9900012    2    1    2    0    0 -0.10955665390E+02  0.26999299420E+02  0.12951063393E+02  0.59301971456E+02  0.50000050023E+02 0.  0.
        -12    1    1    2    0    0  0.10955665390E+02 -0.26999299420E+02 -0.12951063393E+02  0.31886028544E+02  0.00000000000E+00 0.  1.
         11    1    3    3    0    0 -0.17490603329E+02  0.15754207282E+02  0.26456543780E+02  0.35412779627E+02  0.51100000000E-03 0. -1.
        -11    1    3    3    0    0  0.84457337069E+01  0.11187435475E+02 -0.45581823579E+01  0.14739951052E+02  0.51100000000E-03 0.  1.
         12    1    3    3    0    0 -0.19107957683E+01  0.57656663071E-01 -0.89472980295E+01  0.91492407766E+01  0.00000000000E+00 0. -1.
</event>
<event>
 7    1  0.1096439E-011  0.5930198E+02  0.7816164E-02  0.1266605E+00
        -11   -1    0    0    0    0  0.00000000000E+00  0.00000000000E+00  0.45593999997E+02  0.45594000000E+02  0.51100000000E-03 0.  1.
         11   -1    0    0    0    0 -0.00000000000E+00 -0.00000000000E+00 -0.45593999997E+02  0.45594000000E+02  0.51100000000E-03 0. -1.
    9900012    2    1    2    0    0  0.17738403379E+02  0.14926008027E+02 -0.21892507962E+02  0.59301975241E+02  0.50000056925E+02 0.  0.
        -12    1    1    2    0    0 -0.17738403379E+02 -0.14926008027E+02  0.21892507962E+02  0.31886024759E+02  0.00000000000E+00 0.  1.
         11    1    3    3    0    0 -0.11579950463E+01  0.14866511195E+02 -0.14977859101E+02  0.21135050772E+02  0.51100000000E-03 0. -1.
        -11    1    3    3    0    0  0.13346316833E+02  0.62057453323E+01  0.11037119779E+02  0.18397104702E+02  0.51100000000E-03 0.  1.
        -12    1    3    3    0    0  0.55500815925E+01 -0.61462484993E+01 -0.17951768640E+02  0.19769819766E+02  0.00000000000E+00 0.  1.
</event>
<event>
 7    1  0.1096439E-011  0.5930195E+02  0.7816164E-02  0.1266605E+00
        -11   -1    0    0    0    0  0.00000000000E+00  0.00000000000E+00  0.45593999997E+02  0.45594000000E+02  0.51100000000E-03 0.  1.
         11   -1    0    0    0    0 -0.00000000000E+00 -0.00000000000E+00 -0.45593999997E+02  0.45594000000E+02  0.51100000000E-03 0. -1.
    9900012    2    1    2    0    0  0.78580656842E+00 -0.16138185214E+02 -0.27489302465E+02  0.59301948755E+02  0.50000008621E+02 0.  0.
        -12    1    1    2    0    0 -0.78580656842E+00  0.16138185214E+02  0.27489302465E+02  0.31886051245E+02  0.00000000000E+00 0.  1.
         11    1    3    3    0    0 -0.14304660893E+00 -0.47203948380E+01 -0.71179338618E+01  0.85421058575E+01  0.51100000000E-03 0. -1.
        -11    1    3    3    0    0 -0.14069912848E+02  0.11890573092E+02 -0.51014603997E+01  0.19114734486E+02  0.51100000000E-03 0.  1.
        -12    1    3    3    0    0  0.14998766025E+02 -0.23308363468E+02 -0.15269908204E+02  0.31645108412E+02  0.00000000000E+00 0.  1.
</event>
<event>
 7    1  0.1096439E-011  0.5930194E+02  0.7816164E-02  0.1266605E+00
        -11   -1    0    0    0    0  0.00000000000E+00  0.00000000000E+00  0.45593999997E+02  0.45594000000E+02  0.51100000000E-03 0.  1.
         11   -1    0    0    0    0 -0.00000000000E+00 -0.00000000000E+00 -0.45593999997E+02  0.45594000000E+02  0.51100000000E-03 0. -1.
    9900012    2    1    2    0    0  0.69367740776E+01  0.30082674298E+02 -0.79771527079E+01  0.59301935758E+02  0.49999984919E+02 0.  0.
        -12    1    1    2    0    0 -0.69367740776E+01 -0.30082674298E+02  0.79771527079E+01  0.31886064242E+02  0.00000000000E+00 0.  1.
         11    1    3    3    0    0  0.21679323564E+02  0.10469610252E+02 -0.18341523041E+01  0.24144770116E+02  0.51100000000E-03 0. -1.
        -11    1    3    3    0    0 -0.21633046235E+02  0.14954259227E+02 -0.46488260547E+01  0.26706368948E+02  0.51100000000E-03 0.  1.
        -12    1    3    3    0    0  0.68904967487E+01  0.46588048184E+01 -0.14941743490E+01  0.84507966941E+01  0.00000000000E+00 0.  1.
</event>
<event>
 7    1  0.1096439E-011  0.5930196E+02  0.7816164E-02  0.1266605E+00
        -11   -1    0    0    0    0  0.00000000000E+00  0.00000000000E+00  0.45593999997E+02  0.45594000000E+02  0.51100000000E-03 0.  1.
         11   -1    0    0    0    0 -0.00000000000E+00 -0.00000000000E+00 -0.45593999997E+02  0.45594000000E+02  0.51100000000E-03 0. -1.
    9900012    2    1    2    0    0 -0.19678902707E+01  0.23544376150E+02 -0.21412825697E+02  0.59301963169E+02  0.50000034910E+02 0.  0.
        -12    1    1    2    0    0  0.19678902707E+01 -0.23544376150E+02  0.21412825697E+02  0.31886036831E+02  0.00000000000E+00 0.  1.
         11    1    3    3    0    0  0.43413291094E+01  0.43872185444E+01 -0.24774773555E+02  0.25532023616E+02  0.51100000000E-03 0. -1.
        -11    1    3    3    0    0  0.37409652129E+01  0.20345255375E+02  0.85664669980E+01  0.22389921708E+02  0.51100000000E-03 0.  1.
         12    1    3    3    0    0 -0.10050184593E+02 -0.11880977695E+01 -0.52045191403E+01  0.11380017845E+02  0.00000000000E+00 0. -1.
</event>
<event>
 7    1  0.1096439E-011  0.5930195E+02  0.7816164E-02  0.1266605E+00
        -11   -1    0    0    0    0  0.00000000000E+00  0.00000000000E+00  0.45593999997E+02  0.45594000000E+02  0.51100000000E-03 0.  1.
         11   -1    0    0    0    0 -0.00000000000E+00 -0.00000000000E+00 -0.45593999997E+02  0.45594000000E+02  0.51100000000E-03 0. -1.
    9900012    2    1    2    0    0 -0.19084325201E+02 -0.14493948057E+02 -0.21034117696E+02  0.59301951234E+02  0.50000013143E+02 0.  0.
        -12    1    1    2    0    0  0.19084325201E+02  0.14493948057E+02  0.21034117696E+02  0.31886048766E+02  0.00000000000E+00 0.  1.
         11    1    3    3    0    0 -0.25659029489E+02 -0.13305800635E+02  0.74640061660E+01  0.29851993454E+02  0.51100000000E-03 0. -1.
        -11    1    3    3    0    0  0.64665399017E+01 -0.36479045341E+00 -0.23198767863E+02  0.24085930354E+02  0.51100000000E-03 0.  1.
         12    1    3    3    0    0  0.10816438653E+00 -0.82335696846E+00 -0.52993559984E+01  0.53640274263E+01  0.00000000000E+00 0. -1.
</event>
<event>
 7    1  0.1096439E-011  0.5930169E+02  0.7816164E-02  0.1266606E+00
        -11   -1    0    0    0    0  0.00000000000E+00  0.00000000000E+00  0.45593999997E+02  0.45594000000E+02  0.51100000000E-03 0. -1.
         11   -1    0    0    0    0 -0.00000000000E+00 -0.00000000000E+00 -0.45593999997E+02  0.45594000000E+02  0.51100000000E-03 0.  1.
    9900012    2    1    2    0    0  0.24966725378E+02 -0.19602811803E+02  0.30214582561E+01  0.59301689197E+02  0.49999535247E+02 0.  0.
        -12    1    1    2    0    0 -0.24966725378E+02  0.19602811803E+02 -0.30214582561E+01  0.31886310803E+02  0.00000000000E+00 0.  1.
         11    1    3    3    0    0  0.87837677619E+01 -0.10474688104E+02  0.22259079178E+02  0.26121643767E+02  0.51100000000E-03 0. -1.
        -11    1    3    3    0    0  0.13279646839E+02  0.36724325765E+01 -0.82247499979E+01  0.16046254827E+02  0.51100000000E-03 0.  1.
        -12    1    3    3    0    0  0.29033107772E+01 -0.12800556276E+02 -0.11012870924E+02  0.17133790603E+02  0.00000000000E+00 0.  1.
</event>
<event>
 7    1  0.1096439E-011  0.5930194E+02  0.7816164E-02  0.1266605E+00
        -11   -1    0    0    0    0  0.00000000000E+00  0.00000000000E+00  0.45593999997E+02  0.45594000000E+02  0.51100000000E-03 0. -1.
         11   -1    0    0    0    0 -0.00000000000E+00 -0.00000000000E+00 -0.45593999997E+02  0.45594000000E+02  0.51100000000E-03 0.  1.
    9900012    2    1    2    0    0 -0.43748172875E-01  0.26094072456E+02  0.18325350795E+02  0.59301937010E+02  0.49999987201E+02 0.  0.
        -12    1    1    2    0    0  0.43748172875E-01 -0.26094072456E+02 -0.18325350795E+02  0.31886062990E+02  0.00000000000E+00 0.  1.
         11    1    3    3    0    0  0.20238222324E+02  0.13804119002E+02  0.17537087421E+02  0.30127873800E+02  0.51100000000E-03 0. -1.
        -11    1    3    3    0    0 -0.78262225356E+01  0.13982437638E+02  0.32884241025E+01  0.16357629866E+02  0.51100000000E-03 0.  1.
         12    1    3    3    0    0 -0.12455747961E+02 -0.16924841844E+01 -0.25001607283E+01  0.12816433344E+02  0.00000000000E+00 0. -1.
</event>
<event>
 7    1  0.1096439E-011  0.5930194E+02  0.7816164E-02  0.1266605E+00
        -11   -1    0    0    0    0  0.00000000000E+00  0.00000000000E+00  0.45593999997E+02  0.45594000000E+02  0.51100000000E-03 0.  1.
         11   -1    0    0    0    0 -0.00000000000E+00 -0.00000000000E+00 -0.45593999997E+02  0.45594000000E+02  0.51100000000E-03 0. -1.
    9900012    2    1    2    0    0  0.26436643719E+02 -0.17596785530E+02 -0.28596482931E+01  0.59301943793E+02  0.49999999572E+02 0.  0.
        -12    1    1    2    0    0 -0.26436643719E+02  0.17596785530E+02  0.28596482931E+01  0.31886056207E+02  0.00000000000E+00 0.  1.
         11    1    3    3    0    0  0.13371252184E+02 -0.68860314297E+00 -0.17154261037E+02  0.21760818717E+02  0.51100000000E-03 0. -1.
        -11    1    3    3    0    0  0.10157423262E+02  0.11118359101E+01  0.16237318052E+02  0.19184887912E+02  0.51100000000E-03 0.  1.
        -12    1    3    3    0    0  0.29079682728E+01 -0.18020018297E+02 -0.19427053080E+01  0.18356237163E+02  0.00000000000E+00 0.  1.
</event>
<event>
 7    1  0.1096439E-011  0.5930195E+02  0.7816164E-02  0.1266605E+00
        -11   -1    0    0    0    0  0.00000000000E+00  0.00000000000E+00  0.45593999997E+02  0.45594000000E+02  0.51100000000E-03 0. -1.
         11   -1    0    0    0    0 -0.00000000000E+00 -0.00000000000E+00 -0.45593999997E+02  0.45594000000E+02  0.51100000000E-03 0.  1.
    9900012    2    1    2    0    0  0.11998038795E+02  0.77908241734E+01  0.28496851680E+02  0.59301946122E+02  0.50000003820E+02 0.  0.
        -12    1    1    2    0    0 -0.11998038795E+02 -0.77908241734E+01 -0.28496851680E+02  0.31886053878E+02  0.00000000000E+00 0.  1.
         11    1    3    3    0    0 -0.10937441345E+02  0.38159834367E+01  0.20070066221E+02  0.23173193805E+02  0.51100000000E-03 0. -1.
        -11    1    3    3    0    0  0.80787787550E+01 -0.81088259339E+01 -0.52530491207E+01  0.12594214923E+02  0.51100000000E-03 0.  1.
         12    1    3    3    0    0  0.14856701384E+02  0.12083666671E+02  0.13679834580E+02  0.23534537394E+02  0.00000000000E+00 0. -1.
</event>
<event>
 7    1  0.1096439E-011  0.5930183E+02  0.7816164E-02  0.1266605E+00
        -11   -1    0    0    0    0  0.00000000000E+00  0.00000000000E+00  0.45593999997E+02  0.45594000000E+02  0.51100000000E-03 0.  1.
         11   -1    0    0    0    0 -0.00000000000E+00 -0.00000000000E+00 -0.45593999997E+02  0.45594000000E+02  0.51100000000E-03 0. -1.
    9900012    2    1    2    0    0 -0.28674879400E+02 -0.12627023253E+02  0.59192564268E+01  0.59301827112E+02  0.49999786773E+02 0.  0.
        -12    1    1    2    0    0  0.28674879400E+02  0.12627023253E+02 -0.59192564268E+01  0.31886172888E+02  0.00000000000E+00 0.  1.
         11    1    3    3    0    0 -0.41568021323E+00  0.75340239717E+01  0.87394803685E+00  0.75959260579E+01  0.51100000000E-03 0. -1.
        -11    1    3    3    0    0 -0.75044762545E+01 -0.28191849015E+02  0.37553009275E+01  0.29414278847E+02  0.51100000000E-03 0.  1.
        -12    1    3    3    0    0 -0.20754722932E+02  0.80308017910E+01  0.12900074624E+01  0.22291622207E+02  0.00000000000E+00 0.  1.
</event>
<event>
 7    1  0.1096439E-011  0.5930195E+02  0.7816164E-02  0.1266605E+00
        -11   -1    0    0    0    0  0.00000000000E+00  0.00000000000E+00  0.45593999997E+02  0.45594000000E+02  0.51100000000E-03 0.  1.
         11   -1    0    0    0    0 -0.00000000000E+00 -0.00000000000E+00 -0.45593999997E+02  0.45594000000E+02  0.51100000000E-03 0. -1.
    9900012    2    1    2    0    0 -0.26298888024E+02 -0.16351611446E+02  0.75969205744E+01  0.59301954300E+02  0.50000018734E+02 0.  0.
        -12    1    1    2    0    0  0.26298888024E+02  0.16351611446E+02 -0.75969205744E+01  0.31886045700E+02  0.00000000000E+00 0.  1.
         11    1    3    3    0    0  0.27304343006E+01 -0.43827422648E+01 -0.24934013629E+01  0.57341740336E+01  0.51100000000E-03 0. -1.
        -11    1    3    3    0    0 -0.17493935407E+02  0.11443074818E+02 -0.73712780700E+01  0.22165682438E+02  0.51100000000E-03 0.  1.
        -12    1    3    3    0    0 -0.11535386918E+02 -0.23411943999E+02  0.17461600007E+02  0.31402097828E+02  0.00000000000E+00 0.  1.
</event>
<event>
 7    1  0.1096439E-011  0.5930194E+02  0.7816164E-02  0.1266605E+00
        -11   -1    0    0    0    0  0.00000000000E+00  0.00000000000E+00  0.45593999997E+02  0.45594000000E+02  0.51100000000E-03 0. -1.
         11   -1    0    0    0    0 -0.00000000000E+00 -0.00000000000E+00 -0.45593999997E+02  0.45594000000E+02  0.51100000000E-03 0.  1.
    9900012    2    1    2    0    0  0.39192576092E+01  0.31242331177E+02  0.50276415365E+01  0.59301936947E+02  0.49999987086E+02 0.  0.
        -12    1    1    2    0    0 -0.39192576092E+01 -0.31242331177E+02 -0.50276415365E+01  0.31886063053E+02  0.00000000000E+00 0.  1.
         11    1    3    3    0    0  0.15864419369E+02  0.27460827754E+02  0.29711039284E+01  0.31852854215E+02  0.51100000000E-03 0. -1.
        -11    1    3    3    0    0  0.15991636550E+01 -0.58340765276E+01  0.78025110503E+01  0.98728391193E+01  0.51100000000E-03 0.  1.
         12    1    3    3    0    0 -0.13544325414E+02  0.96155799513E+01 -0.57459734422E+01  0.17576243613E+02  0.00000000000E+00 0. -1.
</event>
<event>
 7    1  0.1096439E-011  0.5930193E+02  0.7816164E-02  0.1266605E+00
        -11   -1    0    0    0    0  0.00000000000E+00  0.00000000000E+00  0.45593999997E+02  0.45594000000E+02  0.51100000000E-03 0. -1.
         11   -1    0    0    0    0 -0.00000000000E+00 -0.00000000000E+00 -0.45593999997E+02  0.45594000000E+02  0.51100000000E-03 0.  1.
    9900012    2    1    2    0    0  0.94300250328E+01  0.30350844438E+02  0.25734459197E+01  0.59301925388E+02  0.49999966006E+02 0.  0.
        -12    1    1    2    0    0 -0.94300250328E+01 -0.30350844438E+02 -0.25734459197E+01  0.31886074612E+02  0.00000000000E+00 0.  1.
         11    1    3    3    0    0  0.76872997918E+01  0.19329685823E+01 -0.57161947112E+01  0.97727083179E+01  0.51100000000E-03 0. -1.
        -11    1    3    3    0    0 -0.15364007793E+02  0.26620350069E+02  0.74102569133E+00  0.30744835219E+02  0.51100000000E-03 0.  1.
        -12    1    3    3    0    0  0.17106733034E+02  0.17975257866E+01  0.75486149396E+01  0.18784381852E+02  0.00000000000E+00 0.  1.
</event>
<event>
 7    1  0.1096439E-011  0.5930194E+02  0.7816164E-02  0.1266605E+00
        -11   -1    0    0    0    0  0.00000000000E+00  0.00000000000E+00  0.45593999997E+02  0.45594000000E+02  0.51100000000E-03 0.  1.
         11   -1    0    0    0    0 -0.00000000000E+00 -0.00000000000E+00 -0.45593999997E+02  0.45594000000E+02  0.51100000000E-03 0. -1.
    9900012    2    1    2    0    0 -0.15931907662E+02 -0.26532577795E+02  0.76757675646E+01  0.59301940759E+02  0.49999994039E+02 0.  0.
        -12    1    1    2    0    0  0.15931907662E+02  0.26532577795E+02 -0.76757675646E+01  0.31886059241E+02  0.00000000000E+00 0.  1.
         11    1    3    3    0    0  0.18678926611E+01 -0.11055155819E+02 -0.17095489308E+02  0.20444100570E+02  0.51100000000E-03 0. -1.
        -11    1    3    3    0    0 -0.18585635670E+01 -0.12378531898E+02  0.16269063657E+02  0.20527170848E+02  0.51100000000E-03 0.  1.
         12    1    3    3    0    0 -0.15941236756E+02 -0.30988900787E+01  0.85021932153E+01  0.18330669341E+02  0.00000000000E+00 0. -1.
</event>
<event>
 7    1  0.1096439E-011  0.5930202E+02  0.7816164E-02  0.1266604E+00
        -11   -1    0    0    0    0  0.00000000000E+00  0.00000000000E+00  0.45593999997E+02  0.45594000000E+02  0.51100000000E-03 0.  1.
         11   -1    0    0    0    0 -0.00000000000E+00 -0.00000000000E+00 -0.45593999997E+02  0.45594000000E+02  0.51100000000E-03 0. -1.
    9900012    2    1    2    0    0  0.20230262616E+02 -0.96831952773E+00 -0.24627512848E+02  0.59302022560E+02  0.50000143224E+02 0.  0.
        -12    1    1    2    0    0 -0.20230262616E+02  0.96831952773E+00  0.24627512848E+02  0.31885977440E+02  0.00000000000E+00 0.  1.
         11    1    3    3    0    0  0.29123718082E+02 -0.34480426600E+01 -0.29245108501E+02  0.41416860391E+02  0.51100000000E-03 0. -1.
        -11    1    3    3    0    0 -0.32016899346E+01 -0.21699002091E+01  0.86692048507E+01  0.94928603887E+01  0.51100000000E-03 0.  1.
         12    1    3    3    0    0 -0.56917655318E+01  0.46496233414E+01 -0.40516091975E+01  0.83923017806E+01  0.00000000000E+00 0. -1.
</event>
<event>
 7    1  0.1096439E-011  0.5930195E+02  0.7816164E-02  0.1266605E+00
        -11   -1    0    0    0    0  0.00000000000E+00  0.00000000000E+00  0.45593999997E+02  0.45594000000E+02  0.51100000000E-03 0. -1.
         11   -1    0    0    0    0 -0.00000000000E+00 -0.00000000000E+00 -0.45593999997E+02  0.45594000000E+02  0.51100000000E-03 0.  1.
    9900012    2    1    2    0    0  0.51856202878E+01 -0.31449592288E+02  0.86745587306E+00  0.59301953011E+02  0.50000016384E+02 0.  0.
        -12    1    1    2    0    0 -0.51856202878E+01  0.31449592288E+02 -0.86745587306E+00  0.31886046989E+02  0.00000000000E+00 0.  1.
         11    1    3    3    0    0 -0.17590687034E+02 -0.12289490972E+02 -0.87298060572E+01  0.23166211877E+02  0.51100000000E-03 0.  1.
        -11    1    3    3    0    0  0.21657871282E+02 -0.20829254487E+02  0.41551539955E+01  0.30334576574E+02  0.51100000000E-03 0. -1.
         12    1    3    3    0    0  0.11184360404E+01  0.16691531702E+01  0.54421079348E+01  0.58011645603E+01  0.00000000000E+00 0. -1.
</event>
<event>
 7    1  0.1096439E-011  0.5930193E+02  0.7816164E-02  0.1266605E+00
        -11   -1    0    0    0    0  0.00000000000E+00  0.00000000000E+00  0.45593999997E+02  0.45594000000E+02  0.51100000000E-03 0. -1.
         11   -1    0    0    0    0 -0.00000000000E+00 -0.00000000000E+00 -0.45593999997E+02  0.45594000000E+02  0.51100000000E-03 0.  1.
    9900012    2    1    2    0    0  0.14025866374E+02 -0.11855144031E+02  0.26066302749E+02  0.59301929271E+02  0.49999973087E+02 0.  0.
        -12    1    1    2    0    0 -0.14025866374E+02  0.11855144031E+02 -0.26066302749E+02  0.31886070729E+02  0.00000000000E+00 0.  1.
         11    1    3    3    0    0  0.13310948379E+02 -0.26926225002E+01  0.32722051582E+02  0.35428296920E+02  0.51100000000E-03 0. -1.
        -11    1    3    3    0    0  0.10806615257E+02 -0.59500910116E+01 -0.35595845547E+01  0.12839671289E+02  0.51100000000E-03 0.  1.
         12    1    3    3    0    0 -0.10091697262E+02 -0.32124305191E+01 -0.30961642779E+01  0.11033961061E+02  0.00000000000E+00 0. -1.
</event>
<event>
 7    1  0.1096439E-011  0.5930195E+02  0.7816164E-02  0.1266605E+00
        -11   -1    0    0    0    0  0.00000000000E+00  0.00000000000E+00  0.45593999997E+02  0.45594000000E+02  0.51100000000E-03 0.  1.
         11   -1    0    0    0    0 -0.00000000000E+00 -0.00000000000E+00 -0.45593999997E+02  0.45594000000E+02  0.51100000000E-03 0. -1.
    9900012    2    1    2    0    0 -0.43831728791E+01 -0.70122373285E+01 -0.30795075068E+02  0.59301947794E+02  0.50000006870E+02 0.  0.
        -12    1    1    2    0    0  0.43831728791E+01  0.70122373285E+01  0.30795075068E+02  0.31886052206E+02  0.00000000000E+00 0.  1.
         11    1    3    3    0    0  0.63396453586E+01 -0.58304956856E+01 -0.18881390707E+02  0.20753137077E+02  0.51100000000E-03 0. -1.
        -11    1    3    3    0    0 -0.84998533853E+01 -0.31112888004E+01  0.11677498135E+02  0.14774694194E+02  0.51100000000E-03 0.  1.
         12    1    3    3    0    0 -0.22229648523E+01  0.19295471574E+01 -0.23591182495E+02  0.23774116524E+02  0.00000000000E+00 0. -1.
</event>
<event>
 7    1  0.1096439E-011  0.5930195E+02  0.7816164E-02  0.1266605E+00
        -11   -1    0    0    0    0  0.00000000000E+00  0.00000000000E+00  0.45593999997E+02  0.45594000000E+02  0.51100000000E-03 0. -1.
         11   -1    0    0    0    0 -0.00000000000E+00 -0.00000000000E+00 -0.45593999997E+02  0.45594000000E+02  0.51100000000E-03 0.  1.
    9900012    2    1    2    0    0  0.11784551584E+02  0.25335297188E+02  0.15361219242E+02  0.59301952953E+02  0.50000016278E+02 0.  0.
        -12    1    1    2    0    0 -0.11784551584E+02 -0.25335297188E+02 -0.15361219242E+02  0.31886047047E+02  0.00000000000E+00 0.  1.
         11    1    3    3    0    0 -0.62981149418E+01  0.26176208279E+02  0.63040655842E+01  0.27651426271E+02  0.51100000000E-03 0. -1.
        -11    1    3    3    0    0 -0.22418780204E+01 -0.83224444111E+01  0.17643968264E+01  0.87978516955E+01  0.51100000000E-03 0.  1.
         12    1    3    3    0    0  0.20324544546E+02  0.74815333210E+01  0.72927568318E+01  0.22852674987E+02  0.00000000000E+00 0. -1.
</event>
<event>
 7    1  0.1096439E-011  0.5930195E+02  0.7816164E-02  0.1266605E+00
        -11   -1    0    0    0    0  0.00000000000E+00  0.00000000000E+00  0.45593999997E+02  0.45594000000E+02  0.51100000000E-03 0. -1.
         11   -1    0    0    0    0 -0.00000000000E+00 -0.00000000000E+00 -0.45593999997E+02  0.45594000000E+02  0.51100000000E-03 0.  1.
    9900012    2    1    2    0    0 -0.13316869674E+02  0.67846612953E+01  0.28166463382E+02  0.59301948093E+02  0.50000007414E+02 0.  0.
        -12    1    1    2    0    0  0.13316869674E+02 -0.67846612953E+01 -0.28166463382E+02  0.31886051907E+02  0.00000000000E+00 0.  1.
         11    1    3    3    0    0  0.12762811101E+02  0.10560304467E+02  0.10289398596E+02  0.19500797454E+02  0.51100000000E-03 0. -1.
        -11    1    3    3    0    0 -0.22597618282E+02 -0.96483418223E+01  0.47806266150E+01  0.25031924477E+02  0.51100000000E-03 0.  1.
         12    1    3    3    0    0 -0.34820624933E+01  0.58726986510E+01  0.13096438171E+02  0.14769226162E+02  0.00000000000E+00 0. -1.
</event>
<event>
 7    1  0.1096439E-011  0.5930195E+02  0.7816164E-02  0.1266605E+00
        -11   -1    0    0    0    0  0.00000000000E+00  0.00000000000E+00  0.45593999997E+02  0.45594000000E+02  0.51100000000E-03 0. -1.
         11   -1    0    0    0    0 -0.00000000000E+00 -0.00000000000E+00 -0.45593999997E+02  0.45594000000E+02  0.51100000000E-03 0.  1.
    9900012    2    1    2    0    0  0.18245370584E+02 -0.22656503108E+02 -0.13057921941E+02  0.59301952797E+02  0.50000015993E+02 0.  0.
        -12    1    1    2    0    0 -0.18245370584E+02  0.22656503108E+02  0.13057921941E+02  0.31886047203E+02  0.00000000000E+00 0.  1.
         11    1    3    3    0    0  0.25653554469E+02 -0.26894930268E+02 -0.73541891202E+01  0.37888338956E+02  0.51100000000E-03 0. -1.
        -11    1    3    3    0    0 -0.83939555241E+01  0.87111750699E+01 -0.95659953438E+01  0.15422429368E+02  0.51100000000E-03 0.  1.
        -12    1    3    3    0    0  0.98577163914E+00 -0.44727479101E+01  0.38622625228E+01  0.59911844727E+01  0.00000000000E+00 0.  1.
</event>
<event>
 7    1  0.1096439E-011  0.5930195E+02  0.7816164E-02  0.1266605E+00
        -11   -1    0    0    0    0  0.00000000000E+00  0.00000000000E+00  0.45593999997E+02  0.45594000000E+02  0.51100000000E-03 0.  1.
         11   -1    0    0    0    0 -0.00000000000E+00 -0.00000000000E+00 -0.45593999997E+02  0.45594000000E+02  0.51100000000E-03 0. -1.
    9900012    2    1    2    0    0 -0.29409942275E+02 -0.43684358790E+01 -0.11519209578E+02  0.59301950920E+02  0.50000012570E+02 0.  0.
        -12    1    1    2    0    0  0.29409942275E+02  0.43684358790E+01  0.11519209578E+02  0.31886049080E+02  0.00000000000E+00 0.  1.
         11    1    3    3    0    0 -0.18601921844E+02  0.33409995609E+01 -0.10394688056E+02  0.21569499632E+02  0.51100000000E-03 0. -1.
        -11    1    3    3    0    0 -0.84087272819E+01 -0.21321705304E+02  0.34390377638E+01  0.23176470667E+02  0.51100000000E-03 0.  1.
        -12    1    3    3    0    0 -0.23992931491E+01  0.13612269864E+02 -0.45635592856E+01  0.14555980621E+02  0.00000000000E+00 0.  1.
</event>
<event>
 7    1  0.1096439E-011  0.5930196E+02  0.7816164E-02  0.1266605E+00
        -11   -1    0    0    0    0  0.00000000000E+00  0.00000000000E+00  0.45593999997E+02  0.45594000000E+02  0.51100000000E-03 0.  1.
         11   -1    0    0    0    0 -0.00000000000E+00 -0.00000000000E+00 -0.45593999997E+02  0.45594000000E+02  0.51100000000E-03 0. -1.
    9900012    2    1    2    0    0  0.53088111654E+01 -0.25738276244E+02  0.18057611464E+02  0.59301958042E+02  0.50000025559E+02 0.  0.
        -12    1    1    2    0    0 -0.53088111654E+01  0.25738276244E+02 -0.18057611464E+02  0.31886041958E+02  0.00000000000E+00 0.  1.
         11    1    3    3    0    0  0.11175861631E+02  0.18220380509E+01 -0.35280506623E+01  0.11860305544E+02  0.51100000000E-03 0. -1.
        -11    1    3    3    0    0 -0.13518493272E+02 -0.13604940799E+00  0.45587669318E+01  0.14267113443E+02  0.51100000000E-03 0.  1.
        -12    1    3    3    0    0  0.76514428069E+01 -0.27424264887E+02  0.17026895194E+02  0.33174539056E+02  0.00000000000E+00 0.  1.
</event>
<event>
 7    1  0.1096439E-011  0.5930197E+02  0.7816164E-02  0.1266605E+00
        -11   -1    0    0    0    0  0.00000000000E+00  0.00000000000E+00  0.45593999997E+02  0.45594000000E+02  0.51100000000E-03 0.  1.
         11   -1    0    0    0    0 -0.00000000000E+00 -0.00000000000E+00 -0.45593999997E+02  0.45594000000E+02  0.51100000000E-03 0. -1.
    9900012    2    1    2    0    0  0.12818313079E+02  0.15482433509E+02 -0.24752864153E+02  0.59301965733E+02  0.50000039584E+02 0.  0.
        -12    1    1    2    0    0 -0.12818313079E+02 -0.15482433509E+02  0.24752864153E+02  0.31886034267E+02  0.00000000000E+00 0.  1.
         11    1    3    3    0    0 -0.10634463026E+02 -0.57242163589E+01 -0.15620143695E+02  0.19744552315E+02  0.51100000000E-03 0. -1.
        -11    1    3    3    0    0  0.22699657410E+02  0.23390938851E+02 -0.12968272302E+02  0.35079717126E+02  0.51100000000E-03 0.  1.
         12    1    3    3    0    0  0.75311869459E+00 -0.21842889829E+01  0.38355518448E+01  0.44776962920E+01  0.00000000000E+00 0. -1.
</event>
<event>
 7    1  0.1096439E-011  0.5930194E+02  0.7816164E-02  0.1266605E+00
        -11   -1    0    0    0    0  0.00000000000E+00  0.00000000000E+00  0.45593999997E+02  0.45594000000E+02  0.51100000000E-03 0.  1.
         11   -1    0    0    0    0 -0.00000000000E+00 -0.00000000000E+00 -0.45593999997E+02  0.45594000000E+02  0.51100000000E-03 0. -1.
    9900012    2    1    2    0    0  0.35192858243E+01 -0.26576915462E+02 -0.17262770350E+02  0.59301936456E+02  0.49999986191E+02 0.  0.
        -12    1    1    2    0    0 -0.35192858243E+01  0.26576915462E+02  0.17262770350E+02  0.31886063544E+02  0.00000000000E+00 0.  1.
         11    1    3    3    0    0  0.19876609219E+01 -0.69031069826E+01 -0.10072022225E+02  0.12371310113E+02  0.51100000000E-03 0. -1.
        -11    1    3    3    0    0 -0.46835343319E+01 -0.97978138745E+01  0.16942613944E+02  0.20124234596E+02  0.51100000000E-03 0.  1.
        -12    1    3    3    0    0  0.62151592344E+01 -0.98759946050E+01 -0.24133362069E+02  0.26806391747E+02  0.00000000000E+00 0.  1.
</event>
<event>
 7    1  0.1096439E-011  0.5930198E+02  0.7816164E-02  0.1266605E+00
        -11   -1    0    0    0    0  0.00000000000E+00  0.00000000000E+00  0.45593999997E+02  0.45594000000E+02  0.51100000000E-03 0.  1.
         11   -1    0    0    0    0 -0.00000000000E+00 -0.00000000000E+00 -0.45593999997E+02  0.45594000000E+02  0.51100000000E-03 0. -1.
    9900012    2    1    2    0    0 -0.15496815299E+02 -0.25080024013E+02 -0.12147402766E+02  0.59301979821E+02  0.50000065278E+02 0.  0.
        -12    1    1    2    0    0  0.15496815299E+02  0.25080024013E+02  0.12147402766E+02  0.31886020179E+02  0.00000000000E+00 0.  1.
         11    1    3    3    0    0 -0.31416731071E+01 -0.24643436654E+02 -0.68701338934E+01  0.25775333558E+02  0.51100000000E-03 0. -1.
        -11    1    3    3    0    0  0.62112007286E+01  0.84196361959E+01  0.36794184798E+01  0.11090870515E+02  0.51100000000E-03 0.  1.
        -12    1    3    3    0    0 -0.18566342920E+02 -0.88562235549E+01 -0.89566873524E+01  0.22435775748E+02  0.00000000000E+00 0.  1.
</event>
<event>
 7    1  0.1096439E-011  0.5930185E+02  0.7816164E-02  0.1266605E+00
        -11   -1    0    0    0    0  0.00000000000E+00  0.00000000000E+00  0.45593999997E+02  0.45594000000E+02  0.51100000000E-03 0. -1.
         11   -1    0    0    0    0 -0.00000000000E+00 -0.00000000000E+00 -0.45593999997E+02  0.45594000000E+02  0.51100000000E-03 0.  1.
    9900012    2    1    2    0    0 -0.19880295923E+02 -0.24825236094E+02 -0.22821676710E+01  0.59301846228E+02  0.49999821636E+02 0.  0.
        -12    1    1    2    0    0  0.19880295923E+02  0.24825236094E+02  0.22821676710E+01  0.31886153772E+02  0.00000000000E+00 0.  1.
         11    1    3    3    0    0  0.12090524346E+02  0.27848274531E+01  0.53934476662E+01  0.13528685113E+02  0.51100000000E-03 0.  1.
        -11    1    3    3    0    0 -0.28127947748E+02 -0.27854169361E+02 -0.10550574518E+02  0.40967680166E+02  0.51100000000E-03 0. -1.
        -12    1    3    3    0    0 -0.38428725203E+01  0.24410581312E+00  0.28749591804E+01  0.48054809483E+01  0.00000000000E+00 0.  1.
</event>
<event>
 7    1  0.1096439E-011  0.5930190E+02  0.7816164E-02  0.1266605E+00
        -11   -1    0    0    0    0  0.00000000000E+00  0.00000000000E+00  0.45593999997E+02  0.45594000000E+02  0.51100000000E-03 0.  1.
         11   -1    0    0    0    0 -0.00000000000E+00 -0.00000000000E+00 -0.45593999997E+02  0.45594000000E+02  0.51100000000E-03 0. -1.
    9900012    2    1    2    0    0  0.24627955407E+02 -0.48302995065E+01 -0.19668643697E+02  0.59301897609E+02  0.49999915342E+02 0.  0.
        -12    1    1    2    0    0 -0.24627955407E+02  0.48302995065E+01  0.19668643697E+02  0.31886102391E+02  0.00000000000E+00 0.  1.
         11    1    3    3    0    0  0.12460680627E+01 -0.67576883601E+01 -0.10558558988E+02  0.12597706369E+02  0.51100000000E-03 0. -1.
        -11    1    3    3    0    0  0.70055498435E+01  0.19577789253E+02  0.44989862261E+00  0.20798316511E+02  0.51100000000E-03 0.  1.
        -12    1    3    3    0    0  0.16376337500E+02 -0.17650400399E+02 -0.95599833318E+01  0.25905874729E+02  0.00000000000E+00 0.  1.
</event>
<event>
 7    1  0.1096439E-011  0.5930198E+02  0.7816164E-02  0.1266605E+00
        -11   -1    0    0    0    0  0.00000000000E+00  0.00000000000E+00  0.45593999997E+02  0.45594000000E+02  0.51100000000E-03 0.  1.
         11   -1    0    0    0    0 -0.00000000000E+00 -0.00000000000E+00 -0.45593999997E+02  0.45594000000E+02  0.51100000000E-03 0. -1.
    9900012    2    1    2    0    0 -0.91942299494E+01  0.29160607394E+02  0.90467459691E+01  0.59301976407E+02  0.50000059051E+02 0.  0.
        -12    1    1    2    0    0  0.91942299494E+01 -0.29160607394E+02 -0.90467459691E+01  0.31886023593E+02  0.00000000000E+00 0.  1.
         11    1    3    3    0    0 -0.79054233497E+01  0.36372791619E+02  0.20886810201E+02  0.42681782169E+02  0.51100000000E-03 0. -1.
        -11    1    3    3    0    0 -0.17620937749E+01 -0.74570216104E+01 -0.37827029067E+01  0.85452318465E+01  0.51100000000E-03 0.  1.
         12    1    3    3    0    0  0.47328717519E+00  0.24483738617E+00 -0.80573613253E+01  0.80749623914E+01  0.00000000000E+00 0. -1.
</event>
<event>
 7    1  0.1096439E-011  0.5930200E+02  0.7816164E-02  0.1266605E+00
        -11   -1    0    0    0    0  0.00000000000E+00  0.00000000000E+00  0.45593999997E+02  0.45594000000E+02  0.51100000000E-03 0. -1.
         11   -1    0    0    0    0 -0.00000000000E+00 -0.00000000000E+00 -0.45593999997E+02  0.45594000000E+02  0.51100000000E-03 0.  1.
    9900012    2    1    2    0    0  0.47874851976E+01  0.26889105907E+02  0.16455182564E+02  0.59301998930E+02  0.50000100129E+02 0.  0.
        -12    1    1    2    0    0 -0.47874851976E+01 -0.26889105907E+02 -0.16455182564E+02  0.31886001070E+02  0.00000000000E+00 0.  1.
         11    1    3    3    0    0  0.48458975914E+00  0.13999058924E+02  0.23450775263E+02  0.27315697661E+02  0.51100000000E-03 0. -1.
        -11    1    3    3    0    0  0.13356424989E+02  0.29516809619E+01 -0.11434603775E+02  0.17828535350E+02  0.51100000000E-03 0.  1.
        -12    1    3    3    0    0 -0.90535295503E+01  0.99383660211E+01  0.44390110766E+01  0.14157765919E+02  0.00000000000E+00 0.  1.
</event>
<event>
 7    1  0.1096439E-011  0.5930195E+02  0.7816164E-02  0.1266605E+00
        -11   -1    0    0    0    0  0.00000000000E+00  0.00000000000E+00  0.45593999997E+02  0.45594000000E+02  0.51100000000E-03 0.  1.
         11   -1    0    0    0    0 -0.00000000000E+00 -0.00000000000E+00 -0.45593999997E+02  0.45594000000E+02  0.51100000000E-03 0. -1.
    9900012    2    1    2    0    0 -0.14020218584E+02 -0.20247038125E+02 -0.20253669099E+02  0.59301949853E+02  0.50000010624E+02 0.  0.
        -12    1    1    2    0    0  0.14020218584E+02  0.20247038125E+02  0.20253669099E+02  0.31886050147E+02  0.00000000000E+00 0.  1.
         11    1    3    3    0    0 -0.12728167540E+02  0.22560830308E+01 -0.43218894138E+01  0.13629926189E+02  0.51100000000E-03 0. -1.
        -11    1    3    3    0    0  0.15344324308E+02 -0.10245557891E+02 -0.16850564747E+02  0.24987222285E+02  0.51100000000E-03 0.  1.
        -12    1    3    3    0    0 -0.16636375352E+02 -0.12257563265E+02  0.91878506174E+00  0.20684801378E+02  0.00000000000E+00 0.  1.
</event>
<event>
 7    1  0.1096439E-011  0.5930193E+02  0.7816164E-02  0.1266605E+00
        -11   -1    0    0    0    0  0.00000000000E+00  0.00000000000E+00  0.45593999997E+02  0.45594000000E+02  0.51100000000E-03 0.  1.
         11   -1    0    0    0    0 -0.00000000000E+00 -0.00000000000E+00 -0.45593999997E+02  0.45594000000E+02  0.51100000000E-03 0. -1.
    9900012    2    1    2    0    0  0.27184040785E+01 -0.25488694777E+02 -0.18964651080E+02  0.59301932937E+02  0.49999979773E+02 0.  0.
        -12    1    1    2    0    0 -0.27184040785E+01  0.25488694777E+02  0.18964651080E+02  0.31886067063E+02  0.00000000000E+00 0.  1.
         11    1    3    3    0    0  0.15743317343E+02 -0.18154686153E+02 -0.59228906392E+01  0.24749248555E+02  0.51100000000E-03 0. -1.
        -11    1    3    3    0    0 -0.34077449381E+01  0.52255613050E+01 -0.17116171595E+02  0.18217643834E+02  0.51100000000E-03 0.  1.
         12    1    3    3    0    0 -0.96171683268E+01 -0.12559569929E+02  0.40744111540E+01  0.16335040547E+02  0.00000000000E+00 0. -1.
</event>
<event>
 7    1  0.1096439E-011  0.5930191E+02  0.7816164E-02  0.1266605E+00
        -11   -1    0    0    0    0  0.00000000000E+00  0.00000000000E+00  0.45593999997E+02  0.45594000000E+02  0.51100000000E-03 0.  1.
         11   -1    0    0    0    0 -0.00000000000E+00 -0.00000000000E+00 -0.45593999997E+02  0.45594000000E+02  0.51100000000E-03 0. -1.
    9900012    2    1    2    0    0 -0.10215967261E+02  0.47663060886E+01 -0.29826822707E+02  0.59301905639E+02  0.49999929989E+02 0.  0.
        -12    1    1    2    0    0  0.10215967261E+02 -0.47663060886E+01  0.29826822707E+02  0.31886094361E+02  0.00000000000E+00 0.  1.
         11    1    3    3    0    0 -0.34314731630E+01 -0.49888519203E+01 -0.18952136893E+02  0.19895907736E+02  0.51100000000E-03 0. -1.
        -11    1    3    3    0    0 -0.15073216668E+02 -0.79163440902E+01  0.74782601274E-01  0.17025743954E+02  0.51100000000E-03 0.  1.
        -12    1    3    3    0    0  0.82887225704E+01  0.17671502099E+02 -0.10949468415E+02  0.22380253950E+02  0.00000000000E+00 0.  1.
</event>
<event>
 7    1  0.1096439E-011  0.5930196E+02  0.7816164E-02  0.1266605E+00
        -11   -1    0    0    0    0  0.00000000000E+00  0.00000000000E+00  0.45593999997E+02  0.45594000000E+02  0.51100000000E-03 0. -1.
         11   -1    0    0    0    0 -0.00000000000E+00 -0.00000000000E+00 -0.45593999997E+02  0.45594000000E+02  0.51100000000E-03 0.  1.
    9900012    2    1    2    0    0  0.16786565870E+02 -0.14884261909E+01  0.27068718889E+02  0.59301956838E+02  0.50000023363E+02 0.  0.
        -12    1    1    2    0    0 -0.16786565870E+02  0.14884261909E+01 -0.27068718889E+02  0.31886043162E+02  0.00000000000E+00 0.  1.
         11    1    3    3    0    0  0.26674499034E+01 -0.14796693512E+02  0.10677857997E+01  0.15073075156E+02  0.51100000000E-03 0.  1.
        -11    1    3    3    0    0  0.12438009627E+02  0.22869083733E+02  0.19844097562E+02  0.32733580351E+02  0.51100000000E-03 0. -1.
        -12    1    3    3    0    0  0.16811063397E+01 -0.95608164115E+01  0.61568355273E+01  0.11495301331E+02  0.00000000000E+00 0.  1.
</event>
<event>
 7    1  0.1096439E-011  0.5930195E+02  0.7816164E-02  0.1266605E+00
        -11   -1    0    0    0    0  0.00000000000E+00  0.00000000000E+00  0.45593999997E+02  0.45594000000E+02  0.51100000000E-03 0.  1.
         11   -1    0    0    0    0 -0.00000000000E+00 -0.00000000000E+00 -0.45593999997E+02  0.45594000000E+02  0.51100000000E-03 0. -1.
    9900012    2    1    2    0    0 -0.96550263177E+01 -0.11585358414E+00 -0.30388931840E+02  0.59301950800E+02  0.50000012350E+02 0.  0.
        -12    1    1    2    0    0  0.96550263177E+01  0.11585358414E+00  0.30388931840E+02  0.31886049200E+02  0.00000000000E+00 0.  1.
         11    1    3    3    0    0  0.12417890117E+02  0.17442359155E+01 -0.16767645682E+02  0.20938010790E+02  0.51100000000E-03 0. -1.
        -11    1    3    3    0    0 -0.93519424312E+01 -0.14432465066E+02 -0.27012122054E+01  0.17408372203E+02  0.51100000000E-03 0.  1.
         12    1    3    3    0    0 -0.12720974003E+02  0.12572375566E+02 -0.10920073952E+02  0.20955567807E+02  0.00000000000E+00 0. -1.
</event>
<event>
 7    1  0.1096439E-011  0.5930190E+02  0.7816164E-02  0.1266605E+00
        -11   -1    0    0    0    0  0.00000000000E+00  0.00000000000E+00  0.45593999997E+02  0.45594000000E+02  0.51100000000E-03 0.  1.
         11   -1    0    0    0    0 -0.00000000000E+00 -0.00000000000E+00 -0.45593999997E+02  0.45594000000E+02  0.51100000000E-03 0. -1.
    9900012    2    1    2    0    0 -0.13576737207E+02  0.20479184198E+02 -0.20322363179E+02  0.59301902343E+02  0.49999923978E+02 0.  0.
        -12    1    1    2    0    0  0.13576737207E+02 -0.20479184198E+02  0.20322363179E+02  0.31886097657E+02  0.00000000000E+00 0.  1.
         11    1    3    3    0    0 -0.23800708427E+02  0.16499467470E+02 -0.10031928482E+02  0.30648747735E+02  0.51100000000E-03 0.  1.
        -11    1    3    3    0    0  0.16049242885E+02  0.89166669583E+01 -0.40732370613E+01  0.18806286375E+02  0.51100000000E-03 0. -1.
        -12    1    3    3    0    0 -0.58252716649E+01 -0.49369502304E+01 -0.62171976359E+01  0.98468682327E+01  0.00000000000E+00 0.  1.
</event>
<event>
 7    1  0.1096439E-011  0.5930195E+02  0.7816164E-02  0.1266605E+00
        -11   -1    0    0    0    0  0.00000000000E+00  0.00000000000E+00  0.45593999997E+02  0.45594000000E+02  0.51100000000E-03 0. -1.
         11   -1    0    0    0    0 -0.00000000000E+00 -0.00000000000E+00 -0.45593999997E+02  0.45594000000E+02  0.51100000000E-03 0.  1.
    9900012    2    1    2    0    0  0.11893701971E+02  0.29379403104E+02  0.34800519209E+01  0.59301949214E+02  0.50000009459E+02 0.  0.
        -12    1    1    2    0    0 -0.11893701971E+02 -0.29379403104E+02 -0.34800519209E+01  0.31886050786E+02  0.00000000000E+00 0.  1.
         11    1    3    3    0    0  0.13852326747E+02  0.11119219927E+02  0.13326504162E+02  0.22206299141E+02  0.51100000000E-03 0. -1.
        -11    1    3    3    0    0  0.96060206292E+01  0.42886118244E+01 -0.14926184853E+02  0.18260854806E+02  0.51100000000E-03 0.  1.
         12    1    3    3    0    0 -0.11564645405E+02  0.13971571352E+02  0.50797326122E+01  0.18834795268E+02  0.00000000000E+00 0. -1.
</event>
<event>
 7    1  0.1096439E-011  0.5930195E+02  0.7816164E-02  0.1266605E+00
        -11   -1    0    0    0    0  0.00000000000E+00  0.00000000000E+00  0.45593999997E+02  0.45594000000E+02  0.51100000000E-03 0.  1.
         11   -1    0    0    0    0 -0.00000000000E+00 -0.00000000000E+00 -0.45593999997E+02  0.45594000000E+02  0.51100000000E-03 0. -1.
    9900012    2    1    2    0    0 -0.73740267040E+01  0.13059072963E+02 -0.28139026361E+02  0.59301945665E+02  0.50000002986E+02 0.  0.
        -12    1    1    2    0    0  0.73740267040E+01 -0.13059072963E+02  0.28139026361E+02  0.31886054335E+02  0.00000000000E+00 0.  1.
         11    1    3    3    0    0 -0.22717014698E+02 -0.27920345696E+01 -0.10089311841E+02  0.25013045147E+02  0.51100000000E-03 0. -1.
        -11    1    3    3    0    0  0.88995454766E+01 -0.10821152805E+01 -0.36746161431E+00  0.89726201006E+01  0.51100000000E-03 0.  1.
         12    1    3    3    0    0  0.64434425177E+01  0.16933222814E+02 -0.17682252906E+02  0.25316280417E+02  0.00000000000E+00 0. -1.
</event>
<event>
 7    1  0.1096439E-011  0.5930191E+02  0.7816164E-02  0.1266605E+00
        -11   -1    0    0    0    0  0.00000000000E+00  0.00000000000E+00  0.45593999997E+02  0.45594000000E+02  0.51100000000E-03 0.  1.
         11   -1    0    0    0    0 -0.00000000000E+00 -0.00000000000E+00 -0.45593999997E+02  0.45594000000E+02  0.51100000000E-03 0. -1.
    9900012    2    1    2    0    0 -0.74054242373E+01 -0.22747688867E+02 -0.21081393230E+02  0.59301909029E+02  0.49999936170E+02 0.  0.
        -12    1    1    2    0    0  0.74054242373E+01  0.22747688867E+02  0.21081393230E+02  0.31886090971E+02  0.00000000000E+00 0.  1.
         11    1    3    3    0    0 -0.16181507606E+02 -0.21810134064E+02 -0.30598509221E+02  0.40912001944E+02  0.51100000000E-03 0. -1.
        -11    1    3    3    0    0  0.81134214469E+01 -0.63364547187E+01  0.63566638091E+01  0.12098985124E+02  0.51100000000E-03 0.  1.
        -12    1    3    3    0    0  0.66266192146E+00  0.53988999163E+01  0.31604521817E+01  0.62909219611E+01  0.00000000000E+00 0.  1.
</event>
<event>
 7    1  0.1096439E-011  0.5930194E+02  0.7816164E-02  0.1266605E+00
        -11   -1    0    0    0    0  0.00000000000E+00  0.00000000000E+00  0.45593999997E+02  0.45594000000E+02  0.51100000000E-03 0. -1.
         11   -1    0    0    0    0 -0.00000000000E+00 -0.00000000000E+00 -0.45593999997E+02  0.45594000000E+02  0.51100000000E-03 0.  1.
    9900012    2    1    2    0    0  0.23290290190E+02 -0.56170974292E+01  0.21041179005E+02  0.59301943258E+02  0.49999998596E+02 0.  0.
        -12    1    1    2    0    0 -0.23290290190E+02  0.56170974292E+01 -0.21041179005E+02  0.31886056742E+02  0.00000000000E+00 0.  1.
         11    1    3    3    0    0 -0.75897389526E+01 -0.58527785210E+01  0.12383970876E+02  0.15659562213E+02  0.51100000000E-03 0.  1.
        -11    1    3    3    0    0  0.20544539985E+02 -0.13201813687E+02 -0.39621540377E+00  0.24423820233E+02  0.51100000000E-03 0. -1.
         12    1    3    3    0    0  0.10335489157E+02  0.13437494779E+02  0.90534235330E+01  0.19218560813E+02  0.00000000000E+00 0. -1.
</event>
<event>
 7    1  0.1096439E-011  0.5930193E+02  0.7816164E-02  0.1266605E+00
        -11   -1    0    0    0    0  0.00000000000E+00  0.00000000000E+00  0.45593999997E+02  0.45594000000E+02  0.51100000000E-03 0.  1.
         11   -1    0    0    0    0 -0.00000000000E+00 -0.00000000000E+00 -0.45593999997E+02  0.45594000000E+02  0.51100000000E-03 0. -1.
    9900012    2    1    2    0    0  0.19720552815E+02 -0.16132496686E+02 -0.19171945401E+02  0.59301934970E+02  0.49999983481E+02 0.  0.
        -12    1    1    2    0    0 -0.19720552815E+02  0.16132496686E+02  0.19171945401E+02  0.31886065030E+02  0.00000000000E+00 0.  1.
         11    1    3    3    0    0  0.46261701685E+01  0.13557406379E+02 -0.10414328766E+02  0.17710532518E+02  0.51100000000E-03 0. -1.
        -11    1    3    3    0    0 -0.35521099818E+01 -0.18402892642E+02 -0.24598841537E+01  0.18903305881E+02  0.51100000000E-03 0.  1.
         12    1    3    3    0    0  0.18646492628E+02 -0.11287010423E+02 -0.62977324814E+01  0.22688096571E+02  0.00000000000E+00 0. -1.
</event>
<event>
 7    1  0.1096439E-011  0.5930194E+02  0.7816164E-02  0.1266605E+00
        -11   -1    0    0    0    0  0.00000000000E+00  0.00000000000E+00  0.45593999997E+02  0.45594000000E+02  0.51100000000E-03 0. -1.
         11   -1    0    0    0    0 -0.00000000000E+00 -0.00000000000E+00 -0.45593999997E+02  0.45594000000E+02  0.51100000000E-03 0.  1.
    9900012    2    1    2    0    0 -0.29424726579E+02  0.58304293065E+00  0.12270560302E+02  0.59301935278E+02  0.49999984043E+02 0.  0.
        -12    1    1    2    0    0  0.29424726579E+02 -0.58304293065E+00 -0.12270560302E+02  0.31886064722E+02  0.00000000000E+00 0.  1.
         11    1    3    3    0    0  0.25038267527E+01  0.58372755222E+01  0.17258945917E+02  0.18390599456E+02  0.51100000000E-03 0. -1.
        -11    1    3    3    0    0 -0.66765866879E+01  0.52303160517E+01 -0.10001549825E+02  0.13113505061E+02  0.51100000000E-03 0.  1.
         12    1    3    3    0    0 -0.25251966644E+02 -0.10484548643E+02  0.50131642107E+01  0.27797830762E+02  0.00000000000E+00 0. -1.
</event>
<event>
 7    1  0.1096439E-011  0.5930192E+02  0.7816164E-02  0.1266605E+00
        -11   -1    0    0    0    0  0.00000000000E+00  0.00000000000E+00  0.45593999997E+02  0.45594000000E+02  0.51100000000E-03 0. -1.
         11   -1    0    0    0    0 -0.00000000000E+00 -0.00000000000E+00 -0.45593999997E+02  0.45594000000E+02  0.51100000000E-03 0.  1.
    9900012    2    1    2    0    0 -0.14140534731E+02 -0.26458072302E+02  0.10804523306E+02  0.59301920964E+02  0.49999957937E+02 0.  0.
        -12    1    1    2    0    0  0.14140534731E+02  0.26458072302E+02 -0.10804523306E+02  0.31886079036E+02  0.00000000000E+00 0.  1.
         11    1    3    3    0    0 -0.18474460028E+02 -0.73491003113E+01  0.13803303809E+02  0.24204258820E+02  0.51100000000E-03 0. -1.
        -11    1    3    3    0    0  0.13932055153E+02 -0.51931409487E+01  0.58968689182E+01  0.15995122288E+02  0.51100000000E-03 0.  1.
         12    1    3    3    0    0 -0.95981298561E+01 -0.13915831042E+02 -0.88956494215E+01  0.19102539856E+02  0.00000000000E+00 0. -1.
</event>
<event>
 7    1  0.1096439E-011  0.5930195E+02  0.7816164E-02  0.1266605E+00
        -11   -1    0    0    0    0  0.00000000000E+00  0.00000000000E+00  0.45593999997E+02  0.45594000000E+02  0.51100000000E-03 0.  1.
         11   -1    0    0    0    0 -0.00000000000E+00 -0.00000000000E+00 -0.45593999997E+02  0.45594000000E+02  0.51100000000E-03 0. -1.
    9900012    2    1    2    0    0  0.26361345478E+02  0.12626730941E+02 -0.12742267391E+02  0.59301949008E+02  0.50000009082E+02 0.  0.
        -12    1    1    2    0    0 -0.26361345478E+02 -0.12626730941E+02  0.12742267391E+02  0.31886050992E+02  0.00000000000E+00 0.  1.
         11    1    3    3    0    0 -0.22939118886E+01 -0.94202530600E+01 -0.34745846626E+01  0.10299317371E+02  0.51100000000E-03 0. -1.
        -11    1    3    3    0    0  0.71347073056E+01  0.20741931107E+02  0.58127687553E+01  0.22691849533E+02  0.51100000000E-03 0.  1.
        -12    1    3    3    0    0  0.21520550061E+02  0.13050528940E+01 -0.15080451483E+02  0.26310782104E+02  0.00000000000E+00 0.  1.
</event>
<event>
 7    1  0.1096439E-011  0.5930183E+02  0.7816164E-02  0.1266605E+00
        -11   -1    0    0    0    0  0.00000000000E+00  0.00000000000E+00  0.45593999997E+02  0.45594000000E+02  0.51100000000E-03 0.  1.
         11   -1    0    0    0    0 -0.00000000000E+00 -0.00000000000E+00 -0.45593999997E+02  0.45594000000E+02  0.51100000000E-03 0. -1.
    9900012    2    1    2    0    0 -0.17547177891E+02  0.11657169571E+02 -0.23936051676E+02  0.59301833341E+02  0.49999798134E+02 0.  0.
        -12    1    1    2    0    0  0.17547177891E+02 -0.11657169571E+02  0.23936051676E+02  0.31886166659E+02  0.00000000000E+00 0.  1.
         11    1    3    3    0    0 -0.14682242194E+02  0.20033038099E+02  0.27288756306E+01  0.24986748764E+02  0.51100000000E-03 0. -1.
        -11    1    3    3    0    0 -0.79368965012E+01 -0.12629952889E+02 -0.17238144414E+02  0.22796132548E+02  0.51100000000E-03 0.  1.
        -12    1    3    3    0    0  0.50719608036E+01  0.42540843612E+01 -0.94267828928E+01  0.11518952029E+02  0.00000000000E+00 0.  1.
</event>
<event>
 7    1  0.1096439E-011  0.5930193E+02  0.7816164E-02  0.1266605E+00
        -11   -1    0    0    0    0  0.00000000000E+00  0.00000000000E+00  0.45593999997E+02  0.45594000000E+02  0.51100000000E-03 0.  1.
         11   -1    0    0    0    0 -0.00000000000E+00 -0.00000000000E+00 -0.45593999997E+02  0.45594000000E+02  0.51100000000E-03 0. -1.
    9900012    2    1    2    0    0 -0.16142051347E+02 -0.26030622118E+02 -0.88635264892E+01  0.59301933900E+02  0.49999981529E+02 0.  0.
        -12    1    1    2    0    0  0.16142051347E+02  0.26030622118E+02  0.88635264892E+01  0.31886066100E+02  0.00000000000E+00 0.  1.
         11    1    3    3    0    0  0.24880383770E+01 -0.13229584164E+02 -0.93572888759E+01  0.16394239461E+02  0.51100000000E-03 0. -1.
        -11    1    3    3    0    0 -0.24708415848E+02 -0.10583224922E+01 -0.93328687287E+01  0.26433469299E+02  0.51100000000E-03 0.  1.
        -12    1    3    3    0    0  0.60783261243E+01 -0.11742715462E+02  0.98266311154E+01  0.16474225140E+02  0.00000000000E+00 0.  1.
</event>
<event>
 7    1  0.1096439E-011  0.5930173E+02  0.7816164E-02  0.1266605E+00
        -11   -1    0    0    0    0  0.00000000000E+00  0.00000000000E+00  0.45593999997E+02  0.45594000000E+02  0.51100000000E-03 0.  1.
         11   -1    0    0    0    0 -0.00000000000E+00 -0.00000000000E+00 -0.45593999997E+02  0.45594000000E+02  0.51100000000E-03 0. -1.
    9900012    2    1    2    0    0  0.20266591049E+02  0.23080745033E+02 -0.85602906903E+01  0.59301732098E+02  0.49999613490E+02 0.  0.
        -12    1    1    2    0    0 -0.20266591049E+02 -0.23080745033E+02  0.85602906903E+01  0.31886267902E+02  0.00000000000E+00 0.  1.
         11    1    3    3    0    0  0.16368762398E+01 -0.73223247209E+01  0.12727069871E+02  0.14774102711E+02  0.51100000000E-03 0.  1.
        -11    1    3    3    0    0  0.20663540717E+02  0.23161101236E+02 -0.19922756136E+02  0.36882715976E+02  0.51100000000E-03 0. -1.
         12    1    3    3    0    0 -0.20338259079E+01  0.72419685176E+01 -0.13646044257E+01  0.76449134117E+01  0.00000000000E+00 0. -1.
</event>
<event>
 7    1  0.1096439E-011  0.5930193E+02  0.7816164E-02  0.1266605E+00
        -11   -1    0    0    0    0  0.00000000000E+00  0.00000000000E+00  0.45593999997E+02  0.45594000000E+02  0.51100000000E-03 0.  1.
         11   -1    0    0    0    0 -0.00000000000E+00 -0.00000000000E+00 -0.45593999997E+02  0.45594000000E+02  0.51100000000E-03 0. -1.
    9900012    2    1    2    0    0  0.60220895340E+01 -0.54143671907E+00 -0.31307551343E+02  0.59301929575E+02  0.49999973641E+02 0.  0.
        -12    1    1    2    0    0 -0.60220895340E+01  0.54143671907E+00  0.31307551343E+02  0.31886070425E+02  0.00000000000E+00 0.  1.
         11    1    3    3    0    0  0.71191011673E+01 -0.10701948303E+02 -0.25031320278E+01  0.13094997866E+02  0.51100000000E-03 0. -1.
        -11    1    3    3    0    0  0.89073278462E+01  0.83504833038E+01 -0.33016853895E+02  0.35202041165E+02  0.51100000000E-03 0.  1.
        -12    1    3    3    0    0 -0.10004339480E+02  0.18100282797E+01  0.42124345799E+01  0.11004890544E+02  0.00000000000E+00 0.  1.
</event>
<event>
 7    1  0.1096439E-011  0.5930193E+02  0.7816164E-02  0.1266605E+00
        -11   -1    0    0    0    0  0.00000000000E+00  0.00000000000E+00  0.45593999997E+02  0.45594000000E+02  0.51100000000E-03 0. -1.
         11   -1    0    0    0    0 -0.00000000000E+00 -0.00000000000E+00 -0.45593999997E+02  0.45594000000E+02  0.51100000000E-03 0.  1.
    9900012    2    1    2    0    0 -0.12671051043E+02  0.23999790933E+02  0.16738454067E+02  0.59301931821E+02  0.49999977738E+02 0.  0.
        -12    1    1    2    0    0  0.12671051043E+02 -0.23999790933E+02 -0.16738454067E+02  0.31886068179E+02  0.00000000000E+00 0.  1.
         11    1    3    3    0    0 -0.18199859783E+02 -0.15127862079E+01  0.11593811439E+02  0.21631918134E+02  0.51100000000E-03 0. -1.
        -11    1    3    3    0    0 -0.84378795648E+00  0.22087965106E+02 -0.72974569866E+01  0.23277522621E+02  0.51100000000E-03 0.  1.
         12    1    3    3    0    0  0.63725966965E+01  0.34246120344E+01  0.12442099615E+02  0.14392491066E+02  0.00000000000E+00 0. -1.
</event>
<event>
 7    1  0.1096439E-011  0.5930194E+02  0.7816164E-02  0.1266605E+00
        -11   -1    0    0    0    0  0.00000000000E+00  0.00000000000E+00  0.45593999997E+02  0.45594000000E+02  0.51100000000E-03 0.  1.
         11   -1    0    0    0    0 -0.00000000000E+00 -0.00000000000E+00 -0.45593999997E+02  0.45594000000E+02  0.51100000000E-03 0. -1.
    9900012    2    1    2    0    0 -0.10159102359E+02 -0.99844058965E+01 -0.28527615283E+02  0.59301944182E+02  0.50000000282E+02 0.  0.
        -12    1    1    2    0    0  0.10159102359E+02  0.99844058965E+01  0.28527615283E+02  0.31886055818E+02  0.00000000000E+00 0.  1.
         11    1    3    3    0    0 -0.99597120928E+01  0.23966139388E+01  0.20782726658E+01  0.10452695388E+02  0.51100000000E-03 0. -1.
        -11    1    3    3    0    0 -0.16119188538E+01 -0.23058038621E+02 -0.30254203690E+02  0.38073458847E+02  0.51100000000E-03 0.  1.
        -12    1    3    3    0    0  0.14125285876E+01  0.10677018786E+02 -0.35168425950E+00  0.10775789947E+02  0.00000000000E+00 0.  1.
</event>
<event>
 7    1  0.1096439E-011  0.5930194E+02  0.7816164E-02  0.1266605E+00
        -11   -1    0    0    0    0  0.00000000000E+00  0.00000000000E+00  0.45593999997E+02  0.45594000000E+02  0.51100000000E-03 0.  1.
         11   -1    0    0    0    0 -0.00000000000E+00 -0.00000000000E+00 -0.45593999997E+02  0.45594000000E+02  0.51100000000E-03 0. -1.
    9900012    2    1    2    0    0  0.12507642703E+02 -0.14059888999E+02 -0.25741000029E+02  0.59301942120E+02  0.49999996521E+02 0.  0.
        -12    1    1    2    0    0 -0.12507642703E+02  0.14059888999E+02  0.25741000029E+02  0.31886057880E+02  0.00000000000E+00 0.  1.
         11    1    3    3    0    0  0.24874328180E+02 -0.11006532167E+02 -0.12547427643E+02  0.29955198104E+02  0.51100000000E-03 0. -1.
        -11    1    3    3    0    0 -0.17463351610E+02 -0.77585542978E+01 -0.11109420739E+02  0.22103914669E+02  0.51100000000E-03 0.  1.
         12    1    3    3    0    0  0.50966661330E+01  0.47051974658E+01 -0.20841516466E+01  0.72428293470E+01  0.00000000000E+00 0. -1.
</event>
<event>
 7    1  0.1096439E-011  0.5930196E+02  0.7816164E-02  0.1266605E+00
        -11   -1    0    0    0    0  0.00000000000E+00  0.00000000000E+00  0.45593999997E+02  0.45594000000E+02  0.51100000000E-03 0.  1.
         11   -1    0    0    0    0 -0.00000000000E+00 -0.00000000000E+00 -0.45593999997E+02  0.45594000000E+02  0.51100000000E-03 0. -1.
    9900012    2    1    2    0    0 -0.27602338684E+01  0.29303852540E+02 -0.12263146165E+02  0.59301962013E+02  0.50000032800E+02 0.  0.
        -12    1    1    2    0    0  0.27602338684E+01 -0.29303852540E+02  0.12263146165E+02  0.31886037987E+02  0.00000000000E+00 0.  1.
         11    1    3    3    0    0 -0.11049463093E+02 -0.96957051657E+00 -0.10814746235E+02  0.15491592495E+02  0.51100000000E-03 0. -1.
        -11    1    3    3    0    0 -0.19421433508E+01  0.32528250342E+02 -0.45064320719E+01  0.32896305589E+02  0.51100000000E-03 0.  1.
        -12    1    3    3    0    0  0.10231372575E+02 -0.22548272861E+01  0.30580321425E+01  0.10914063929E+02  0.00000000000E+00 0.  1.
</event>
<event>
 7    1  0.1096439E-011  0.5930198E+02  0.7816164E-02  0.1266605E+00
        -11   -1    0    0    0    0  0.00000000000E+00  0.00000000000E+00  0.45593999997E+02  0.45594000000E+02  0.51100000000E-03 0.  1.
         11   -1    0    0    0    0 -0.00000000000E+00 -0.00000000000E+00 -0.45593999997E+02  0.45594000000E+02  0.51100000000E-03 0. -1.
    9900012    2    1    2    0    0  0.11083281334E+02  0.12978556500E+02 -0.26933921676E+02  0.59301981265E+02  0.50000067911E+02 0.  0.
        -12    1    1    2    0    0 -0.11083281334E+02 -0.12978556500E+02  0.26933921676E+02  0.31886018735E+02  0.00000000000E+00 0.  1.
         11    1    3    3    0    0  0.11774295702E+01  0.96088182420E+01 -0.22371582508E+02  0.24376288327E+02  0.51100000000E-03 0. -1.
        -11    1    3    3    0    0 -0.10439900005E+01  0.16005252995E+02  0.34172377933E+01  0.16399254646E+02  0.51100000000E-03 0.  1.
        -12    1    3    3    0    0  0.10949841764E+02 -0.12635514737E+02 -0.79795769606E+01  0.18526438292E+02  0.00000000000E+00 0.  1.
</event>
<event>
 7    1  0.1096439E-011  0.5930195E+02  0.7816164E-02  0.1266605E+00
        -11   -1    0    0    0    0  0.00000000000E+00  0.00000000000E+00  0.45593999997E+02  0.45594000000E+02  0.51100000000E-03 0.  1.
         11   -1    0    0    0    0 -0.00000000000E+00 -0.00000000000E+00 -0.45593999997E+02  0.45594000000E+02  0.51100000000E-03 0. -1.
    9900012    2    1    2    0    0  0.16064401565E+02 -0.42033646952E-01 -0.27543659475E+02  0.59301953808E+02  0.50000017837E+02 0.  0.
        -12    1    1    2    0    0 -0.16064401565E+02  0.42033646952E-01  0.27543659475E+02  0.31886046192E+02  0.00000000000E+00 0.  1.
         11    1    3    3    0    0  0.33032358760E+01 -0.12022087552E+02 -0.34384833775E+02  0.36575384486E+02  0.51100000000E-03 0. -1.
        -11    1    3    3    0    0  0.82457951226E+01  0.10284161570E+02  0.10352075956E+02  0.16760745606E+02  0.51100000000E-03 0.  1.
         12    1    3    3    0    0  0.45153705667E+01  0.16958923349E+01 -0.35109016565E+01  0.59658237158E+01  0.00000000000E+00 0. -1.
</event>
<event>
 7    1  0.1096439E-011  0.5930200E+02  0.7816164E-02  0.1266605E+00
        -11   -1    0    0    0    0  0.00000000000E+00  0.00000000000E+00  0.45593999997E+02  0.45594000000E+02  0.51100000000E-03 0. -1.
         11   -1    0    0    0    0 -0.00000000000E+00 -0.00000000000E+00 -0.45593999997E+02  0.45594000000E+02  0.51100000000E-03 0.  1.
    9900012    2    1    2    0    0 -0.29080029117E+02  0.12877135213E+02  0.22909122890E+01  0.59302000191E+02  0.50000102428E+02 0.  0.
        -12    1    1    2    0    0  0.29080029117E+02 -0.12877135213E+02 -0.22909122890E+01  0.31885999809E+02  0.00000000000E+00 0.  1.
         11    1    3    3    0    0  0.93236516530E+01  0.28858912045E+01  0.10887986802E+02  0.14622144338E+02  0.51100000000E-03 0. -1.
        -11    1    3    3    0    0 -0.37074023785E+02  0.40484323285E+01 -0.95949155342E+01  0.38508900897E+02  0.51100000000E-03 0.  1.
         12    1    3    3    0    0 -0.13296569849E+01  0.59428116801E+01  0.99784102154E+00  0.61709549559E+01  0.00000000000E+00 0. -1.
</event>
<event>
 7    1  0.1096439E-011  0.5930195E+02  0.7816164E-02  0.1266605E+00
        -11   -1    0    0    0    0  0.00000000000E+00  0.00000000000E+00  0.45593999997E+02  0.45594000000E+02  0.51100000000E-03 0.  1.
         11   -1    0    0    0    0 -0.00000000000E+00 -0.00000000000E+00 -0.45593999997E+02  0.45594000000E+02  0.51100000000E-03 0. -1.
    9900012    2    1    2    0    0  0.67358138434E+01  0.31114587812E+02  0.17976848559E+01  0.59301946094E+02  0.50000003768E+02 0.  0.
        -12    1    1    2    0    0 -0.67358138434E+01 -0.31114587812E+02 -0.17976848559E+01  0.31886053906E+02  0.00000000000E+00 0.  1.
         11    1    3    3    0    0  0.76574845586E+01  0.50355317053E+01  0.41738066639E+01  0.10070467300E+02  0.51100000000E-03 0. -1.
        -11    1    3    3    0    0 -0.20726757456E+02  0.16320528716E+02  0.28740290718E+01  0.26537109405E+02  0.51100000000E-03 0.  1.
        -12    1    3    3    0    0  0.19805086741E+02  0.97585273915E+01 -0.52501508799E+01  0.22694369388E+02  0.00000000000E+00 0.  1.
</event>
<event>
 7    1  0.1096439E-011  0.5930195E+02  0.7816164E-02  0.1266605E+00
        -11   -1    0    0    0    0  0.00000000000E+00  0.00000000000E+00  0.45593999997E+02  0.45594000000E+02  0.51100000000E-03 0.  1.
         11   -1    0    0    0    0 -0.00000000000E+00 -0.00000000000E+00 -0.45593999997E+02  0.45594000000E+02  0.51100000000E-03 0. -1.
    9900012    2    1    2    0    0 -0.13543650498E+02 -0.28792097471E+02 -0.20748808609E+01  0.59301945428E+02  0.50000002553E+02 0.  0.
        -12    1    1    2    0    0  0.13543650498E+02  0.28792097471E+02  0.20748808609E+01  0.31886054572E+02  0.00000000000E+00 0.  1.
         11    1    3    3    0    0  0.94769864072E+01 -0.48862240300E+01 -0.18986215396E+02  0.21775326219E+02  0.51100000000E-03 0. -1.
        -11    1    3    3    0    0 -0.11491275974E+02 -0.92167498378E+01  0.60552968221E+01  0.15926849059E+02  0.51100000000E-03 0.  1.
         12    1    3    3    0    0 -0.11529360931E+02 -0.14689123604E+02  0.10856037713E+02  0.21599770150E+02  0.00000000000E+00 0. -1.
</event>
<event>
 7    1  0.1096439E-011  0.5930199E+02  0.7816164E-02  0.1266605E+00
        -11   -1    0    0    0    0  0.00000000000E+00  0.00000000000E+00  0.45593999997E+02  0.45594000000E+02  0.51100000000E-03 0.  1.
         11   -1    0    0    0    0 -0.00000000000E+00 -0.00000000000E+00 -0.45593999997E+02  0.45594000000E+02  0.51100000000E-03 0. -1.
    9900012    2    1    2    0    0  0.41800906563E+01 -0.22565104000E+01 -0.31530182724E+02  0.59301993357E+02  0.50000089964E+02 0.  0.
        -12    1    1    2    0    0 -0.41800906563E+01  0.22565104000E+01  0.31530182724E+02  0.31886006643E+02  0.00000000000E+00 0.  1.
         11    1    3    3    0    0 -0.15228150153E+01  0.86840864462E+01 -0.29148776961E+02  0.30452972295E+02  0.51100000000E-03 0. -1.
        -11    1    3    3    0    0  0.13022625983E+02 -0.40974072732E+01  0.68058545865E+01  0.15254415452E+02  0.51100000000E-03 0.  1.
         12    1    3    3    0    0 -0.73197203118E+01 -0.68431895729E+01 -0.91872603489E+01  0.13594605610E+02  0.00000000000E+00 0. -1.
</event>
<event>
 7    1  0.1096439E-011  0.5930195E+02  0.7816164E-02  0.1266605E+00
        -11   -1    0    0    0    0  0.00000000000E+00  0.00000000000E+00  0.45593999997E+02  0.45594000000E+02  0.51100000000E-03 0.  1.
         11   -1    0    0    0    0 -0.00000000000E+00 -0.00000000000E+00 -0.45593999997E+02  0.45594000000E+02  0.51100000000E-03 0. -1.
    9900012    2    1    2    0    0 -0.94590370739E+00  0.18589241680E+02 -0.25889484765E+02  0.59301951931E+02  0.50000014413E+02 0.  0.
        -12    1    1    2    0    0  0.94590370739E+00 -0.18589241680E+02  0.25889484765E+02  0.31886048069E+02  0.00000000000E+00 0.  1.
         11    1    3    3    0    0  0.88858825324E+00 -0.36371192231E+00 -0.56264236051E+01  0.57077594809E+01  0.51100000000E-03 0. -1.
        -11    1    3    3    0    0 -0.86041404648E+01  0.32902824086E+02 -0.15488323014E+02  0.37369977469E+02  0.51100000000E-03 0.  1.
        -12    1    3    3    0    0  0.67696485041E+01 -0.13949870484E+02 -0.47747381457E+01  0.16224214981E+02  0.00000000000E+00 0.  1.
</event>
<event>
 7    1  0.1096439E-011  0.5930197E+02  0.7816164E-02  0.1266605E+00
        -11   -1    0    0    0    0  0.00000000000E+00  0.00000000000E+00  0.45593999997E+02  0.45594000000E+02  0.51100000000E-03 0.  1.
         11   -1    0    0    0    0 -0.00000000000E+00 -0.00000000000E+00 -0.45593999997E+02  0.45594000000E+02  0.51100000000E-03 0. -1.
    9900012    2    1    2    0    0 -0.17052211329E+00  0.31475039888E+02 -0.51001607673E+01  0.59301970871E+02  0.50000048956E+02 0.  0.
        -12    1    1    2    0    0  0.17052211329E+00 -0.31475039888E+02  0.51001607673E+01  0.31886029129E+02  0.00000000000E+00 0.  1.
         11    1    3    3    0    0  0.39838724977E+01  0.20740245592E+02 -0.10185989840E+02  0.23447460770E+02  0.51100000000E-03 0. -1.
        -11    1    3    3    0    0 -0.11006361280E+02 -0.80277814722E+01 -0.35732689354E+01  0.14083803291E+02  0.51100000000E-03 0.  1.
         12    1    3    3    0    0  0.68519666687E+01  0.18762575768E+02  0.86590980078E+01  0.21770706810E+02  0.00000000000E+00 0. -1.
</event>
<event>
 7    1  0.1096439E-011  0.5930195E+02  0.7816164E-02  0.1266605E+00
        -11   -1    0    0    0    0  0.00000000000E+00  0.00000000000E+00  0.45593999997E+02  0.45594000000E+02  0.51100000000E-03 0.  1.
         11   -1    0    0    0    0 -0.00000000000E+00 -0.00000000000E+00 -0.45593999997E+02  0.45594000000E+02  0.51100000000E-03 0. -1.
    9900012    2    1    2    0    0 -0.12202735047E+02 -0.29358522757E+02 -0.24270795961E+01  0.59301947932E+02  0.50000007120E+02 0.  0.
        -12    1    1    2    0    0  0.12202735047E+02  0.29358522757E+02  0.24270795961E+01  0.31886052068E+02  0.00000000000E+00 0.  1.
         11    1    3    3    0    0 -0.13770001073E+02 -0.10362900693E+02 -0.11973672012E+01  0.17275309803E+02  0.51100000000E-03 0. -1.
        -11    1    3    3    0    0  0.13099757928E+02  0.37478683555E+01  0.68853427111E+01  0.15266241171E+02  0.51100000000E-03 0.  1.
        -12    1    3    3    0    0 -0.11532491902E+02 -0.22743490420E+02 -0.81150551059E+01  0.26760396958E+02  0.00000000000E+00 0.  1.
</event>
<event>
 7    1  0.1096439E-011  0.5930197E+02  0.7816164E-02  0.1266605E+00
        -11   -1    0    0    0    0  0.00000000000E+00  0.00000000000E+00  0.45593999997E+02  0.45594000000E+02  0.51100000000E-03 0.  1.
         11   -1    0    0    0    0 -0.00000000000E+00 -0.00000000000E+00 -0.45593999997E+02  0.45594000000E+02  0.51100000000E-03 0. -1.
    9900012    2    1    2    0    0 -0.18459068216E+01 -0.12684186882E+01 -0.31807269748E+02  0.59301973801E+02  0.50000054299E+02 0.  0.
        -12    1    1    2    0    0  0.18459068216E+01  0.12684186882E+01  0.31807269748E+02  0.31886026199E+02  0.00000000000E+00 0.  1.
         11    1    3    3    0    0  0.15332739383E+02  0.81512106078E+01 -0.14490343890E+02  0.22616480665E+02  0.51100000000E-03 0. -1.
        -11    1    3    3    0    0 -0.10808039788E+02 -0.13880100673E+02 -0.21560031565E+02  0.27826352260E+02  0.51100000000E-03 0.  1.
        -12    1    3    3    0    0 -0.63706064165E+01  0.44604713767E+01  0.42431057069E+01  0.88591408757E+01  0.00000000000E+00 0.  1.
</event>
<event>
 7    1  0.1096439E-011  0.5930195E+02  0.7816164E-02  0.1266605E+00
        -11   -1    0    0    0    0  0.00000000000E+00  0.00000000000E+00  0.45593999997E+02  0.45594000000E+02  0.51100000000E-03 0.  1.
         11   -1    0    0    0    0 -0.00000000000E+00 -0.00000000000E+00 -0.45593999997E+02  0.45594000000E+02  0.51100000000E-03 0. -1.
    9900012    2    1    2    0    0  0.23834361188E+02  0.20997372117E+02 -0.27845844830E+01  0.59301947880E+02  0.50000007026E+02 0.  0.
        -12    1    1    2    0    0 -0.23834361188E+02 -0.20997372117E+02  0.27845844830E+01  0.31886052120E+02  0.00000000000E+00 0.  1.
         11    1    3    3    0    0  0.92991227683E+01 -0.60524513185E+00 -0.10325054917E+02  0.13908514127E+02  0.51100000000E-03 0. -1.
        -11    1    3    3    0    0 -0.74263820460E+01  0.20777746264E+02  0.78337034108E+01  0.23414371645E+02  0.51100000000E-03 0.  1.
        -12    1    3    3    0    0  0.21961620465E+02  0.82487098429E+00 -0.29323297707E+00  0.21979062109E+02  0.00000000000E+00 0.  1.
</event>
<event>
 7    1  0.1096439E-011  0.5930199E+02  0.7816164E-02  0.1266605E+00
        -11   -1    0    0    0    0  0.00000000000E+00  0.00000000000E+00  0.45593999997E+02  0.45594000000E+02  0.51100000000E-03 0.  1.
         11   -1    0    0    0    0 -0.00000000000E+00 -0.00000000000E+00 -0.45593999997E+02  0.45594000000E+02  0.51100000000E-03 0. -1.
    9900012    2    1    2    0    0 -0.26618776605E+02  0.39483877142E+01 -0.17104641526E+02  0.59301987467E+02  0.50000079223E+02 0.  0.
        -12    1    1    2    0    0  0.26618776605E+02 -0.39483877142E+01  0.17104641526E+02  0.31886012533E+02  0.00000000000E+00 0.  1.
         11    1    3    3    0    0 -0.16896302279E+02  0.83064279872E+00  0.59368622112E+01  0.17928227222E+02  0.51100000000E-03 0. -1.
        -11    1    3    3    0    0 -0.22718025466E+01 -0.57076485479E+00 -0.30267891185E+02  0.30358394166E+02  0.51100000000E-03 0.  1.
        -12    1    3    3    0    0 -0.74506717798E+01  0.36885097703E+01  0.72263874479E+01  0.11015366078E+02  0.00000000000E+00 0.  1.
</event>
<event>
 7    1  0.1096439E-011  0.5930194E+02  0.7816164E-02  0.1266605E+00
        -11   -1    0    0    0    0  0.00000000000E+00  0.00000000000E+00  0.45593999997E+02  0.45594000000E+02  0.51100000000E-03 0. -1.
         11   -1    0    0    0    0 -0.00000000000E+00 -0.00000000000E+00 -0.45593999997E+02  0.45594000000E+02  0.51100000000E-03 0.  1.
    9900012    2    1    2    0    0  0.11099578231E+02 -0.17226929957E+02 -0.24428534787E+02  0.59301936203E+02  0.49999985729E+02 0.  0.
        -12    1    1    2    0    0 -0.11099578231E+02  0.17226929957E+02  0.24428534787E+02  0.31886063797E+02  0.00000000000E+00 0.  1.
         11    1    3    3    0    0  0.49187887918E+01 -0.39177710044E+01  0.15326533492E+02  0.16566413068E+02  0.51100000000E-03 0. -1.
        -11    1    3    3    0    0 -0.46364747465E+00 -0.21719092327E+01 -0.10539030101E+02  0.10770483482E+02  0.51100000000E-03 0.  1.
         12    1    3    3    0    0  0.66444369140E+01 -0.11137249720E+02 -0.29216038177E+02  0.31965039653E+02  0.00000000000E+00 0. -1.
</event>
<event>
 7    1  0.1096439E-011  0.5930195E+02  0.7816164E-02  0.1266605E+00
        -11   -1    0    0    0    0  0.00000000000E+00  0.00000000000E+00  0.45593999997E+02  0.45594000000E+02  0.51100000000E-03 0. -1.
         11   -1    0    0    0    0 -0.00000000000E+00 -0.00000000000E+00 -0.45593999997E+02  0.45594000000E+02  0.51100000000E-03 0.  1.
    9900012    2    1    2    0    0 -0.21463929923E+02  0.44595269387E+01  0.23154541429E+02  0.59301945728E+02  0.50000003102E+02 0.  0.
        -12    1    1    2    0    0  0.21463929923E+02 -0.44595269387E+01 -0.23154541429E+02  0.31886054272E+02  0.00000000000E+00 0.  1.
         11    1    3    3    0    0 -0.24180713876E+02 -0.11876810730E+02 -0.24431150128E+01  0.27050589049E+02  0.51100000000E-03 0.  1.
        -11    1    3    3    0    0  0.41260363843E+01  0.11003842421E+02  0.23637688657E+02  0.26397898583E+02  0.51100000000E-03 0. -1.
         12    1    3    3    0    0 -0.14092524313E+01  0.53324952476E+01  0.19599677843E+01  0.58534580972E+01  0.00000000000E+00 0. -1.
</event>
<event>
 7    1  0.1096439E-011  0.5930194E+02  0.7816164E-02  0.1266605E+00
        -11   -1    0    0    0    0  0.00000000000E+00  0.00000000000E+00  0.45593999997E+02  0.45594000000E+02  0.51100000000E-03 0. -1.
         11   -1    0    0    0    0 -0.00000000000E+00 -0.00000000000E+00 -0.45593999997E+02  0.45594000000E+02  0.51100000000E-03 0.  1.
    9900012    2    1    2    0    0 -0.25794303717E+02  0.15237712178E+02  0.10917280974E+02  0.59301937206E+02  0.49999987558E+02 0.  0.
        -12    1    1    2    0    0  0.25794303717E+02 -0.15237712178E+02 -0.10917280974E+02  0.31886062794E+02  0.00000000000E+00 0.  1.
         11    1    3    3    0    0 -0.19824378775E+02  0.50363014414E+01 -0.15804761812E+01  0.20515073269E+02  0.51100000000E-03 0. -1.
        -11    1    3    3    0    0  0.47275660605E+01  0.76290832337E+01 -0.10185787971E+02  0.13575826630E+02  0.51100000000E-03 0.  1.
        -12    1    3    3    0    0 -0.10697491002E+02  0.25723275033E+01  0.22683545127E+02  0.25211037306E+02  0.00000000000E+00 0.  1.
</event>
<event>
 7    1  0.1096439E-011  0.5930201E+02  0.7816164E-02  0.1266605E+00
        -11   -1    0    0    0    0  0.00000000000E+00  0.00000000000E+00  0.45593999997E+02  0.45594000000E+02  0.51100000000E-03 0. -1.
         11   -1    0    0    0    0 -0.00000000000E+00 -0.00000000000E+00 -0.45593999997E+02  0.45594000000E+02  0.51100000000E-03 0.  1.
    9900012    2    1    2    0    0  0.36058225550E+00 -0.87245439850E+01  0.30667064394E+02  0.59302007372E+02  0.50000115524E+02 0.  0.
        -12    1    1    2    0    0 -0.36058225550E+00  0.87245439850E+01 -0.30667064394E+02  0.31885992628E+02  0.00000000000E+00 0.  1.
         11    1    3    3    0    0 -0.10891621184E+02  0.89429877293E+01  0.22803391762E+02  0.26806699119E+02  0.51100000000E-03 0. -1.
        -11    1    3    3    0    0  0.97488860786E+01 -0.76951812909E+01 -0.72084860469E+01  0.14360322636E+02  0.51100000000E-03 0.  1.
         12    1    3    3    0    0  0.15033173609E+01 -0.99723504235E+01  0.15072158679E+02  0.18134985616E+02  0.00000000000E+00 0. -1.
</event>
<event>
 7    1  0.1096439E-011  0.5930196E+02  0.7816164E-02  0.1266605E+00
        -11   -1    0    0    0    0  0.00000000000E+00  0.00000000000E+00  0.45593999997E+02  0.45594000000E+02  0.51100000000E-03 0.  1.
         11   -1    0    0    0    0 -0.00000000000E+00 -0.00000000000E+00 -0.45593999997E+02  0.45594000000E+02  0.51100000000E-03 0. -1.
    9900012    2    1    2    0    0  0.22078988721E+02  0.19776211690E+02 -0.11753268405E+02  0.59301959011E+02  0.50000027326E+02 0.  0.
        -12    1    1    2    0    0 -0.22078988721E+02 -0.19776211690E+02  0.11753268405E+02  0.31886040989E+02  0.00000000000E+00 0.  1.
         11    1    3    3    0    0 -0.59534621053E+00 -0.77161318916E+01  0.11753678908E+02  0.14072743038E+02  0.51100000000E-03 0. -1.
        -11    1    3    3    0    0  0.11846563277E+02  0.37831033919E+01 -0.58228547210E+01  0.13731663050E+02  0.51100000000E-03 0.  1.
         12    1    3    3    0    0  0.10827771655E+02  0.23709240190E+02 -0.17684092592E+02  0.31497552923E+02  0.00000000000E+00 0. -1.
</event>
<event>
 7    1  0.1170464E-011  0.5930193E+02  0.7816164E-02  0.1266605E+00
        -11   -1    0    0    0    0  0.00000000000E+00  0.00000000000E+00  0.45593999997E+02  0.45594000000E+02  0.51100000000E-03 0. -1.
         11   -1    0    0    0    0 -0.00000000000E+00 -0.00000000000E+00 -0.45593999997E+02  0.45594000000E+02  0.51100000000E-03 0.  1.
    9900012    2    1    2    0    0  0.24082181449E+01  0.37356199038E+00  0.31792801183E+02  0.59301932976E+02  0.49999979844E+02 0.  0.
        -12    1    1    2    0    0 -0.24082181449E+01 -0.37356199038E+00 -0.31792801183E+02  0.31886067024E+02  0.00000000000E+00 0.  1.
         11    1    3    3    0    0 -0.43207498503E+01  0.37816718250E+01  0.26353024623E+02  0.26971314912E+02  0.51100000000E-03 0. -1.
        -11    1    3    3    0    0  0.15975728272E+02 -0.10799503899E+02 -0.45724727581E-01  0.19283549189E+02  0.51100000000E-03 0.  1.
        -12    1    3    3    0    0 -0.92467602772E+01  0.73913940646E+01  0.54855012877E+01  0.13047068875E+02  0.00000000000E+00 0.  1.
</event>
<event>
 7    1  0.1096439E-011  0.5930195E+02  0.7816164E-02  0.1266605E+00
        -11   -1    0    0    0    0  0.00000000000E+00  0.00000000000E+00  0.45593999997E+02  0.45594000000E+02  0.51100000000E-03 0. -1.
         11   -1    0    0    0    0 -0.00000000000E+00 -0.00000000000E+00 -0.45593999997E+02  0.45594000000E+02  0.51100000000E-03 0.  1.
    9900012    2    1    2    0    0  0.23692186147E+02  0.19862438834E+02 -0.78028151197E+01  0.59301951568E+02  0.50000013751E+02 0.  0.
        -12    1    1    2    0    0 -0.23692186147E+02 -0.19862438834E+02  0.78028151197E+01  0.31886048432E+02  0.00000000000E+00 0.  1.
         11    1    3    3    0    0 -0.14932513926E+01 -0.36874877308E+01  0.81415879206E+01  0.90616124181E+01  0.51100000000E-03 0. -1.
        -11    1    3    3    0    0  0.21914114194E+02  0.34077503567E+01 -0.19494711522E+02  0.29527697862E+02  0.51100000000E-03 0.  1.
        -12    1    3    3    0    0  0.32713233449E+01  0.20142176208E+02  0.35503084817E+01  0.20712641288E+02  0.00000000000E+00 0.  1.
</event>
<event>
 7    1  0.1096439E-011  0.5930196E+02  0.7816164E-02  0.1266605E+00
        -11   -1    0    0    0    0  0.00000000000E+00  0.00000000000E+00  0.45593999997E+02  0.45594000000E+02  0.51100000000E-03 0. -1.
         11   -1    0    0    0    0 -0.00000000000E+00 -0.00000000000E+00 -0.45593999997E+02  0.45594000000E+02  0.51100000000E-03 0.  1.
    9900012    2    1    2    0    0 -0.97741536741E+01  0.29239798539E+02  0.81375495342E+01  0.59301958994E+02  0.50000027294E+02 0.  0.
        -12    1    1    2    0    0  0.97741536741E+01 -0.29239798539E+02 -0.81375495342E+01  0.31886041006E+02  0.00000000000E+00 0.  1.
         11    1    3    3    0    0  0.85039788189E+00  0.33848263540E+02  0.40689229848E+01  0.34102554974E+02  0.51100000000E-03 0. -1.
        -11    1    3    3    0    0 -0.66177859489E+01 -0.58507478301E+01  0.12777110557E+02  0.15533219096E+02  0.51100000000E-03 0.  1.
         12    1    3    3    0    0 -0.40067656071E+01  0.12422828292E+01 -0.87084840080E+01  0.96661849235E+01  0.00000000000E+00 0. -1.
</event>
<event>
 7    1  0.1096439E-011  0.5930205E+02  0.7816164E-02  0.1266604E+00
        -11   -1    0    0    0    0  0.00000000000E+00  0.00000000000E+00  0.45593999997E+02  0.45594000000E+02  0.51100000000E-03 0.  1.
         11   -1    0    0    0    0 -0.00000000000E+00 -0.00000000000E+00 -0.45593999997E+02  0.45594000000E+02  0.51100000000E-03 0. -1.
    9900012    2    1    2    0    0  0.12655945768E+02  0.23173145994E+02 -0.17875851984E+02  0.59302051014E+02  0.50000195118E+02 0.  0.
        -12    1    1    2    0    0 -0.12655945768E+02 -0.23173145994E+02  0.17875851984E+02  0.31885948986E+02  0.00000000000E+00 0.  1.
         11    1    3    3    0    0  0.12030813598E+02 -0.11806671689E+02 -0.43949521413E+01  0.17419918966E+02  0.51100000000E-03 0. -1.
        -11    1    3    3    0    0  0.32575760257E+01  0.14638305601E+02  0.33304886004E+01  0.15361769007E+02  0.51100000000E-03 0.  1.
         12    1    3    3    0    0 -0.26324438557E+01  0.20341512082E+02 -0.16811388444E+02  0.26520363041E+02  0.00000000000E+00 0. -1.
</event>
<event>
 7    1  0.1096439E-011  0.5930195E+02  0.7816164E-02  0.1266605E+00
        -11   -1    0    0    0    0  0.00000000000E+00  0.00000000000E+00  0.45593999997E+02  0.45594000000E+02  0.51100000000E-03 0.  1.
         11   -1    0    0    0    0 -0.00000000000E+00 -0.00000000000E+00 -0.45593999997E+02  0.45594000000E+02  0.51100000000E-03 0. -1.
    9900012    2    1    2    0    0  0.81972853645E+01  0.26815420960E+02 -0.15180839858E+02  0.59301949956E+02  0.50000010812E+02 0.  0.
        -12    1    1    2    0    0 -0.81972853645E+01 -0.26815420960E+02  0.15180839858E+02  0.31886050044E+02  0.00000000000E+00 0.  1.
         11    1    3    3    0    0 -0.13566819650E+02  0.22944200327E+02 -0.10925233518E+02  0.28807215272E+02  0.51100000000E-03 0. -1.
        -11    1    3    3    0    0  0.79415953811E+01 -0.71464716604E+01  0.34287287639E+01  0.11220391062E+02  0.51100000000E-03 0.  1.
         12    1    3    3    0    0  0.13822509634E+02  0.11017692293E+02 -0.76843351041E+01  0.19274343621E+02  0.00000000000E+00 0. -1.
</event>
<event>
 7    1  0.1096439E-011  0.5930193E+02  0.7816164E-02  0.1266605E+00
        -11   -1    0    0    0    0  0.00000000000E+00  0.00000000000E+00  0.45593999997E+02  0.45594000000E+02  0.51100000000E-03 0.  1.
         11   -1    0    0    0    0 -0.00000000000E+00 -0.00000000000E+00 -0.45593999997E+02  0.45594000000E+02  0.51100000000E-03 0. -1.
    9900012    2    1    2    0    0 -0.73524259971E+01  0.49993709090E+01 -0.30621395888E+02  0.59301925239E+02  0.49999965734E+02 0.  0.
        -12    1    1    2    0    0  0.73524259971E+01 -0.49993709090E+01  0.30621395888E+02  0.31886074761E+02  0.00000000000E+00 0.  1.
         11    1    3    3    0    0  0.16500083686E+02  0.52713952322E+01  0.28425817625E+01  0.17553365509E+02  0.51100000000E-03 0.  1.
        -11    1    3    3    0    0 -0.45124074852E+01 -0.12305196661E+01 -0.11793524517E+02  0.12687128152E+02  0.51100000000E-03 0. -1.
         12    1    3    3    0    0 -0.19340102198E+02  0.95849534291E+00 -0.21670453134E+02  0.29061431578E+02  0.00000000000E+00 0. -1.
</event>
<event>
 7    1  0.1096439E-011  0.5930194E+02  0.7816164E-02  0.1266605E+00
        -11   -1    0    0    0    0  0.00000000000E+00  0.00000000000E+00  0.45593999997E+02  0.45594000000E+02  0.51100000000E-03 0. -1.
         11   -1    0    0    0    0 -0.00000000000E+00 -0.00000000000E+00 -0.45593999997E+02  0.45594000000E+02  0.51100000000E-03 0.  1.
    9900012    2    1    2    0    0 -0.27722197098E+02 -0.12663100498E+02  0.93726389429E+01  0.59301942124E+02  0.49999996527E+02 0.  0.
        -12    1    1    2    0    0  0.27722197098E+02  0.12663100498E+02 -0.93726389429E+01  0.31886057876E+02  0.00000000000E+00 0.  1.
         11    1    3    3    0    0  0.37619748042E+01  0.30573204978E+00  0.17676383512E+02  0.18074857146E+02  0.51100000000E-03 0. -1.
        -11    1    3    3    0    0 -0.18630419199E+02 -0.17433094299E+02 -0.10220714328E+02  0.27485783562E+02  0.51100000000E-03 0.  1.
         12    1    3    3    0    0 -0.12853752703E+02  0.44642617520E+01  0.19169697590E+01  0.13741301416E+02  0.00000000000E+00 0. -1.
</event>
<event>
 7    1  0.1096439E-011  0.5930196E+02  0.7816164E-02  0.1266605E+00
        -11   -1    0    0    0    0  0.00000000000E+00  0.00000000000E+00  0.45593999997E+02  0.45594000000E+02  0.51100000000E-03 0.  1.
         11   -1    0    0    0    0 -0.00000000000E+00 -0.00000000000E+00 -0.45593999997E+02  0.45594000000E+02  0.51100000000E-03 0. -1.
    9900012    2    1    2    0    0 -0.13271970066E+02  0.13183429658E+02 -0.25821921775E+02  0.59301958365E+02  0.50000026147E+02 0.  0.
        -12    1    1    2    0    0  0.13271970066E+02 -0.13183429658E+02  0.25821921775E+02  0.31886041635E+02  0.00000000000E+00 0.  1.
         11    1    3    3    0    0 -0.34782946306E+01  0.31118073455E+01 -0.26978444749E+02  0.27379159224E+02  0.51100000000E-03 0. -1.
        -11    1    3    3    0    0 -0.54327812823E+01 -0.91132613779E+01  0.52338598505E+01  0.11830466373E+02  0.51100000000E-03 0.  1.
         12    1    3    3    0    0 -0.43608941526E+01  0.19184883691E+02 -0.40773368771E+01  0.20092332768E+02  0.00000000000E+00 0. -1.
</event>
<event>
 7    1  0.1096439E-011  0.5930196E+02  0.7816164E-02  0.1266605E+00
        -11   -1    0    0    0    0  0.00000000000E+00  0.00000000000E+00  0.45593999997E+02  0.45594000000E+02  0.51100000000E-03 0. -1.
         11   -1    0    0    0    0 -0.00000000000E+00 -0.00000000000E+00 -0.45593999997E+02  0.45594000000E+02  0.51100000000E-03 0.  1.
    9900012    2    1    2    0    0  0.34203479908E+01  0.27388248640E+02  0.15965740083E+02  0.59301956026E+02  0.50000021881E+02 0.  0.
        -12    1    1    2    0    0 -0.34203479908E+01 -0.27388248640E+02 -0.15965740083E+02  0.31886043974E+02  0.00000000000E+00 0.  1.
         11    1    3    3    0    0  0.70099948175E+01  0.37235224464E+02  0.11864838122E+02  0.39703606286E+02  0.51100000000E-03 0. -1.
        -11    1    3    3    0    0 -0.69070853201E+01  0.11223443236E+01 -0.97366256085E+00  0.70650904767E+01  0.51100000000E-03 0.  1.
         12    1    3    3    0    0  0.33174384935E+01 -0.10969320148E+02  0.50745645216E+01  0.12533259263E+02  0.00000000000E+00 0. -1.
</event>
<event>
 7    1  0.1096439E-011  0.5930200E+02  0.7816164E-02  0.1266605E+00
        -11   -1    0    0    0    0  0.00000000000E+00  0.00000000000E+00  0.45593999997E+02  0.45594000000E+02  0.51100000000E-03 0. -1.
         11   -1    0    0    0    0 -0.00000000000E+00 -0.00000000000E+00 -0.45593999997E+02  0.45594000000E+02  0.51100000000E-03 0.  1.
    9900012    2    1    2    0    0 -0.63790681359E+01  0.38777634475E+01  0.30999798660E+02  0.59301998736E+02  0.50000099775E+02 0.  0.
        -12    1    1    2    0    0  0.63790681359E+01 -0.38777634475E+01 -0.30999798660E+02  0.31886001264E+02  0.00000000000E+00 0.  1.
         11    1    3    3    0    0  0.11088576034E+02  0.55621680844E+01  0.35674935754E+02  0.37770296181E+02  0.51100000000E-03 0. -1.
        -11    1    3    3    0    0 -0.12971048280E+02 -0.55297455862E+01 -0.18087243884E+00  0.14101733753E+02  0.51100000000E-03 0.  1.
         12    1    3    3    0    0 -0.44965958899E+01  0.38453409492E+01 -0.44942646554E+01  0.74299688024E+01  0.00000000000E+00 0. -1.
</event>
<event>
 7    1  0.1096439E-011  0.5930195E+02  0.7816164E-02  0.1266605E+00
        -11   -1    0    0    0    0  0.00000000000E+00  0.00000000000E+00  0.45593999997E+02  0.45594000000E+02  0.51100000000E-03 0.  1.
         11   -1    0    0    0    0 -0.00000000000E+00 -0.00000000000E+00 -0.45593999997E+02  0.45594000000E+02  0.51100000000E-03 0. -1.
    9900012    2    1    2    0    0 -0.12211822749E+02 -0.11933759648E+01 -0.29430726345E+02  0.59301946399E+02  0.50000004324E+02 0.  0.
        -12    1    1    2    0    0  0.12211822749E+02  0.11933759648E+01  0.29430726345E+02  0.31886053601E+02  0.00000000000E+00 0.  1.
         11    1    3    3    0    0 -0.91154474400E+01  0.14717075864E+01 -0.32082358257E+02  0.33384652415E+02  0.51100000000E-03 0. -1.
        -11    1    3    3    0    0  0.34232461386E+00 -0.13005532575E+02  0.62605844122E+01  0.14438004749E+02  0.51100000000E-03 0.  1.
        -12    1    3    3    0    0 -0.34386999233E+01  0.10340449024E+02 -0.36089525004E+01  0.11479289234E+02  0.00000000000E+00 0.  1.
</event>
<event>
 7    1  0.1096439E-011  0.5930193E+02  0.7816164E-02  0.1266605E+00
        -11   -1    0    0    0    0  0.00000000000E+00  0.00000000000E+00  0.45593999997E+02  0.45594000000E+02  0.51100000000E-03 0. -1.
         11   -1    0    0    0    0 -0.00000000000E+00 -0.00000000000E+00 -0.45593999997E+02  0.45594000000E+02  0.51100000000E-03 0.  1.
    9900012    2    1    2    0    0 -0.12478589189E+02  0.23378357745E+02  0.17732983118E+02  0.59301929542E+02  0.49999973581E+02 0.  0.
        -12    1    1    2    0    0  0.12478589189E+02 -0.23378357745E+02 -0.17732983118E+02  0.31886070458E+02  0.00000000000E+00 0.  1.
         11    1    3    3    0    0 -0.15369375892E+02  0.13860233459E+02 -0.97344070360E+01  0.22870996206E+02  0.51100000000E-03 0. -1.
        -11    1    3    3    0    0  0.35107999183E+01  0.12059964123E+02  0.30163375054E+02  0.32674112775E+02  0.51100000000E-03 0.  1.
        -12    1    3    3    0    0 -0.62001321607E+00 -0.25418398362E+01 -0.26959849010E+01  0.37568205610E+01  0.00000000000E+00 0.  1.
</event>
<event>
 7    1  0.1096439E-011  0.5930186E+02  0.7816164E-02  0.1266605E+00
        -11   -1    0    0    0    0  0.00000000000E+00  0.00000000000E+00  0.45593999997E+02  0.45594000000E+02  0.51100000000E-03 0.  1.
         11   -1    0    0    0    0 -0.00000000000E+00 -0.00000000000E+00 -0.45593999997E+02  0.45594000000E+02  0.51100000000E-03 0. -1.
    9900012    2    1    2    0    0 -0.21273295352E+02 -0.12594615938E+02 -0.20138227054E+02  0.59301864539E+02  0.49999855031E+02 0.  0.
        -12    1    1    2    0    0  0.21273295352E+02  0.12594615938E+02  0.20138227054E+02  0.31886135461E+02  0.00000000000E+00 0.  1.
         11    1    3    3    0    0 -0.15173972600E+02  0.12616544417E+01 -0.17451935332E+02  0.23160554041E+02  0.51100000000E-03 0. -1.
        -11    1    3    3    0    0 -0.99515224288E+01 -0.19031054254E+02  0.86060922666E+01  0.23136089752E+02  0.51100000000E-03 0.  1.
        -12    1    3    3    0    0  0.38521996762E+01  0.51747838744E+01 -0.11292383988E+02  0.13005220745E+02  0.00000000000E+00 0.  1.
</event>
<event>
 7    1  0.1096439E-011  0.5930197E+02  0.7816164E-02  0.1266605E+00
        -11   -1    0    0    0    0  0.00000000000E+00  0.00000000000E+00  0.45593999997E+02  0.45594000000E+02  0.51100000000E-03 0.  1.
         11   -1    0    0    0    0 -0.00000000000E+00 -0.00000000000E+00 -0.45593999997E+02  0.45594000000E+02  0.51100000000E-03 0. -1.
    9900012    2    1    2    0    0  0.23481523326E+01 -0.17517951817E+02 -0.26539154898E+02  0.59301965472E+02  0.50000039110E+02 0.  0.
        -12    1    1    2    0    0 -0.23481523326E+01  0.17517951817E+02  0.26539154898E+02  0.31886034528E+02  0.00000000000E+00 0.  1.
         11    1    3    3    0    0 -0.15401026930E+02 -0.90732281207E+01 -0.10489110202E+02  0.20725263138E+02  0.51100000000E-03 0. -1.
        -11    1    3    3    0    0  0.17706573112E+02 -0.95635204299E+01  0.22435479360E+01  0.20248880512E+02  0.51100000000E-03 0.  1.
         12    1    3    3    0    0  0.42606150388E-01  0.11187967340E+01 -0.18293592631E+02  0.18327821823E+02  0.00000000000E+00 0. -1.
</event>
<event>
 7    1  0.1096439E-011  0.5930196E+02  0.7816164E-02  0.1266605E+00
        -11   -1    0    0    0    0  0.00000000000E+00  0.00000000000E+00  0.45593999997E+02  0.45594000000E+02  0.51100000000E-03 0.  1.
         11   -1    0    0    0    0 -0.00000000000E+00 -0.00000000000E+00 -0.45593999997E+02  0.45594000000E+02  0.51100000000E-03 0. -1.
    9900012    2    1    2    0    0  0.31128686005E+01 -0.13422391211E+02 -0.28755335521E+02  0.59301955126E+02  0.50000020241E+02 0.  0.
        -12    1    1    2    0    0 -0.31128686005E+01  0.13422391211E+02  0.28755335521E+02  0.31886044874E+02  0.00000000000E+00 0.  1.
         11    1    3    3    0    0 -0.10140731643E+01  0.12470205153E+02 -0.18226647848E+02  0.22107579085E+02  0.51100000000E-03 0. -1.
        -11    1    3    3    0    0 -0.63325882214E+01 -0.23424120215E+02 -0.39241036323E+01  0.24580269954E+02  0.51100000000E-03 0.  1.
        -12    1    3    3    0    0  0.10459529986E+02 -0.24684761494E+01 -0.66045840408E+01  0.12614106088E+02  0.00000000000E+00 0.  1.
</event>
<event>
 7    1  0.1096439E-011  0.5930191E+02  0.7816164E-02  0.1266605E+00
        -11   -1    0    0    0    0  0.00000000000E+00  0.00000000000E+00  0.45593999997E+02  0.45594000000E+02  0.51100000000E-03 0.  1.
         11   -1    0    0    0    0 -0.00000000000E+00 -0.00000000000E+00 -0.45593999997E+02  0.45594000000E+02  0.51100000000E-03 0. -1.
    9900012    2    1    2    0    0  0.22296875060E+02  0.99286131759E+01 -0.20518154876E+02  0.59301910924E+02  0.49999939627E+02 0.  0.
        -12    1    1    2    0    0 -0.22296875060E+02 -0.99286131759E+01  0.20518154876E+02  0.31886089076E+02  0.00000000000E+00 0.  1.
         11    1    3    3    0    0  0.23090673352E+02 -0.43820176531E+01 -0.17836045422E+02  0.29504335124E+02  0.51100000000E-03 0. -1.
        -11    1    3    3    0    0 -0.77749790565E+01  0.12830297455E+02  0.79607794013E+01  0.16983546186E+02  0.51100000000E-03 0.  1.
        -12    1    3    3    0    0  0.69811807644E+01  0.14803333736E+01 -0.10642888855E+02  0.12814029614E+02  0.00000000000E+00 0.  1.
</event>
<event>
 7    1  0.1096439E-011  0.5930195E+02  0.7816164E-02  0.1266605E+00
        -11   -1    0    0    0    0  0.00000000000E+00  0.00000000000E+00  0.45593999997E+02  0.45594000000E+02  0.51100000000E-03 0.  1.
         11   -1    0    0    0    0 -0.00000000000E+00 -0.00000000000E+00 -0.45593999997E+02  0.45594000000E+02  0.51100000000E-03 0. -1.
    9900012    2    1    2    0    0  0.26416954643E+02 -0.17553621503E+02 -0.32763978939E+01  0.59301954406E+02  0.50000018927E+02 0.  0.
        -12    1    1    2    0    0 -0.26416954643E+02  0.17553621503E+02  0.32763978939E+01  0.31886045594E+02  0.00000000000E+00 0.  1.
         11    1    3    3    0    0 -0.21527761412E+01 -0.40007649411E+01 -0.15112566617E+02  0.15780691849E+02  0.51100000000E-03 0. -1.
        -11    1    3    3    0    0  0.23849272091E+02 -0.21180502167E+02  0.50964900897E+01  0.32301326023E+02  0.51100000000E-03 0.  1.
        -12    1    3    3    0    0  0.47204586925E+01  0.76276456045E+01  0.67396786336E+01  0.11219936534E+02  0.00000000000E+00 0.  1.
</event>
<event>
 7    1  0.1096439E-011  0.5930195E+02  0.7816164E-02  0.1266605E+00
        -11   -1    0    0    0    0  0.00000000000E+00  0.00000000000E+00  0.45593999997E+02  0.45594000000E+02  0.51100000000E-03 0.  1.
         11   -1    0    0    0    0 -0.00000000000E+00 -0.00000000000E+00 -0.45593999997E+02  0.45594000000E+02  0.51100000000E-03 0. -1.
    9900012    2    1    2    0    0 -0.12261655286E+02  0.10316975493E+02 -0.27566868373E+02  0.59301946535E+02  0.50000004573E+02 0.  0.
        -12    1    1    2    0    0  0.12261655286E+02 -0.10316975493E+02  0.27566868373E+02  0.31886053465E+02  0.00000000000E+00 0.  1.
         11    1    3    3    0    0 -0.21889067905E+02  0.10100986958E+02 -0.18683924873E+02  0.30500004593E+02  0.51100000000E-03 0. -1.
        -11    1    3    3    0    0 -0.16892342603E+01 -0.68558458881E+01  0.56709291718E+01  0.90562449813E+01  0.51100000000E-03 0.  1.
         12    1    3    3    0    0  0.11316646880E+02  0.70718344232E+01 -0.14553872672E+02  0.19745696960E+02  0.00000000000E+00 0. -1.
</event>
<event>
 7    1  0.1096439E-011  0.5930192E+02  0.7816164E-02  0.1266605E+00
        -11   -1    0    0    0    0  0.00000000000E+00  0.00000000000E+00  0.45593999997E+02  0.45594000000E+02  0.51100000000E-03 0.  1.
         11   -1    0    0    0    0 -0.00000000000E+00 -0.00000000000E+00 -0.45593999997E+02  0.45594000000E+02  0.51100000000E-03 0. -1.
    9900012    2    1    2    0    0 -0.18684434539E+02  0.79509929575E+01 -0.24584456257E+02  0.59301923533E+02  0.49999962622E+02 0.  0.
        -12    1    1    2    0    0  0.18684434539E+02 -0.79509929575E+01  0.24584456257E+02  0.31886076467E+02  0.00000000000E+00 0.  1.
         11    1    3    3    0    0 -0.98340573149E+00  0.67310169413E+01 -0.59838972718E+01  0.90598401044E+01  0.51100000000E-03 0. -1.
        -11    1    3    3    0    0 -0.28184640884E+02 -0.98915962448E+01 -0.18164101186E+02  0.34959293902E+02  0.51100000000E-03 0.  1.
        -12    1    3    3    0    0  0.10483612076E+02  0.11111572261E+02 -0.43645779926E+00  0.15282789526E+02  0.00000000000E+00 0.  1.
</event>
<event>
 7    1  0.1096439E-011  0.5930194E+02  0.7816164E-02  0.1266605E+00
        -11   -1    0    0    0    0  0.00000000000E+00  0.00000000000E+00  0.45593999997E+02  0.45594000000E+02  0.51100000000E-03 0. -1.
         11   -1    0    0    0    0 -0.00000000000E+00 -0.00000000000E+00 -0.45593999997E+02  0.45594000000E+02  0.51100000000E-03 0.  1.
    9900012    2    1    2    0    0  0.80682001844E+01  0.33060716776E+01  0.30670749137E+02  0.59301940087E+02  0.49999992813E+02 0.  0.
        -12    1    1    2    0    0 -0.80682001844E+01 -0.33060716776E+01 -0.30670749137E+02  0.31886059913E+02  0.00000000000E+00 0.  1.
         11    1    3    3    0    0 -0.13547149868E+02  0.11958481043E+02 -0.20570278526E+01  0.18186860704E+02  0.51100000000E-03 0.  1.
        -11    1    3    3    0    0  0.17182159843E+02 -0.75755471137E+01  0.30985841897E+02  0.36231725453E+02  0.51100000000E-03 0. -1.
        -12    1    3    3    0    0  0.44331902099E+01 -0.10768622514E+01  0.17419350925E+01  0.48833539307E+01  0.00000000000E+00 0.  1.
</event>
<event>
 7    1  0.1096439E-011  0.5930194E+02  0.7816164E-02  0.1266605E+00
        -11   -1    0    0    0    0  0.00000000000E+00  0.00000000000E+00  0.45593999997E+02  0.45594000000E+02  0.51100000000E-03 0.  1.
         11   -1    0    0    0    0 -0.00000000000E+00 -0.00000000000E+00 -0.45593999997E+02  0.45594000000E+02  0.51100000000E-03 0. -1.
    9900012    2    1    2    0    0  0.24496091135E+02 -0.19514022852E+02  0.59887377313E+01  0.59301944296E+02  0.50000000489E+02 0.  0.
        -12    1    1    2    0    0 -0.24496091135E+02  0.19514022852E+02 -0.59887377313E+01  0.31886055704E+02  0.00000000000E+00 0.  1.
         11    1    3    3    0    0  0.22636627571E+01  0.25569287100E+01 -0.94826958514E+01  0.10078867713E+02  0.51100000000E-03 0. -1.
        -11    1    3    3    0    0  0.13838580803E+02 -0.30162836064E+02  0.17295023798E+02  0.37422197243E+02  0.51100000000E-03 0.  1.
        -12    1    3    3    0    0  0.83938475754E+01  0.80918845022E+01 -0.18235902149E+01  0.11800879340E+02  0.00000000000E+00 0.  1.
</event>
<event>
 7    1  0.1096439E-011  0.5930201E+02  0.7816164E-02  0.1266605E+00
        -11   -1    0    0    0    0  0.00000000000E+00  0.00000000000E+00  0.45593999997E+02  0.45594000000E+02  0.51100000000E-03 0.  1.
         11   -1    0    0    0    0 -0.00000000000E+00 -0.00000000000E+00 -0.45593999997E+02  0.45594000000E+02  0.51100000000E-03 0. -1.
    9900012    2    1    2    0    0  0.17440527531E+02 -0.26209192864E+02 -0.50618850568E+01  0.59302008225E+02  0.50000117080E+02 0.  0.
        -12    1    1    2    0    0 -0.17440527531E+02  0.26209192864E+02  0.50618850568E+01  0.31885991775E+02  0.00000000000E+00 0.  1.
         11    1    3    3    0    0 -0.44058938474E+01 -0.53583915613E+01 -0.76246584738E+01  0.10308233497E+02  0.51100000000E-03 0. -1.
        -11    1    3    3    0    0  0.10800808298E+02 -0.15126866708E+02  0.20174314313E+02  0.27431414739E+02  0.51100000000E-03 0.  1.
        -12    1    3    3    0    0  0.11045613080E+02 -0.57239345948E+01 -0.17611540896E+02  0.21562359989E+02  0.00000000000E+00 0.  1.
</event>
<event>
 7    1  0.1096439E-011  0.5930202E+02  0.7816164E-02  0.1266605E+00
        -11   -1    0    0    0    0  0.00000000000E+00  0.00000000000E+00  0.45593999997E+02  0.45594000000E+02  0.51100000000E-03 0. -1.
         11   -1    0    0    0    0 -0.00000000000E+00 -0.00000000000E+00 -0.45593999997E+02  0.45594000000E+02  0.51100000000E-03 0.  1.
    9900012    2    1    2    0    0  0.12669141716E+02  0.28727040668E+02  0.55647003025E+01  0.59302017079E+02  0.50000133228E+02 0.  0.
        -12    1    1    2    0    0 -0.12669141716E+02 -0.28727040668E+02 -0.55647003025E+01  0.31885982921E+02  0.00000000000E+00 0.  1.
         11    1    3    3    0    0 -0.10000283566E+02 -0.58999453363E+00 -0.58799035826E+01  0.11615809544E+02  0.51100000000E-03 0.  1.
        -11    1    3    3    0    0  0.19117899017E+02  0.28029020694E+02  0.19254207927E+02  0.39010826536E+02  0.51100000000E-03 0. -1.
        -12    1    3    3    0    0  0.35515262658E+01  0.12880145075E+01 -0.78096040416E+01  0.86753809989E+01  0.00000000000E+00 0.  1.
</event>
<event>
 7    1  0.1096439E-011  0.5930194E+02  0.7816164E-02  0.1266605E+00
        -11   -1    0    0    0    0  0.00000000000E+00  0.00000000000E+00  0.45593999997E+02  0.45594000000E+02  0.51100000000E-03 0.  1.
         11   -1    0    0    0    0 -0.00000000000E+00 -0.00000000000E+00 -0.45593999997E+02  0.45594000000E+02  0.51100000000E-03 0. -1.
    9900012    2    1    2    0    0 -0.11766687649E+02 -0.27575857684E+01 -0.29506971387E+02  0.59301943832E+02  0.49999999642E+02 0.  0.
        -12    1    1    2    0    0  0.11766687649E+02  0.27575857684E+01  0.29506971387E+02  0.31886056168E+02  0.00000000000E+00 0.  1.
         11    1    3    3    0    0 -0.24925599589E+02  0.34455343597E+01 -0.13013813520E+02  0.28328723312E+02  0.51100000000E-03 0. -1.
        -11    1    3    3    0    0  0.95646811318E+01 -0.13114492883E+02 -0.16552158025E+02  0.23182902844E+02  0.51100000000E-03 0.  1.
         12    1    3    3    0    0  0.35942308081E+01  0.69113727548E+01  0.59000158191E-01  0.77903176749E+01  0.00000000000E+00 0. -1.
</event>
<event>
 7    1  0.1096439E-011  0.5930191E+02  0.7816164E-02  0.1266605E+00
        -11   -1    0    0    0    0  0.00000000000E+00  0.00000000000E+00  0.45593999997E+02  0.45594000000E+02  0.51100000000E-03 0.  1.
         11   -1    0    0    0    0 -0.00000000000E+00 -0.00000000000E+00 -0.45593999997E+02  0.45594000000E+02  0.51100000000E-03 0. -1.
    9900012    2    1    2    0    0  0.20790775259E+02  0.23093558478E+02  0.71522042355E+01  0.59301908919E+02  0.49999935969E+02 0.  0.
        -12    1    1    2    0    0 -0.20790775259E+02 -0.23093558478E+02 -0.71522042355E+01  0.31886091081E+02  0.00000000000E+00 0.  1.
         11    1    3    3    0    0  0.25471291132E+02  0.15846179928E+02 -0.25415922777E+01  0.30105610471E+02  0.51100000000E-03 0. -1.
        -11    1    3    3    0    0 -0.62983810190E+01 -0.40843874959E+01  0.14851812451E+02  0.16641158554E+02  0.51100000000E-03 0.  1.
         12    1    3    3    0    0  0.16178651452E+01  0.11331766046E+02 -0.51580159375E+01  0.12555139894E+02  0.00000000000E+00 0. -1.
</event>
<event>
 7    1  0.1096439E-011  0.5930193E+02  0.7816164E-02  0.1266605E+00
        -11   -1    0    0    0    0  0.00000000000E+00  0.00000000000E+00  0.45593999997E+02  0.45594000000E+02  0.51100000000E-03 0.  1.
         11   -1    0    0    0    0 -0.00000000000E+00 -0.00000000000E+00 -0.45593999997E+02  0.45594000000E+02  0.51100000000E-03 0. -1.
    9900012    2    1    2    0    0 -0.60354465582E+01 -0.21753488133E+02 -0.22518447887E+02  0.59301931626E+02  0.49999977382E+02 0.  0.
        -12    1    1    2    0    0  0.60354465582E+01  0.21753488133E+02  0.22518447887E+02  0.31886068374E+02  0.00000000000E+00 0.  1.
         11    1    3    3    0    0  0.15771833218E+02 -0.24298826734E+02 -0.50504427989E+01  0.29405623212E+02  0.51100000000E-03 0. -1.
        -11    1    3    3    0    0 -0.60535362751E+01  0.52499531505E+01 -0.79772293829E+01  0.11306789925E+02  0.51100000000E-03 0.  1.
         12    1    3    3    0    0 -0.15753743502E+02 -0.27046145494E+01 -0.94907757053E+01  0.18589518489E+02  0.00000000000E+00 0. -1.
</event>
<event>
 7    1  0.1096439E-011  0.5930199E+02  0.7816164E-02  0.1266605E+00
        -11   -1    0    0    0    0  0.00000000000E+00  0.00000000000E+00  0.45593999997E+02  0.45594000000E+02  0.51100000000E-03 0.  1.
         11   -1    0    0    0    0 -0.00000000000E+00 -0.00000000000E+00 -0.45593999997E+02  0.45594000000E+02  0.51100000000E-03 0. -1.
    9900012    2    1    2    0    0  0.14617094747E+02 -0.26463971943E+02 -0.10134894204E+02  0.59301994444E+02  0.50000091946E+02 0.  0.
        -12    1    1    2    0    0 -0.14617094747E+02  0.26463971943E+02  0.10134894204E+02  0.31886005556E+02  0.00000000000E+00 0.  1.
         11    1    3    3    0    0 -0.29107560221E+01 -0.18974262821E+02  0.13044480501E+02  0.23208912556E+02  0.51100000000E-03 0. -1.
        -11    1    3    3    0    0  0.12323580508E+01  0.62070568367E+01 -0.44138521500E+01  0.77154618787E+01  0.51100000000E-03 0.  1.
         12    1    3    3    0    0  0.16295492718E+02 -0.13696765958E+02 -0.18765522555E+02  0.28377620009E+02  0.00000000000E+00 0. -1.
</event>
<event>
 7    1  0.1096439E-011  0.5930195E+02  0.7816164E-02  0.1266605E+00
        -11   -1    0    0    0    0  0.00000000000E+00  0.00000000000E+00  0.45593999997E+02  0.45594000000E+02  0.51100000000E-03 0. -1.
         11   -1    0    0    0    0 -0.00000000000E+00 -0.00000000000E+00 -0.45593999997E+02  0.45594000000E+02  0.51100000000E-03 0.  1.
    9900012    2    1    2    0    0  0.16259651712E+02 -0.22954737006E+02  0.15014119620E+02  0.59301952694E+02  0.50000015806E+02 0.  0.
        -12    1    1    2    0    0 -0.16259651712E+02  0.22954737006E+02 -0.15014119620E+02  0.31886047306E+02  0.00000000000E+00 0.  1.
         11    1    3    3    0    0  0.56998262301E+01 -0.16064545150E+02  0.17600599713E+02  0.24501810963E+02  0.51100000000E-03 0. -1.
        -11    1    3    3    0    0  0.67569759499E-01 -0.43333936448E+01 -0.16572612351E+02  0.17129925468E+02  0.51100000000E-03 0.  1.
        -12    1    3    3    0    0  0.10492255722E+02 -0.25567982111E+01  0.13986132259E+02  0.17670216263E+02  0.00000000000E+00 0.  1.
</event>
<event>
 7    1  0.1096439E-011  0.5930194E+02  0.7816164E-02  0.1266605E+00
        -11   -1    0    0    0    0  0.00000000000E+00  0.00000000000E+00  0.45593999997E+02  0.45594000000E+02  0.51100000000E-03 0. -1.
         11   -1    0    0    0    0 -0.00000000000E+00 -0.00000000000E+00 -0.45593999997E+02  0.45594000000E+02  0.51100000000E-03 0.  1.
    9900012    2    1    2    0    0 -0.29447141284E+02  0.11045605782E+02  0.52517808767E+01  0.59301941302E+02  0.49999995030E+02 0.  0.
        -12    1    1    2    0    0  0.29447141284E+02 -0.11045605782E+02 -0.52517808767E+01  0.31886058698E+02  0.00000000000E+00 0.  1.
         11    1    3    3    0    0  0.59076226287E+01 -0.32220714816E+01 -0.93133808147E+01  0.11490030993E+02  0.51100000000E-03 0.  1.
        -11    1    3    3    0    0 -0.12943641136E+02  0.17873366836E+02  0.11566309182E+02  0.24915348608E+02  0.51100000000E-03 0. -1.
        -12    1    3    3    0    0 -0.22411122776E+02 -0.36056895717E+01  0.29988525096E+01  0.22896561702E+02  0.00000000000E+00 0.  1.
</event>
<event>
 7    1  0.1096439E-011  0.5930193E+02  0.7816164E-02  0.1266605E+00
        -11   -1    0    0    0    0  0.00000000000E+00  0.00000000000E+00  0.45593999997E+02  0.45594000000E+02  0.51100000000E-03 0. -1.
         11   -1    0    0    0    0 -0.00000000000E+00 -0.00000000000E+00 -0.45593999997E+02  0.45594000000E+02  0.51100000000E-03 0.  1.
    9900012    2    1    2    0    0 -0.83924570596E+01 -0.30267315395E+02  0.54934091151E+01  0.59301933130E+02  0.49999980126E+02 0.  0.
        -12    1    1    2    0    0  0.83924570596E+01  0.30267315395E+02 -0.54934091151E+01  0.31886066870E+02  0.00000000000E+00 0.  1.
         11    1    3    3    0    0  0.17355454711E+01 -0.13823896225E+02  0.68713554658E+01  0.15534727263E+02  0.51100000000E-03 0. -1.
        -11    1    3    3    0    0 -0.19015479774E+02  0.18599254190E+00  0.10261791541E+02  0.21608503654E+02  0.51100000000E-03 0.  1.
        -12    1    3    3    0    0  0.88874772429E+01 -0.16629411711E+02 -0.11639737892E+02  0.22158702214E+02  0.00000000000E+00 0.  1.
</event>
<event>
 7    1  0.1096439E-011  0.5930198E+02  0.7816164E-02  0.1266605E+00
        -11   -1    0    0    0    0  0.00000000000E+00  0.00000000000E+00  0.45593999997E+02  0.45594000000E+02  0.51100000000E-03 0. -1.
         11   -1    0    0    0    0 -0.00000000000E+00 -0.00000000000E+00 -0.45593999997E+02  0.45594000000E+02  0.51100000000E-03 0.  1.
    9900012    2    1    2    0    0 -0.59978360801E+01  0.50260276073E+01  0.30910895760E+02  0.59301976920E+02  0.50000059987E+02 0.  0.
        -12    1    1    2    0    0  0.59978360801E+01 -0.50260276073E+01 -0.30910895760E+02  0.31886023080E+02  0.00000000000E+00 0.  1.
         11    1    3    3    0    0 -0.11448875002E+02 -0.18760475472E+02  0.11038731191E+02  0.24594425493E+02  0.51100000000E-03 0. -1.
        -11    1    3    3    0    0  0.85088267399E+01  0.69523434484E+01  0.51461234804E+01  0.12133334210E+02  0.51100000000E-03 0.  1.
         12    1    3    3    0    0 -0.30577878182E+01  0.16834159631E+02  0.14726041089E+02  0.22574217217E+02  0.00000000000E+00 0. -1.
</event>
<event>
 7    1  0.1096439E-011  0.5930194E+02  0.7816164E-02  0.1266605E+00
        -11   -1    0    0    0    0  0.00000000000E+00  0.00000000000E+00  0.45593999997E+02  0.45594000000E+02  0.51100000000E-03 0.  1.
         11   -1    0    0    0    0 -0.00000000000E+00 -0.00000000000E+00 -0.45593999997E+02  0.45594000000E+02  0.51100000000E-03 0. -1.
    9900012    2    1    2    0    0 -0.11643086306E+02 -0.23167074382E+02 -0.18559251850E+02  0.59301943119E+02  0.49999998343E+02 0.  0.
        -12    1    1    2    0    0  0.11643086306E+02  0.23167074382E+02  0.18559251850E+02  0.31886056881E+02  0.00000000000E+00 0.  1.
         11    1    3    3    0    0 -0.18766657835E+02  0.56258531737E+01 -0.14961768637E+02  0.24651413575E+02  0.51100000000E-03 0. -1.
        -11    1    3    3    0    0 -0.44104179302E+00 -0.26567094523E+02 -0.24754968678E+01  0.26685822346E+02  0.51100000000E-03 0.  1.
         12    1    3    3    0    0  0.75646133221E+01 -0.22258330329E+01 -0.11219863450E+01  0.79647071988E+01  0.00000000000E+00 0. -1.
</event>
<event>
 7    1  0.1096439E-011  0.5930198E+02  0.7816164E-02  0.1266605E+00
        -11   -1    0    0    0    0  0.00000000000E+00  0.00000000000E+00  0.45593999997E+02  0.45594000000E+02  0.51100000000E-03 0.  1.
         11   -1    0    0    0    0 -0.00000000000E+00 -0.00000000000E+00 -0.45593999997E+02  0.45594000000E+02  0.51100000000E-03 0. -1.
    9900012    2    1    2    0    0  0.41094404625E+01  0.20589024669E+02 -0.23998396574E+02  0.59301976794E+02  0.50000059759E+02 0.  0.
        -12    1    1    2    0    0 -0.41094404625E+01 -0.20589024669E+02  0.23998396574E+02  0.31886023206E+02  0.00000000000E+00 0.  1.
         11    1    3    3    0    0  0.11399673916E+02  0.43868421435E+01 -0.34617776901E+02  0.36709500504E+02  0.51100000000E-03 0. -1.
        -11    1    3    3    0    0 -0.60075932645E+01  0.10090637632E+02  0.19441682959E+01  0.11903442161E+02  0.51100000000E-03 0.  1.
         12    1    3    3    0    0 -0.12826401892E+01  0.61115448932E+01  0.86752120313E+01  0.10689034130E+02  0.00000000000E+00 0. -1.
</event>
<event>
 7    1  0.1096439E-011  0.5930195E+02  0.7816164E-02  0.1266605E+00
        -11   -1    0    0    0    0  0.00000000000E+00  0.00000000000E+00  0.45593999997E+02  0.45594000000E+02  0.51100000000E-03 0. -1.
         11   -1    0    0    0    0 -0.00000000000E+00 -0.00000000000E+00 -0.45593999997E+02  0.45594000000E+02  0.51100000000E-03 0.  1.
    9900012    2    1    2    0    0 -0.10736487082E+02 -0.26198711963E+02  0.14665456640E+02  0.59301948475E+02  0.50000008111E+02 0.  0.
        -12    1    1    2    0    0  0.10736487082E+02  0.26198711963E+02 -0.14665456640E+02  0.31886051525E+02  0.00000000000E+00 0.  1.
         11    1    3    3    0    0  0.16081553126E+02 -0.12063460028E+02  0.32007762126E+01  0.20356531812E+02  0.51100000000E-03 0. -1.
        -11    1    3    3    0    0 -0.12046187521E+02  0.41890964716E+01  0.82509728732E+01  0.15190053215E+02  0.51100000000E-03 0.  1.
         12    1    3    3    0    0 -0.14771852686E+02 -0.18324348407E+02  0.32137075540E+01  0.23755363448E+02  0.00000000000E+00 0. -1.
</event>
<event>
 7    1  0.1096439E-011  0.5930193E+02  0.7816164E-02  0.1266605E+00
        -11   -1    0    0    0    0  0.00000000000E+00  0.00000000000E+00  0.45593999997E+02  0.45594000000E+02  0.51100000000E-03 0.  1.
         11   -1    0    0    0    0 -0.00000000000E+00 -0.00000000000E+00 -0.45593999997E+02  0.45594000000E+02  0.51100000000E-03 0. -1.
    9900012    2    1    2    0    0 -0.15308065406E+02 -0.40148934520E+01 -0.27681499493E+02  0.59301927020E+02  0.49999968982E+02 0.  0.
        -12    1    1    2    0    0  0.15308065406E+02  0.40148934520E+01  0.27681499493E+02  0.31886072980E+02  0.00000000000E+00 0.  1.
         11    1    3    3    0    0 -0.47191888117E+01 -0.25554574762E+01 -0.81551182158E+01  0.97625334482E+01  0.51100000000E-03 0. -1.
        -11    1    3    3    0    0  0.13329230721E+02  0.57361360289E+01 -0.19815543141E+02  0.24560688068E+02  0.51100000000E-03 0.  1.
        -12    1    3    3    0    0 -0.23918107316E+02 -0.71955720047E+01  0.28916186394E+00  0.24978705503E+02  0.00000000000E+00 0.  1.
</event>
<event>
 7    1  0.1096439E-011  0.5930197E+02  0.7816164E-02  0.1266605E+00
        -11   -1    0    0    0    0  0.00000000000E+00  0.00000000000E+00  0.45593999997E+02  0.45594000000E+02  0.51100000000E-03 0.  1.
         11   -1    0    0    0    0 -0.00000000000E+00 -0.00000000000E+00 -0.45593999997E+02  0.45594000000E+02  0.51100000000E-03 0. -1.
    9900012    2    1    2    0    0 -0.30881748438E+02  0.66787519087E+01  0.42931235528E+01  0.59301968207E+02  0.50000044097E+02 0.  0.
        -12    1    1    2    0    0  0.30881748438E+02 -0.66787519087E+01 -0.42931235528E+01  0.31886031793E+02  0.00000000000E+00 0.  1.
         11    1    3    3    0    0 -0.22490247649E+02  0.10872970309E+02 -0.14530537154E+02  0.28899294678E+02  0.51100000000E-03 0. -1.
        -11    1    3    3    0    0 -0.10435998680E+02  0.12606070525E+01  0.21545287352E+02  0.23972872292E+02  0.51100000000E-03 0.  1.
        -12    1    3    3    0    0  0.20444978907E+01 -0.54548254533E+01 -0.27216266450E+01  0.64298012369E+01  0.00000000000E+00 0.  1.
</event>
<event>
 7    1  0.1096439E-011  0.5930199E+02  0.7816164E-02  0.1266605E+00
        -11   -1    0    0    0    0  0.00000000000E+00  0.00000000000E+00  0.45593999997E+02  0.45594000000E+02  0.51100000000E-03 0. -1.
         11   -1    0    0    0    0 -0.00000000000E+00 -0.00000000000E+00 -0.45593999997E+02  0.45594000000E+02  0.51100000000E-03 0.  1.
    9900012    2    1    2    0    0 -0.58561057022E+01  0.14133513824E+02  0.27976196522E+02  0.59301988038E+02  0.50000080264E+02 0.  0.
        -12    1    1    2    0    0  0.58561057022E+01 -0.14133513824E+02 -0.27976196522E+02  0.31886011962E+02  0.00000000000E+00 0.  1.
         11    1    3    3    0    0  0.15816451228E+01  0.15740485148E+02  0.40803497003E+02  0.43762882012E+02  0.51100000000E-03 0. -1.
        -11    1    3    3    0    0 -0.18755561685E+01 -0.29555948389E+00 -0.51824597950E+00  0.19681578967E+01  0.51100000000E-03 0.  1.
         12    1    3    3    0    0 -0.55621946564E+01 -0.13114118404E+01 -0.12309054502E+02  0.13570948130E+02  0.00000000000E+00 0. -1.
</event>
<event>
 7    1  0.1096439E-011  0.5930195E+02  0.7816164E-02  0.1266605E+00
        -11   -1    0    0    0    0  0.00000000000E+00  0.00000000000E+00  0.45593999997E+02  0.45594000000E+02  0.51100000000E-03 0.  1.
         11   -1    0    0    0    0 -0.00000000000E+00 -0.00000000000E+00 -0.45593999997E+02  0.45594000000E+02  0.51100000000E-03 0. -1.
    9900012    2    1    2    0    0  0.90545215558E+01  0.29006230693E+02 -0.96630354371E+01  0.59301952370E+02  0.50000015214E+02 0.  0.
        -12    1    1    2    0    0 -0.90545215558E+01 -0.29006230693E+02  0.96630354371E+01  0.31886047630E+02  0.00000000000E+00 0.  1.
         11    1    3    3    0    0  0.21850757284E+02  0.14699089326E+02 -0.14177188832E+02  0.29908385184E+02  0.51100000000E-03 0. -1.
        -11    1    3    3    0    0 -0.15180504414E+02  0.18611244530E+02  0.27846952973E+01  0.24178103015E+02  0.51100000000E-03 0.  1.
        -12    1    3    3    0    0  0.23842686861E+01 -0.43041031631E+01  0.17294580972E+01  0.52154641707E+01  0.00000000000E+00 0.  1.
</event>
<event>
 7    1  0.1096439E-011  0.5930194E+02  0.7816164E-02  0.1266605E+00
        -11   -1    0    0    0    0  0.00000000000E+00  0.00000000000E+00  0.45593999997E+02  0.45594000000E+02  0.51100000000E-03 0. -1.
         11   -1    0    0    0    0 -0.00000000000E+00 -0.00000000000E+00 -0.45593999997E+02  0.45594000000E+02  0.51100000000E-03 0.  1.
    9900012    2    1    2    0    0 -0.93659386897E+00 -0.17104733850E+02  0.26893716246E+02  0.59301935619E+02  0.49999984665E+02 0.  0.
        -12    1    1    2    0    0  0.93659386897E+00  0.17104733850E+02 -0.26893716246E+02  0.31886064381E+02  0.00000000000E+00 0.  1.
         11    1    3    3    0    0 -0.18586636780E+02 -0.13215994446E+02  0.28788081024E+02  0.36727090618E+02  0.51100000000E-03 0. -1.
        -11    1    3    3    0    0  0.18153105499E+02 -0.64390529316E+01 -0.34173757939E+01  0.19562083209E+02  0.51100000000E-03 0.  1.
         12    1    3    3    0    0 -0.50306258821E+00  0.25503135278E+01  0.15230110165E+01  0.30127617918E+01  0.00000000000E+00 0. -1.
</event>
<event>
 7    1  0.1096439E-011  0.5930200E+02  0.7816164E-02  0.1266605E+00
        -11   -1    0    0    0    0  0.00000000000E+00  0.00000000000E+00  0.45593999997E+02  0.45594000000E+02  0.51100000000E-03 0.  1.
         11   -1    0    0    0    0 -0.00000000000E+00 -0.00000000000E+00 -0.45593999997E+02  0.45594000000E+02  0.51100000000E-03 0. -1.
    9900012    2    1    2    0    0 -0.25871859772E+02 -0.16491536073E+02 -0.86829217483E+01  0.59301999621E+02  0.50000101389E+02 0.  0.
        -12    1    1    2    0    0  0.25871859772E+02  0.16491536073E+02  0.86829217483E+01  0.31886000379E+02  0.00000000000E+00 0.  1.
         11    1    3    3    0    0 -0.29215487412E+02 -0.16444129591E+02 -0.55205745248E+01  0.33976916371E+02  0.51100000000E-03 0. -1.
        -11    1    3    3    0    0 -0.44318279794E+01  0.99429160250E+01 -0.58868296693E+01  0.12375679462E+02  0.51100000000E-03 0.  1.
         12    1    3    3    0    0  0.77754556198E+01 -0.99903225065E+01  0.27244824458E+01  0.12949403788E+02  0.00000000000E+00 0. -1.
</event>
<event>
 7    1  0.1096439E-011  0.5930195E+02  0.7816164E-02  0.1266605E+00
        -11   -1    0    0    0    0  0.00000000000E+00  0.00000000000E+00  0.45593999997E+02  0.45594000000E+02  0.51100000000E-03 0. -1.
         11   -1    0    0    0    0 -0.00000000000E+00 -0.00000000000E+00 -0.45593999997E+02  0.45594000000E+02  0.51100000000E-03 0.  1.
    9900012    2    1    2    0    0  0.14826474063E+02  0.21569094752E+02  0.18211814029E+02  0.59301947378E+02  0.50000006110E+02 0.  0.
        -12    1    1    2    0    0 -0.14826474063E+02 -0.21569094752E+02 -0.18211814029E+02  0.31886052622E+02  0.00000000000E+00 0.  1.
         11    1    3    3    0    0  0.24845831103E+01 -0.60784262406E+00  0.20803929581E+02  0.20960584728E+02  0.51100000000E-03 0. -1.
        -11    1    3    3    0    0  0.19258016945E+02  0.68561455172E+01 -0.57553683005E+01  0.21236812674E+02  0.51100000000E-03 0.  1.
         12    1    3    3    0    0 -0.69161259919E+01  0.15320791859E+02  0.31632527491E+01  0.17104549976E+02  0.00000000000E+00 0. -1.
</event>
<event>
 7    1  0.1096439E-011  0.5930194E+02  0.7816164E-02  0.1266605E+00
        -11   -1    0    0    0    0  0.00000000000E+00  0.00000000000E+00  0.45593999997E+02  0.45594000000E+02  0.51100000000E-03 0.  1.
         11   -1    0    0    0    0 -0.00000000000E+00 -0.00000000000E+00 -0.45593999997E+02  0.45594000000E+02  0.51100000000E-03 0. -1.
    9900012    2    1    2    0    0  0.30189053968E+02 -0.73251774152E+01  0.71891502266E+01  0.59301935887E+02  0.49999985153E+02 0.  0.
        -12    1    1    2    0    0 -0.30189053968E+02  0.73251774152E+01 -0.71891502266E+01  0.31886064113E+02  0.00000000000E+00 0.  1.
         11    1    3    3    0    0  0.11115243479E+02 -0.22541293618E+02 -0.62434380864E+01  0.25896700079E+02  0.51100000000E-03 0. -1.
        -11    1    3    3    0    0  0.19901934310E+02  0.54967257630E+01  0.73849500290E+01  0.21928029337E+02  0.51100000000E-03 0.  1.
         12    1    3    3    0    0 -0.82812382156E+00  0.97193904394E+01  0.60476382840E+01  0.11477206472E+02  0.00000000000E+00 0. -1.
</event>
<event>
 7    1  0.1096439E-011  0.5930197E+02  0.7816164E-02  0.1266605E+00
        -11   -1    0    0    0    0  0.00000000000E+00  0.00000000000E+00  0.45593999997E+02  0.45594000000E+02  0.51100000000E-03 0.  1.
         11   -1    0    0    0    0 -0.00000000000E+00 -0.00000000000E+00 -0.45593999997E+02  0.45594000000E+02  0.51100000000E-03 0. -1.
    9900012    2    1    2    0    0 -0.30799184335E+02  0.14007498740E+00 -0.82528658779E+01  0.59301965880E+02  0.50000039854E+02 0.  0.
        -12    1    1    2    0    0  0.30799184335E+02 -0.14007498740E+00  0.82528658779E+01  0.31886034120E+02  0.00000000000E+00 0.  1.
         11    1    3    3    0    0 -0.60719395361E+00 -0.14310437935E+02 -0.14661230018E+02  0.20496560304E+02  0.51100000000E-03 0. -1.
        -11    1    3    3    0    0 -0.29696297335E+01  0.64598188766E+01  0.76030781391E+01  0.10409359160E+02  0.51100000000E-03 0.  1.
         12    1    3    3    0    0 -0.27222360647E+02  0.79906940459E+01 -0.11947139993E+01  0.28396046417E+02  0.00000000000E+00 0. -1.
</event>
<event>
 7    1  0.1096439E-011  0.5930194E+02  0.7816164E-02  0.1266605E+00
        -11   -1    0    0    0    0  0.00000000000E+00  0.00000000000E+00  0.45593999997E+02  0.45594000000E+02  0.51100000000E-03 0. -1.
         11   -1    0    0    0    0 -0.00000000000E+00 -0.00000000000E+00 -0.45593999997E+02  0.45594000000E+02  0.51100000000E-03 0.  1.
    9900012    2    1    2    0    0  0.17402688625E+02  0.25754791909E+02  0.71103906760E+01  0.59301944534E+02  0.50000000922E+02 0.  0.
        -12    1    1    2    0    0 -0.17402688625E+02 -0.25754791909E+02 -0.71103906760E+01  0.31886055466E+02  0.00000000000E+00 0.  1.
         11    1    3    3    0    0  0.16159673905E+01  0.16008677140E+02  0.38204859647E+01  0.16537388175E+02  0.51100000000E-03 0. -1.
        -11    1    3    3    0    0  0.19176580827E+02  0.51150335660E+01 -0.14169509491E+02  0.24386057903E+02  0.51100000000E-03 0.  1.
        -12    1    3    3    0    0 -0.33898595928E+01  0.46310812026E+01  0.17459414202E+02  0.18378498455E+02  0.00000000000E+00 0.  1.
</event>
<event>
 7    1  0.1096439E-011  0.5930195E+02  0.7816164E-02  0.1266605E+00
        -11   -1    0    0    0    0  0.00000000000E+00  0.00000000000E+00  0.45593999997E+02  0.45594000000E+02  0.51100000000E-03 0.  1.
         11   -1    0    0    0    0 -0.00000000000E+00 -0.00000000000E+00 -0.45593999997E+02  0.45594000000E+02  0.51100000000E-03 0. -1.
    9900012    2    1    2    0    0  0.23562796944E+02 -0.54382379169E+00 -0.21476014912E+02  0.59301947239E+02  0.50000005857E+02 0.  0.
        -12    1    1    2    0    0 -0.23562796944E+02  0.54382379169E+00  0.21476014912E+02  0.31886052761E+02  0.00000000000E+00 0.  1.
         11    1    3    3    0    0  0.24899662911E+02  0.10825048657E+02 -0.60584767317E+01  0.27818699324E+02  0.51100000000E-03 0. -1.
        -11    1    3    3    0    0 -0.81723536628E+01 -0.86380230459E+01  0.24658311157E+01  0.12144263250E+02  0.51100000000E-03 0.  1.
         12    1    3    3    0    0  0.68354876957E+01 -0.27308494028E+01 -0.17883369296E+02  0.19338984665E+02  0.00000000000E+00 0. -1.
</event>
<event>
 7    1  0.1096439E-011  0.5930197E+02  0.7816164E-02  0.1266605E+00
        -11   -1    0    0    0    0  0.00000000000E+00  0.00000000000E+00  0.45593999997E+02  0.45594000000E+02  0.51100000000E-03 0.  1.
         11   -1    0    0    0    0 -0.00000000000E+00 -0.00000000000E+00 -0.45593999997E+02  0.45594000000E+02  0.51100000000E-03 0. -1.
    9900012    2    1    2    0    0  0.15266961824E+02 -0.27744470064E+02 -0.37260484847E+01  0.59301965756E+02  0.50000039628E+02 0.  0.
        -12    1    1    2    0    0 -0.15266961824E+02  0.27744470064E+02  0.37260484847E+01  0.31886034244E+02  0.00000000000E+00 0.  1.
         11    1    3    3    0    0  0.52778763630E+01 -0.49379263911E+01 -0.92855154185E+01  0.11766898181E+02  0.51100000000E-03 0. -1.
        -11    1    3    3    0    0 -0.13516827324E+02 -0.68247271285E+00  0.69716387550E+01  0.15224130094E+02  0.51100000000E-03 0.  1.
        -12    1    3    3    0    0  0.23505912785E+02 -0.22124070960E+02 -0.14121718212E+01  0.32310937482E+02  0.00000000000E+00 0.  1.
</event>
<event>
 7    1  0.1096439E-011  0.5930192E+02  0.7816164E-02  0.1266605E+00
        -11   -1    0    0    0    0  0.00000000000E+00  0.00000000000E+00  0.45593999997E+02  0.45594000000E+02  0.51100000000E-03 0. -1.
         11   -1    0    0    0    0 -0.00000000000E+00 -0.00000000000E+00 -0.45593999997E+02  0.45594000000E+02  0.51100000000E-03 0.  1.
    9900012    2    1    2    0    0  0.30336775147E+02  0.97490668844E+01  0.11653715166E+01  0.59301916481E+02  0.49999949761E+02 0.  0.
        -12    1    1    2    0    0 -0.30336775147E+02 -0.97490668844E+01 -0.11653715166E+01  0.31886083519E+02  0.00000000000E+00 0.  1.
         11    1    3    3    0    0  0.31199914624E+02  0.65192223301E+01 -0.48313074530E+01  0.32237811097E+02  0.51100000000E-03 0. -1.
        -11    1    3    3    0    0 -0.30525320713E+01  0.12081104406E+02 -0.44191005383E+01  0.13221175649E+02  0.51100000000E-03 0.  1.
         12    1    3    3    0    0  0.21893925939E+01 -0.88512598513E+01  0.10415779508E+02  0.13842929735E+02  0.00000000000E+00 0. -1.
</event>
<event>
 7    1  0.1096439E-011  0.5930194E+02  0.7816164E-02  0.1266605E+00
        -11   -1    0    0    0    0  0.00000000000E+00  0.00000000000E+00  0.45593999997E+02  0.45594000000E+02  0.51100000000E-03 0.  1.
         11   -1    0    0    0    0 -0.00000000000E+00 -0.00000000000E+00 -0.45593999997E+02  0.45594000000E+02  0.51100000000E-03 0. -1.
    9900012    2    1    2    0    0  0.69604736618E+01 -0.80054090947E+01 -0.30069681630E+02  0.59301944714E+02  0.50000001251E+02 0.  0.
        -12    1    1    2    0    0 -0.69604736618E+01  0.80054090947E+01  0.30069681630E+02  0.31886055286E+02  0.00000000000E+00 0.  1.
         11    1    3    3    0    0 -0.16896312723E+02  0.29426783130E+01 -0.16313043782E+02  0.23669814891E+02  0.51100000000E-03 0. -1.
        -11    1    3    3    0    0  0.15340631028E+02 -0.13089080755E+02 -0.10585706137E+01  0.20193552618E+02  0.51100000000E-03 0.  1.
         12    1    3    3    0    0  0.85161553571E+01  0.21409933475E+01 -0.12698067235E+02  0.15438577204E+02  0.00000000000E+00 0. -1.
</event>
<event>
 7    1  0.1096439E-011  0.5930194E+02  0.7816164E-02  0.1266605E+00
        -11   -1    0    0    0    0  0.00000000000E+00  0.00000000000E+00  0.45593999997E+02  0.45594000000E+02  0.51100000000E-03 0. -1.
         11   -1    0    0    0    0 -0.00000000000E+00 -0.00000000000E+00 -0.45593999997E+02  0.45594000000E+02  0.51100000000E-03 0.  1.
    9900012    2    1    2    0    0  0.40387397227E+01  0.28911544226E+02  0.12827007297E+02  0.59301938402E+02  0.49999989739E+02 0.  0.
        -12    1    1    2    0    0 -0.40387397227E+01 -0.28911544226E+02 -0.12827007297E+02  0.31886061598E+02  0.00000000000E+00 0.  1.
         11    1    3    3    0    0 -0.45641542407E+01  0.36927104769E+01  0.11687737586E+02  0.13079404602E+02  0.51100000000E-03 0. -1.
        -11    1    3    3    0    0  0.22998655897E+02  0.11110521473E+02  0.40370858875E+01  0.25858846130E+02  0.51100000000E-03 0.  1.
        -12    1    3    3    0    0 -0.14395761933E+02  0.14108312275E+02 -0.28978161764E+01  0.20363687669E+02  0.00000000000E+00 0.  1.
</event>
<event>
 7    1  0.1096439E-011  0.5930195E+02  0.7816164E-02  0.1266605E+00
        -11   -1    0    0    0    0  0.00000000000E+00  0.00000000000E+00  0.45593999997E+02  0.45594000000E+02  0.51100000000E-03 0.  1.
         11   -1    0    0    0    0 -0.00000000000E+00 -0.00000000000E+00 -0.45593999997E+02  0.45594000000E+02  0.51100000000E-03 0. -1.
    9900012    2    1    2    0    0  0.10632087103E+02  0.14153167452E+02 -0.26521067213E+02  0.59301946133E+02  0.50000003840E+02 0.  0.
        -12    1    1    2    0    0 -0.10632087103E+02 -0.14153167452E+02  0.26521067213E+02  0.31886053867E+02  0.00000000000E+00 0.  1.
         11    1    3    3    0    0  0.24841534889E+01 -0.15282071369E+01 -0.28007730258E+02  0.28159179499E+02  0.51100000000E-03 0. -1.
        -11    1    3    3    0    0  0.11063620705E+02  0.66903755425E+01  0.11549805918E+02  0.17336748398E+02  0.51100000000E-03 0.  1.
         12    1    3    3    0    0 -0.29156870911E+01  0.89909990460E+01 -0.10063142873E+02  0.13806018236E+02  0.00000000000E+00 0. -1.
</event>
<event>
 7    1  0.1096439E-011  0.5930193E+02  0.7816164E-02  0.1266605E+00
        -11   -1    0    0    0    0  0.00000000000E+00  0.00000000000E+00  0.45593999997E+02  0.45594000000E+02  0.51100000000E-03 0.  1.
         11   -1    0    0    0    0 -0.00000000000E+00 -0.00000000000E+00 -0.45593999997E+02  0.45594000000E+02  0.51100000000E-03 0. -1.
    9900012    2    1    2    0    0  0.27269500443E+01 -0.27276483184E+02  0.16287377728E+02  0.59301929928E+02  0.49999974285E+02 0.  0.
        -12    1    1    2    0    0 -0.27269500443E+01  0.27276483184E+02 -0.16287377728E+02  0.31886070072E+02  0.00000000000E+00 0.  1.
         11    1    3    3    0    0  0.10305397329E+02 -0.11233562414E+02 -0.10342265496E+02  0.18421633871E+02  0.51100000000E-03 0. -1.
        -11    1    3    3    0    0 -0.10226405076E+02 -0.20502663452E+02  0.13103747941E+02  0.26394067132E+02  0.51100000000E-03 0.  1.
        -12    1    3    3    0    0  0.26479577919E+01  0.44597426827E+01  0.13525895282E+02  0.14486228925E+02  0.00000000000E+00 0.  1.
</event>
<event>
 7    1  0.1096439E-011  0.5930194E+02  0.7816164E-02  0.1266605E+00
        -11   -1    0    0    0    0  0.00000000000E+00  0.00000000000E+00  0.45593999997E+02  0.45594000000E+02  0.51100000000E-03 0. -1.
         11   -1    0    0    0    0 -0.00000000000E+00 -0.00000000000E+00 -0.45593999997E+02  0.45594000000E+02  0.51100000000E-03 0.  1.
    9900012    2    1    2    0    0 -0.20959402708E+02  0.10998117917E+02  0.21365057376E+02  0.59301939781E+02  0.49999992255E+02 0.  0.
        -12    1    1    2    0    0  0.20959402708E+02 -0.10998117917E+02 -0.21365057376E+02  0.31886060219E+02  0.00000000000E+00 0.  1.
         11    1    3    3    0    0 -0.11607953439E+02 -0.10848235511E+02  0.36948655838E+00  0.15892303713E+02  0.51100000000E-03 0. -1.
        -11    1    3    3    0    0  0.51643650431E+01  0.18531376094E+02  0.20988199052E+01  0.19351682394E+02  0.51100000000E-03 0.  1.
         12    1    3    3    0    0 -0.14515814312E+02  0.33149773340E+01  0.18896750913E+02  0.24057953673E+02  0.00000000000E+00 0. -1.
</event>
<event>
 7    1  0.1096439E-011  0.5930194E+02  0.7816164E-02  0.1266605E+00
        -11   -1    0    0    0    0  0.00000000000E+00  0.00000000000E+00  0.45593999997E+02  0.45594000000E+02  0.51100000000E-03 0. -1.
         11   -1    0    0    0    0 -0.00000000000E+00 -0.00000000000E+00 -0.45593999997E+02  0.45594000000E+02  0.51100000000E-03 0.  1.
    9900012    2    1    2    0    0  0.29965418593E+02 -0.10279362063E+02  0.36234540374E+01  0.59301936978E+02  0.49999987143E+02 0.  0.
        -12    1    1    2    0    0 -0.29965418593E+02  0.10279362063E+02 -0.36234540374E+01  0.31886063022E+02  0.00000000000E+00 0.  1.
         11    1    3    3    0    0 -0.67272523457E+01 -0.17051780278E+02  0.46005949728E+01  0.18899328272E+02  0.51100000000E-03 0. -1.
        -11    1    3    3    0    0  0.68137742954E+00  0.35879688809E+01  0.19361825295E+01  0.41335939496E+01  0.51100000000E-03 0.  1.
         12    1    3    3    0    0  0.36011293509E+02  0.31844493348E+01 -0.29133234649E+01  0.36269014756E+02  0.00000000000E+00 0. -1.
</event>
<event>
 7    1  0.1096439E-011  0.5930189E+02  0.7816164E-02  0.1266605E+00
        -11   -1    0    0    0    0  0.00000000000E+00  0.00000000000E+00  0.45593999997E+02  0.45594000000E+02  0.51100000000E-03 0.  1.
         11   -1    0    0    0    0 -0.00000000000E+00 -0.00000000000E+00 -0.45593999997E+02  0.45594000000E+02  0.51100000000E-03 0. -1.
    9900012    2    1    2    0    0 -0.14138776782E+01 -0.11915615242E+02 -0.29542229103E+02  0.59301886454E+02  0.49999894999E+02 0.  0.
        -12    1    1    2    0    0  0.14138776782E+01  0.11915615242E+02  0.29542229103E+02  0.31886113546E+02  0.00000000000E+00 0.  1.
         11    1    3    3    0    0 -0.47124011976E+01 -0.58560176983E+01 -0.22630446596E+02  0.23846106217E+02  0.51100000000E-03 0. -1.
        -11    1    3    3    0    0  0.52896493342E+01  0.56954670397E+01  0.11283864592E+02  0.13701982896E+02  0.51100000000E-03 0.  1.
        -12    1    3    3    0    0 -0.19911258148E+01 -0.11755064583E+02 -0.18195647100E+02  0.21753797341E+02  0.00000000000E+00 0.  1.
</event>
<event>
 7    1  0.1096439E-011  0.5930192E+02  0.7816164E-02  0.1266605E+00
        -11   -1    0    0    0    0  0.00000000000E+00  0.00000000000E+00  0.45593999997E+02  0.45594000000E+02  0.51100000000E-03 0.  1.
         11   -1    0    0    0    0 -0.00000000000E+00 -0.00000000000E+00 -0.45593999997E+02  0.45594000000E+02  0.51100000000E-03 0. -1.
    9900012    2    1    2    0    0 -0.76485287552E+01 -0.23464821006E+02  0.20189711924E+02  0.59301917071E+02  0.49999950837E+02 0.  0.
        -12    1    1    2    0    0  0.76485287552E+01  0.23464821006E+02 -0.20189711924E+02  0.31886082929E+02  0.00000000000E+00 0.  1.
         11    1    3    3    0    0  0.25017006302E+01  0.70960234329E+01 -0.38328322629E+01  0.84440901239E+01  0.51100000000E-03 0. -1.
        -11    1    3    3    0    0 -0.16507084670E+02 -0.33570888901E+02  0.22521824463E+02  0.43666016572E+02  0.51100000000E-03 0.  1.
        -12    1    3    3    0    0  0.63568552849E+01  0.30100444614E+01  0.15007197241E+01  0.71918103745E+01  0.00000000000E+00 0.  1.
</event>
<event>
 7    1  0.1096439E-011  0.5930195E+02  0.7816164E-02  0.1266605E+00
        -11   -1    0    0    0    0  0.00000000000E+00  0.00000000000E+00  0.45593999997E+02  0.45594000000E+02  0.51100000000E-03 0. -1.
         11   -1    0    0    0    0 -0.00000000000E+00 -0.00000000000E+00 -0.45593999997E+02  0.45594000000E+02  0.51100000000E-03 0.  1.
    9900012    2    1    2    0    0  0.28900477907E+01  0.29853281946E+02  0.10823545771E+02  0.59301953487E+02  0.50000017252E+02 0.  0.
        -12    1    1    2    0    0 -0.28900477907E+01 -0.29853281946E+02 -0.10823545771E+02  0.31886046513E+02  0.00000000000E+00 0.  1.
         11    1    3    3    0    0 -0.12644966289E+02  0.14332689579E+02 -0.12498440333E+01  0.19154197278E+02  0.51100000000E-03 0. -1.
        -11    1    3    3    0    0  0.12212785615E+02  0.21550680466E+02  0.18353413194E+02  0.30829072920E+02  0.51100000000E-03 0.  1.
        -12    1    3    3    0    0  0.33222284652E+01 -0.60300880992E+01 -0.62800233891E+01  0.93186832883E+01  0.00000000000E+00 0.  1.
</event>
<event>
 7    1  0.1096439E-011  0.5930195E+02  0.7816164E-02  0.1266605E+00
        -11   -1    0    0    0    0  0.00000000000E+00  0.00000000000E+00  0.45593999997E+02  0.45594000000E+02  0.51100000000E-03 0.  1.
         11   -1    0    0    0    0 -0.00000000000E+00 -0.00000000000E+00 -0.45593999997E+02  0.45594000000E+02  0.51100000000E-03 0. -1.
    9900012    2    1    2    0    0 -0.13093268547E+02 -0.14287569918E+02 -0.25320978431E+02  0.59301948440E+02  0.50000008046E+02 0.  0.
        -12    1    1    2    0    0  0.13093268547E+02  0.14287569918E+02  0.25320978431E+02  0.31886051560E+02  0.00000000000E+00 0.  1.
         11    1    3    3    0    0  0.39960652856E+01 -0.22002790309E+02 -0.20619138780E+02  0.30417761315E+02  0.51100000000E-03 0. -1.
        -11    1    3    3    0    0 -0.11429813812E+02  0.43841078026E+01  0.79729070057E+01  0.14609185172E+02  0.51100000000E-03 0.  1.
         12    1    3    3    0    0 -0.56595200209E+01  0.33311125881E+01 -0.12674746657E+02  0.14275001953E+02  0.00000000000E+00 0. -1.
</event>
<event>
 7    1  0.1096439E-011  0.5930196E+02  0.7816164E-02  0.1266605E+00
        -11   -1    0    0    0    0  0.00000000000E+00  0.00000000000E+00  0.45593999997E+02  0.45594000000E+02  0.51100000000E-03 0.  1.
         11   -1    0    0    0    0 -0.00000000000E+00 -0.00000000000E+00 -0.45593999997E+02  0.45594000000E+02  0.51100000000E-03 0. -1.
    9900012    2    1    2    0    0 -0.74351582140E+00 -0.10027099384E+02 -0.30259284075E+02  0.59301955865E+02  0.50000021589E+02 0.  0.
        -12    1    1    2    0    0  0.74351582140E+00  0.10027099384E+02  0.30259284075E+02  0.31886044135E+02  0.00000000000E+00 0.  1.
         11    1    3    3    0    0 -0.15560584822E+02  0.14543068935E+01 -0.11006698113E+02  0.19115287395E+02  0.51100000000E-03 0. -1.
        -11    1    3    3    0    0  0.12531550879E+02 -0.13153749783E+02  0.24215885559E+01  0.18328256659E+02  0.51100000000E-03 0.  1.
         12    1    3    3    0    0  0.22855181220E+01  0.16723435055E+01 -0.21674174518E+02  0.21858411811E+02  0.00000000000E+00 0. -1.
</event>
<event>
 7    1  0.1096439E-011  0.5930178E+02  0.7816164E-02  0.1266605E+00
        -11   -1    0    0    0    0  0.00000000000E+00  0.00000000000E+00  0.45593999997E+02  0.45594000000E+02  0.51100000000E-03 0. -1.
         11   -1    0    0    0    0 -0.00000000000E+00 -0.00000000000E+00 -0.45593999997E+02  0.45594000000E+02  0.51100000000E-03 0.  1.
    9900012    2    1    2    0    0  0.23790933098E+01 -0.28354880729E+02 -0.14389979701E+02  0.59301782571E+02  0.49999705541E+02 0.  0.
        -12    1    1    2    0    0 -0.23790933098E+01  0.28354880729E+02  0.14389979701E+02  0.31886217429E+02  0.00000000000E+00 0.  1.
         11    1    3    3    0    0 -0.43192588400E+01 -0.68536525611E+01 -0.59674030752E+01  0.10061731962E+02  0.51100000000E-03 0. -1.
        -11    1    3    3    0    0  0.13088829876E+02 -0.14341641683E+01  0.13487909672E+02  0.18849350174E+02  0.51100000000E-03 0.  1.
        -12    1    3    3    0    0 -0.63904777266E+01 -0.20067064000E+02 -0.21910486297E+02  0.30390700435E+02  0.00000000000E+00 0.  1.
</event>
<event>
 7    1  0.1096439E-011  0.5930195E+02  0.7816164E-02  0.1266605E+00
        -11   -1    0    0    0    0  0.00000000000E+00  0.00000000000E+00  0.45593999997E+02  0.45594000000E+02  0.51100000000E-03 0. -1.
         11   -1    0    0    0    0 -0.00000000000E+00 -0.00000000000E+00 -0.45593999997E+02  0.45594000000E+02  0.51100000000E-03 0.  1.
    9900012    2    1    2    0    0  0.20947355621E+02 -0.61946701278E+01  0.23228313596E+02  0.59301949789E+02  0.50000010507E+02 0.  0.
        -12    1    1    2    0    0 -0.20947355621E+02  0.61946701278E+01 -0.23228313596E+02  0.31886050211E+02  0.00000000000E+00 0.  1.
         11    1    3    3    0    0  0.12616642217E+02  0.97064614067E+01  0.14391169101E+02  0.21459282426E+02  0.51100000000E-03 0. -1.
        -11    1    3    3    0    0  0.59682981907E+01 -0.18279130011E+02 -0.78888078225E+01  0.20784139780E+02  0.51100000000E-03 0.  1.
        -12    1    3    3    0    0  0.23624152139E+01  0.23779984766E+01  0.16725952318E+02  0.17058527584E+02  0.00000000000E+00 0.  1.
</event>
<event>
 7    1  0.1096439E-011  0.5930193E+02  0.7816164E-02  0.1266605E+00
        -11   -1    0    0    0    0  0.00000000000E+00  0.00000000000E+00  0.45593999997E+02  0.45594000000E+02  0.51100000000E-03 0.  1.
         11   -1    0    0    0    0 -0.00000000000E+00 -0.00000000000E+00 -0.45593999997E+02  0.45594000000E+02  0.51100000000E-03 0. -1.
    9900012    2    1    2    0    0  0.56552900689E+01 -0.62278632707E+01 -0.30756346640E+02  0.59301930231E+02  0.49999974838E+02 0.  0.
        -12    1    1    2    0    0 -0.56552900689E+01  0.62278632707E+01  0.30756346640E+02  0.31886069769E+02  0.00000000000E+00 0.  1.
         11    1    3    3    0    0  0.22967731816E+02 -0.27048858605E+01 -0.25120246496E+02  0.34144690606E+02  0.51100000000E-03 0. -1.
        -11    1    3    3    0    0 -0.14175984458E+02  0.12294097980E+01  0.32572139474E+01  0.14597240382E+02  0.51100000000E-03 0.  1.
         12    1    3    3    0    0 -0.31364572887E+01 -0.47523872082E+01 -0.88933140908E+01  0.10559999243E+02  0.00000000000E+00 0. -1.
</event>
<event>
 7    1  0.1096439E-011  0.5930195E+02  0.7816164E-02  0.1266605E+00
        -11   -1    0    0    0    0  0.00000000000E+00  0.00000000000E+00  0.45593999997E+02  0.45594000000E+02  0.51100000000E-03 0.  1.
         11   -1    0    0    0    0 -0.00000000000E+00 -0.00000000000E+00 -0.45593999997E+02  0.45594000000E+02  0.51100000000E-03 0. -1.
    9900012    2    1    2    0    0 -0.20930733981E+02  0.23701592538E+02 -0.41059901051E+01  0.59301948684E+02  0.50000008492E+02 0.  0.
        -12    1    1    2    0    0  0.20930733981E+02 -0.23701592538E+02  0.41059901051E+01  0.31886051316E+02  0.00000000000E+00 0.  1.
         11    1    3    3    0    0  0.24904519122E+00  0.54750448074E+01 -0.44401462065E+01  0.70535833267E+01  0.51100000000E-03 0. -1.
        -11    1    3    3    0    0 -0.31033299894E+02  0.33858531656E+01  0.89290429445E+01  0.32469331871E+02  0.51100000000E-03 0.  1.
        -12    1    3    3    0    0  0.98535207225E+01  0.14840694565E+02 -0.85948868431E+01  0.19779033486E+02  0.00000000000E+00 0.  1.
</event>
<event>
 7    1  0.1096439E-011  0.5930195E+02  0.7816164E-02  0.1266605E+00
        -11   -1    0    0    0    0  0.00000000000E+00  0.00000000000E+00  0.45593999997E+02  0.45594000000E+02  0.51100000000E-03 0. -1.
         11   -1    0    0    0    0 -0.00000000000E+00 -0.00000000000E+00 -0.45593999997E+02  0.45594000000E+02  0.51100000000E-03 0.  1.
    9900012    2    1    2    0    0 -0.56364205947E+01  0.75703009255E-01  0.31383839804E+02  0.59301947110E+02  0.50000005621E+02 0.  0.
        -12    1    1    2    0    0  0.56364205947E+01 -0.75703009255E-01 -0.31383839804E+02  0.31886052890E+02  0.00000000000E+00 0.  1.
         11    1    3    3    0    0 -0.10826509083E+02  0.66099335518E+01  0.11247547980E+01  0.12734582604E+02  0.51100000000E-03 0. -1.
        -11    1    3    3    0    0 -0.43979989261E+01 -0.19094692037E+02  0.16739064387E+02  0.25771028993E+02  0.51100000000E-03 0.  1.
        -12    1    3    3    0    0  0.95880874142E+01  0.12560461495E+02  0.13520020619E+02  0.20796335513E+02  0.00000000000E+00 0.  1.
</event>
<event>
 7    1  0.1096439E-011  0.5930200E+02  0.7816164E-02  0.1266605E+00
        -11   -1    0    0    0    0  0.00000000000E+00  0.00000000000E+00  0.45593999997E+02  0.45594000000E+02  0.51100000000E-03 0. -1.
         11   -1    0    0    0    0 -0.00000000000E+00 -0.00000000000E+00 -0.45593999997E+02  0.45594000000E+02  0.51100000000E-03 0.  1.
    9900012    2    1    2    0    0 -0.19517996322E+02  0.64934895468E+01  0.24363901320E+02  0.59301995634E+02  0.50000094117E+02 0.  0.
        -12    1    1    2    0    0  0.19517996322E+02 -0.64934895468E+01 -0.24363901320E+02  0.31886004366E+02  0.00000000000E+00 0.  1.
         11    1    3    3    0    0  0.36450234183E+01  0.74106131799E+01  0.28958875587E+02  0.30113449801E+02  0.51100000000E-03 0. -1.
        -11    1    3    3    0    0 -0.39366445435E+01 -0.70596098981E+01 -0.39449718515E+01  0.89943351808E+01  0.51100000000E-03 0.  1.
         12    1    3    3    0    0 -0.19226375197E+02  0.61424862649E+01 -0.65000241496E+00  0.20194210652E+02  0.00000000000E+00 0. -1.
</event>
<event>
 7    1  0.1096439E-011  0.5930194E+02  0.7816164E-02  0.1266605E+00
        -11   -1    0    0    0    0  0.00000000000E+00  0.00000000000E+00  0.45593999997E+02  0.45594000000E+02  0.51100000000E-03 0.  1.
         11   -1    0    0    0    0 -0.00000000000E+00 -0.00000000000E+00 -0.45593999997E+02  0.45594000000E+02  0.51100000000E-03 0. -1.
    9900012    2    1    2    0    0 -0.54133772314E+01  0.31364825285E+02  0.19141270042E+01  0.59301940344E+02  0.49999993281E+02 0.  0.
        -12    1    1    2    0    0  0.54133772314E+01 -0.31364825285E+02 -0.19141270042E+01  0.31886059656E+02  0.00000000000E+00 0.  1.
         11    1    3    3    0    0  0.91703533945E+01  0.20828381871E+02  0.91240945631E+01  0.24518686233E+02  0.51100000000E-03 0. -1.
        -11    1    3    3    0    0 -0.23431875561E+02  0.69082832578E+01 -0.44622498747E+01  0.24833220574E+02  0.51100000000E-03 0.  1.
         12    1    3    3    0    0  0.88481449347E+01  0.36281601565E+01 -0.27477176843E+01  0.99500335366E+01  0.00000000000E+00 0. -1.
</event>
<event>
 7    1  0.1096439E-011  0.5930195E+02  0.7816164E-02  0.1266605E+00
        -11   -1    0    0    0    0  0.00000000000E+00  0.00000000000E+00  0.45593999997E+02  0.45594000000E+02  0.51100000000E-03 0.  1.
         11   -1    0    0    0    0 -0.00000000000E+00 -0.00000000000E+00 -0.45593999997E+02  0.45594000000E+02  0.51100000000E-03 0. -1.
    9900012    2    1    2    0    0  0.82492220968E+01  0.77525532925E+01 -0.29808862596E+02  0.59301952315E+02  0.50000015113E+02 0.  0.
        -12    1    1    2    0    0 -0.82492220968E+01 -0.77525532925E+01  0.29808862596E+02  0.31886047685E+02  0.00000000000E+00 0.  1.
         11    1    3    3    0    0 -0.13837333638E+02 -0.55830350243E+01 -0.69923483586E+01  0.16478319639E+02  0.51100000000E-03 0. -1.
        -11    1    3    3    0    0  0.42272705753E+01  0.17307769705E+02 -0.94681300392E+01  0.20176079782E+02  0.51100000000E-03 0.  1.
         12    1    3    3    0    0  0.17859285159E+02 -0.39721813884E+01 -0.13348384198E+02  0.22647552894E+02  0.00000000000E+00 0. -1.
</event>
<event>
 7    1  0.1096439E-011  0.5930200E+02  0.7816164E-02  0.1266605E+00
        -11   -1    0    0    0    0  0.00000000000E+00  0.00000000000E+00  0.45593999997E+02  0.45594000000E+02  0.51100000000E-03 0. -1.
         11   -1    0    0    0    0 -0.00000000000E+00 -0.00000000000E+00 -0.45593999997E+02  0.45594000000E+02  0.51100000000E-03 0.  1.
    9900012    2    1    2    0    0  0.21338791069E+02  0.16271506597E+02  0.17222406366E+02  0.59301996609E+02  0.50000095896E+02 0.  0.
        -12    1    1    2    0    0 -0.21338791069E+02 -0.16271506597E+02 -0.17222406366E+02  0.31886003391E+02  0.00000000000E+00 0.  1.
         11    1    3    3    0    0  0.43543288417E+01 -0.15441471592E+02  0.11914653335E+02  0.19983948282E+02  0.51100000000E-03 0. -1.
        -11    1    3    3    0    0  0.46465058976E+01  0.13104877007E+02 -0.49347112771E+01  0.14753955201E+02  0.51100000000E-03 0.  1.
         12    1    3    3    0    0  0.12337956329E+02  0.18608101182E+02  0.10242464308E+02  0.24564093125E+02  0.00000000000E+00 0. -1.
</event>
<event>
 7    1  0.1096439E-011  0.5930193E+02  0.7816164E-02  0.1266605E+00
        -11   -1    0    0    0    0  0.00000000000E+00  0.00000000000E+00  0.45593999997E+02  0.45594000000E+02  0.51100000000E-03 0.  1.
         11   -1    0    0    0    0 -0.00000000000E+00 -0.00000000000E+00 -0.45593999997E+02  0.45594000000E+02  0.51100000000E-03 0. -1.
    9900012    2    1    2    0    0  0.17532712808E+02 -0.18169874375E+02 -0.19472573569E+02  0.59301929771E+02  0.49999974000E+02 0.  0.
        -12    1    1    2    0    0 -0.17532712808E+02  0.18169874375E+02  0.19472573569E+02  0.31886070229E+02  0.00000000000E+00 0.  1.
         11    1    3    3    0    0  0.72028896947E+01 -0.24706415155E+02 -0.14661510045E+02  0.29618380219E+02  0.51100000000E-03 0. -1.
        -11    1    3    3    0    0 -0.43456703035E+01 -0.22628617407E+00  0.79703366675E+01  0.90808767569E+01  0.51100000000E-03 0.  1.
         12    1    3    3    0    0  0.14675493417E+02  0.67628269539E+01 -0.12781400192E+02  0.20602672795E+02  0.00000000000E+00 0. -1.
</event>
<event>
 7    1  0.1096439E-011  0.5930196E+02  0.7816164E-02  0.1266605E+00
        -11   -1    0    0    0    0  0.00000000000E+00  0.00000000000E+00  0.45593999997E+02  0.45594000000E+02  0.51100000000E-03 0.  1.
         11   -1    0    0    0    0 -0.00000000000E+00 -0.00000000000E+00 -0.45593999997E+02  0.45594000000E+02  0.51100000000E-03 0. -1.
    9900012    2    1    2    0    0  0.91812777231E+01 -0.35102200897E+01 -0.30333182295E+02  0.59301961459E+02  0.50000031791E+02 0.  0.
        -12    1    1    2    0    0 -0.91812777231E+01  0.35102200897E+01  0.30333182295E+02  0.31886038541E+02  0.00000000000E+00 0.  1.
         11    1    3    3    0    0  0.14462595690E+01 -0.12503753863E+02 -0.22756333456E+02  0.26005504033E+02  0.51100000000E-03 0. -1.
        -11    1    3    3    0    0  0.18667107432E+02  0.79613496456E+01 -0.63178549278E+00  0.20303771601E+02  0.51100000000E-03 0.  1.
        -12    1    3    3    0    0 -0.10932089278E+02  0.10321841279E+01 -0.69450633459E+01  0.12992685825E+02  0.00000000000E+00 0.  1.
</event>
<event>
 7    1  0.1096439E-011  0.5930185E+02  0.7816164E-02  0.1266605E+00
        -11   -1    0    0    0    0  0.00000000000E+00  0.00000000000E+00  0.45593999997E+02  0.45594000000E+02  0.51100000000E-03 0. -1.
         11   -1    0    0    0    0 -0.00000000000E+00 -0.00000000000E+00 -0.45593999997E+02  0.45594000000E+02  0.51100000000E-03 0.  1.
    9900012    2    1    2    0    0 -0.10887703470E+02  0.28377630896E+02 -0.96381751472E+01  0.59301851874E+02  0.49999831934E+02 0.  0.
        -12    1    1    2    0    0  0.10887703470E+02 -0.28377630896E+02  0.96381751472E+01  0.31886148126E+02  0.00000000000E+00 0.  1.
         11    1    3    3    0    0  0.73526632886E+01 -0.94210670867E+00 -0.48246502161E+01  0.88445730510E+01  0.51100000000E-03 0. -1.
        -11    1    3    3    0    0 -0.28660616752E+02  0.27360264659E+02 -0.36772098741E+01  0.39793679241E+02  0.51100000000E-03 0.  1.
        -12    1    3    3    0    0  0.10420249993E+02  0.19594729457E+01 -0.11363150571E+01  0.10663599582E+02  0.00000000000E+00 0.  1.
</event>
<event>
 7    1  0.1096439E-011  0.5930198E+02  0.7816164E-02  0.1266605E+00
        -11   -1    0    0    0    0  0.00000000000E+00  0.00000000000E+00  0.45593999997E+02  0.45594000000E+02  0.51100000000E-03 0.  1.
         11   -1    0    0    0    0 -0.00000000000E+00 -0.00000000000E+00 -0.45593999997E+02  0.45594000000E+02  0.51100000000E-03 0. -1.
    9900012    2    1    2    0    0 -0.41537830874E+01  0.16587550990E+02 -0.26913146907E+02  0.59301980521E+02  0.50000066556E+02 0.  0.
        -12    1    1    2    0    0  0.41537830874E+01 -0.16587550990E+02  0.26913146907E+02  0.31886019479E+02  0.00000000000E+00 0.  1.
         11    1    3    3    0    0 -0.47124730797E+01  0.16419740316E+02 -0.36371284497E+02  0.40183150832E+02  0.51100000000E-03 0. -1.
        -11    1    3    3    0    0  0.82353934791E+01 -0.14653128882E+01  0.27828212074E+01  0.88154944132E+01  0.51100000000E-03 0.  1.
         12    1    3    3    0    0 -0.76767034868E+01  0.16331235625E+01  0.66753163833E+01  0.10303335276E+02  0.00000000000E+00 0. -1.
</event>
<event>
 7    1  0.1096439E-011  0.5930194E+02  0.7816164E-02  0.1266605E+00
        -11   -1    0    0    0    0  0.00000000000E+00  0.00000000000E+00  0.45593999997E+02  0.45594000000E+02  0.51100000000E-03 0.  1.
         11   -1    0    0    0    0 -0.00000000000E+00 -0.00000000000E+00 -0.45593999997E+02  0.45594000000E+02  0.51100000000E-03 0. -1.
    9900012    2    1    2    0    0  0.17321579011E+02 -0.88934810816E+01 -0.25250544718E+02  0.59301935431E+02  0.49999984321E+02 0.  0.
        -12    1    1    2    0    0 -0.17321579011E+02  0.88934810816E+01  0.25250544718E+02  0.31886064569E+02  0.00000000000E+00 0.  1.
         11    1    3    3    0    0  0.25590870632E+01  0.16112491681E+01 -0.11852301006E+02  0.12232010868E+02  0.51100000000E-03 0. -1.
        -11    1    3    3    0    0  0.19733628519E+02 -0.21130509800E+02  0.45647439798E+00  0.28915789944E+02  0.51100000000E-03 0.  1.
        -12    1    3    3    0    0 -0.49711365717E+01  0.10625779550E+02 -0.13854718109E+02  0.18154134619E+02  0.00000000000E+00 0.  1.
</event>
<event>
 7    1  0.1096439E-011  0.5930193E+02  0.7816164E-02  0.1266605E+00
        -11   -1    0    0    0    0  0.00000000000E+00  0.00000000000E+00  0.45593999997E+02  0.45594000000E+02  0.51100000000E-03 0.  1.
         11   -1    0    0    0    0 -0.00000000000E+00 -0.00000000000E+00 -0.45593999997E+02  0.45594000000E+02  0.51100000000E-03 0. -1.
    9900012    2    1    2    0    0 -0.72526683202E+01 -0.29984649267E+02  0.80647860317E+01  0.59301934656E+02  0.49999982908E+02 0.  0.
        -12    1    1    2    0    0  0.72526683202E+01  0.29984649267E+02 -0.80647860317E+01  0.31886065344E+02  0.00000000000E+00 0.  1.
         11    1    3    3    0    0 -0.91240814864E+01 -0.10224475275E+02 -0.57647712377E+01  0.14866786650E+02  0.51100000000E-03 0. -1.
        -11    1    3    3    0    0  0.13599548144E+02  0.38481658761E+01  0.11025664065E+02  0.17925438870E+02  0.51100000000E-03 0.  1.
        -12    1    3    3    0    0 -0.11728134978E+02 -0.23608339867E+02  0.28038932043E+01  0.26509709136E+02  0.00000000000E+00 0.  1.
</event>
<event>
 7    1  0.1096439E-011  0.5930195E+02  0.7816164E-02  0.1266605E+00
        -11   -1    0    0    0    0  0.00000000000E+00  0.00000000000E+00  0.45593999997E+02  0.45594000000E+02  0.51100000000E-03 0.  1.
         11   -1    0    0    0    0 -0.00000000000E+00 -0.00000000000E+00 -0.45593999997E+02  0.45594000000E+02  0.51100000000E-03 0. -1.
    9900012    2    1    2    0    0 -0.10547328631E+02  0.14385356435E+02 -0.26429828162E+02  0.59301946032E+02  0.50000003655E+02 0.  0.
        -12    1    1    2    0    0  0.10547328631E+02 -0.14385356435E+02  0.26429828162E+02  0.31886053968E+02  0.00000000000E+00 0.  1.
         11    1    3    3    0    0 -0.20456894526E+02  0.18979544031E+02 -0.12606631677E+01  0.27933794893E+02  0.51100000000E-03 0. -1.
        -11    1    3    3    0    0 -0.34537285141E+01 -0.40744629577E+01 -0.68208802195E+01  0.86633651818E+01  0.51100000000E-03 0.  1.
         12    1    3    3    0    0  0.13363294409E+02 -0.51972463839E+00 -0.18348284775E+02  0.22704785957E+02  0.00000000000E+00 0. -1.
</event>
<event>
 7    1  0.1096439E-011  0.5930200E+02  0.7816164E-02  0.1266605E+00
        -11   -1    0    0    0    0  0.00000000000E+00  0.00000000000E+00  0.45593999997E+02  0.45594000000E+02  0.51100000000E-03 0.  1.
         11   -1    0    0    0    0 -0.00000000000E+00 -0.00000000000E+00 -0.45593999997E+02  0.45594000000E+02  0.51100000000E-03 0. -1.
    9900012    2    1    2    0    0  0.21409230653E+01  0.83893588253E+01 -0.30687980579E+02  0.59301999230E+02  0.50000100676E+02 0.  0.
        -12    1    1    2    0    0 -0.21409230653E+01 -0.83893588253E+01  0.30687980579E+02  0.31886000770E+02  0.00000000000E+00 0.  1.
         11    1    3    3    0    0 -0.14561721022E+02  0.62357882089E+01 -0.28109465017E+01  0.16088200465E+02  0.51100000000E-03 0. -1.
        -11    1    3    3    0    0  0.23135573392E+02 -0.43743734736E+01 -0.22607971633E+02  0.32642154970E+02  0.51100000000E-03 0.  1.
        -12    1    3    3    0    0 -0.64329293055E+01  0.65279440900E+01 -0.52690624447E+01  0.10571643795E+02  0.00000000000E+00 0.  1.
</event>
<event>
 7    1  0.1096439E-011  0.5930194E+02  0.7816164E-02  0.1266605E+00
        -11   -1    0    0    0    0  0.00000000000E+00  0.00000000000E+00  0.45593999997E+02  0.45594000000E+02  0.51100000000E-03 0.  1.
         11   -1    0    0    0    0 -0.00000000000E+00 -0.00000000000E+00 -0.45593999997E+02  0.45594000000E+02  0.51100000000E-03 0. -1.
    9900012    2    1    2    0    0 -0.10297907250E+02  0.17720190803E+02 -0.24426804983E+02  0.59301939448E+02  0.49999991648E+02 0.  0.
        -12    1    1    2    0    0  0.10297907250E+02 -0.17720190803E+02  0.24426804983E+02  0.31886060552E+02  0.00000000000E+00 0.  1.
         11    1    3    3    0    0 -0.23311647961E+02  0.20917294402E+02 -0.95536632454E+01  0.32745054855E+02  0.51100000000E-03 0. -1.
        -11    1    3    3    0    0  0.59342895395E+01  0.23425819393E+01  0.26139157921E+01  0.68946383886E+01  0.51100000000E-03 0.  1.
         12    1    3    3    0    0  0.70794511716E+01 -0.55396855383E+01 -0.17487057530E+02  0.19662246204E+02  0.00000000000E+00 0. -1.
</event>
<event>
 7    1  0.1096439E-011  0.5930196E+02  0.7816164E-02  0.1266605E+00
        -11   -1    0    0    0    0  0.00000000000E+00  0.00000000000E+00  0.45593999997E+02  0.45594000000E+02  0.51100000000E-03 0.  1.
         11   -1    0    0    0    0 -0.00000000000E+00 -0.00000000000E+00 -0.45593999997E+02  0.45594000000E+02  0.51100000000E-03 0. -1.
    9900012    2    1    2    0    0  0.10191690358E+02  0.25978125802E+02 -0.15426803854E+02  0.59301955251E+02  0.50000020469E+02 0.  0.
        -12    1    1    2    0    0 -0.10191690358E+02 -0.25978125802E+02  0.15426803854E+02  0.31886044749E+02  0.00000000000E+00 0.  1.
         11    1    3    3    0    0  0.18693576596E+01  0.32498117093E+01 -0.16441560297E+02  0.16863590349E+02  0.51100000000E-03 0. -1.
        -11    1    3    3    0    0  0.21249711625E+01  0.14668601297E+02  0.17584715946E+02  0.22997947770E+02  0.51100000000E-03 0.  1.
        -12    1    3    3    0    0  0.61973615362E+01  0.80597127958E+01 -0.16569959503E+02  0.19440417133E+02  0.00000000000E+00 0.  1.
</event>
<event>
 7    1  0.1096439E-011  0.5930201E+02  0.7816164E-02  0.1266605E+00
        -11   -1    0    0    0    0  0.00000000000E+00  0.00000000000E+00  0.45593999997E+02  0.45594000000E+02  0.51100000000E-03 0. -1.
         11   -1    0    0    0    0 -0.00000000000E+00 -0.00000000000E+00 -0.45593999997E+02  0.45594000000E+02  0.51100000000E-03 0.  1.
    9900012    2    1    2    0    0 -0.23118520946E+02  0.16485981597E+02  0.14507345124E+02  0.59302005230E+02  0.50000111617E+02 0.  0.
        -12    1    1    2    0    0  0.23118520946E+02 -0.16485981597E+02 -0.14507345124E+02  0.31885994770E+02  0.00000000000E+00 0.  1.
         11    1    3    3    0    0 -0.39120292683E+01 -0.86286932647E+01  0.45563954769E+01  0.10512804595E+02  0.51100000000E-03 0. -1.
        -11    1    3    3    0    0 -0.16903560519E+02  0.13879678449E+02 -0.11316933545E+02  0.24626181539E+02  0.51100000000E-03 0.  1.
        -12    1    3    3    0    0 -0.23029311591E+01  0.11234996412E+02  0.21267883193E+02  0.24163019095E+02  0.00000000000E+00 0.  1.
</event>
<event>
 7    1  0.1096439E-011  0.5930192E+02  0.7816164E-02  0.1266605E+00
        -11   -1    0    0    0    0  0.00000000000E+00  0.00000000000E+00  0.45593999997E+02  0.45594000000E+02  0.51100000000E-03 0.  1.
         11   -1    0    0    0    0 -0.00000000000E+00 -0.00000000000E+00 -0.45593999997E+02  0.45594000000E+02  0.51100000000E-03 0. -1.
    9900012    2    1    2    0    0  0.30730023401E+01 -0.48806617680E+01 -0.31360127679E+02  0.59301924501E+02  0.49999964389E+02 0.  0.
        -12    1    1    2    0    0 -0.30730023401E+01  0.48806617680E+01  0.31360127679E+02  0.31886075499E+02  0.00000000000E+00 0.  1.
         11    1    3    3    0    0 -0.13246602536E+02 -0.91592031032E+01 -0.97472333615E+01  0.18824771943E+02  0.51100000000E-03 0. -1.
        -11    1    3    3    0    0  0.22151952980E+02  0.11464214641E+02 -0.15047269190E+02  0.29130011131E+02  0.51100000000E-03 0.  1.
        -12    1    3    3    0    0 -0.58323481033E+01 -0.71856733061E+01 -0.65656251274E+01  0.11347141427E+02  0.00000000000E+00 0.  1.
</event>
<event>
 7    1  0.1096439E-011  0.5930194E+02  0.7816164E-02  0.1266605E+00
        -11   -1    0    0    0    0  0.00000000000E+00  0.00000000000E+00  0.45593999997E+02  0.45594000000E+02  0.51100000000E-03 0.  1.
         11   -1    0    0    0    0 -0.00000000000E+00 -0.00000000000E+00 -0.45593999997E+02  0.45594000000E+02  0.51100000000E-03 0. -1.
    9900012    2    1    2    0    0  0.19739275036E+02  0.92637864939E+01 -0.23265088252E+02  0.59301936421E+02  0.49999986128E+02 0.  0.
        -12    1    1    2    0    0 -0.19739275036E+02 -0.92637864939E+01  0.23265088252E+02  0.31886063579E+02  0.00000000000E+00 0.  1.
         11    1    3    3    0    0  0.16727083125E+02 -0.37482801989E+01 -0.32435451702E+02  0.36686556689E+02  0.51100000000E-03 0. -1.
        -11    1    3    3    0    0  0.61679524846E+01 -0.47305964804E+00  0.55251081066E+01  0.82942295081E+01  0.51100000000E-03 0.  1.
         12    1    3    3    0    0 -0.31557605735E+01  0.13485126341E+02  0.36452553431E+01  0.14321150224E+02  0.00000000000E+00 0. -1.
</event>
<event>
 7    1  0.1096439E-011  0.5930194E+02  0.7816164E-02  0.1266605E+00
        -11   -1    0    0    0    0  0.00000000000E+00  0.00000000000E+00  0.45593999997E+02  0.45594000000E+02  0.51100000000E-03 0.  1.
         11   -1    0    0    0    0 -0.00000000000E+00 -0.00000000000E+00 -0.45593999997E+02  0.45594000000E+02  0.51100000000E-03 0. -1.
    9900012    2    1    2    0    0 -0.24960658481E+01  0.31655978310E+02  0.28964408892E+01  0.59301942274E+02  0.49999996802E+02 0.  0.
        -12    1    1    2    0    0  0.24960658481E+01 -0.31655978310E+02 -0.28964408892E+01  0.31886057726E+02  0.00000000000E+00 0.  1.
         11    1    3    3    0    0 -0.16710265232E+01 -0.97187896862E+01  0.73905022107E+01  0.12323421838E+02  0.51100000000E-03 0. -1.
        -11    1    3    3    0    0 -0.21016235446E+01  0.42778413089E+02 -0.74430184625E+01  0.43471921651E+02  0.51100000000E-03 0.  1.
        -12    1    3    3    0    0  0.12765842196E+01 -0.14036450934E+01  0.29489571410E+01  0.35065987848E+01  0.00000000000E+00 0.  1.
</event>
<event>
 7    1  0.1096439E-011  0.5930192E+02  0.7816164E-02  0.1266605E+00
        -11   -1    0    0    0    0  0.00000000000E+00  0.00000000000E+00  0.45593999997E+02  0.45594000000E+02  0.51100000000E-03 0.  1.
         11   -1    0    0    0    0 -0.00000000000E+00 -0.00000000000E+00 -0.45593999997E+02  0.45594000000E+02  0.51100000000E-03 0. -1.
    9900012    2    1    2    0    0  0.21349946979E+02 -0.12352647290E+02 -0.20206775879E+02  0.59301922748E+02  0.49999961191E+02 0.  0.
        -12    1    1    2    0    0 -0.21349946979E+02  0.12352647290E+02  0.20206775879E+02  0.31886077252E+02  0.00000000000E+00 0.  1.
         11    1    3    3    0    0  0.10467233601E+02 -0.64540498813E+01 -0.27177601135E+02  0.29830181744E+02  0.51100000000E-03 0. -1.
        -11    1    3    3    0    0  0.43037390337E+01 -0.61086868923E+01  0.16371189069E+02  0.17995945571E+02  0.51100000000E-03 0.  1.
        -12    1    3    3    0    0  0.65789743448E+01  0.21008948382E+00 -0.94003638124E+01  0.11475795433E+02  0.00000000000E+00 0.  1.
</event>
<event>
 7    1  0.1096439E-011  0.5930223E+02  0.7816164E-02  0.1266604E+00
        -11   -1    0    0    0    0  0.00000000000E+00  0.00000000000E+00  0.45593999997E+02  0.45594000000E+02  0.51100000000E-03 0. -1.
         11   -1    0    0    0    0 -0.00000000000E+00 -0.00000000000E+00 -0.45593999997E+02  0.45594000000E+02  0.51100000000E-03 0.  1.
    9900012    2    1    2    0    0  0.79113710688E+01  0.19317057234E+02  0.24103186606E+02  0.59302233631E+02  0.50000528164E+02 0.  0.
        -12    1    1    2    0    0 -0.79113710688E+01 -0.19317057234E+02 -0.24103186606E+02  0.31885766369E+02  0.00000000000E+00 0.  1.
         11    1    3    3    0    0  0.19558461092E+02  0.68432371747E+01  0.30701559371E+02  0.37039830499E+02  0.51100000000E-03 0. -1.
        -11    1    3    3    0    0 -0.37982402237E-01 -0.16081948655E+01 -0.33624190165E+01  0.37274113392E+01  0.51100000000E-03 0.  1.
         12    1    3    3    0    0 -0.11609107621E+02  0.14082014925E+02 -0.32359537485E+01  0.18534991792E+02  0.00000000000E+00 0. -1.
</event>
<event>
 7    1  0.1096439E-011  0.5930186E+02  0.7816164E-02  0.1266605E+00
        -11   -1    0    0    0    0  0.00000000000E+00  0.00000000000E+00  0.45593999997E+02  0.45594000000E+02  0.51100000000E-03 0.  1.
         11   -1    0    0    0    0 -0.00000000000E+00 -0.00000000000E+00 -0.45593999997E+02  0.45594000000E+02  0.51100000000E-03 0. -1.
    9900012    2    1    2    0    0 -0.11273353441E+02  0.21402993540E+02 -0.20773762457E+02  0.59301861367E+02  0.49999849247E+02 0.  0.
        -12    1    1    2    0    0  0.11273353441E+02 -0.21402993540E+02  0.20773762457E+02  0.31886138633E+02  0.00000000000E+00 0.  1.
         11    1    3    3    0    0  0.14241459996E+02  0.11150568840E+02 -0.12210641269E+02  0.21823247438E+02  0.51100000000E-03 0. -1.
        -11    1    3    3    0    0 -0.18244529307E+02 -0.17384109115E+01 -0.13336184126E+02  0.22665805290E+02  0.51100000000E-03 0.  1.
        -12    1    3    3    0    0 -0.72702841300E+01  0.11990835611E+02  0.47730629378E+01  0.14812808640E+02  0.00000000000E+00 0.  1.
</event>
<event>
 7    1  0.1096439E-011  0.5930193E+02  0.7816164E-02  0.1266605E+00
        -11   -1    0    0    0    0  0.00000000000E+00  0.00000000000E+00  0.45593999997E+02  0.45594000000E+02  0.51100000000E-03 0.  1.
         11   -1    0    0    0    0 -0.00000000000E+00 -0.00000000000E+00 -0.45593999997E+02  0.45594000000E+02  0.51100000000E-03 0. -1.
    9900012    2    1    2    0    0 -0.13223497245E+02 -0.28849044517E+02 -0.30972848952E+01  0.59301930586E+02  0.49999975486E+02 0.  0.
        -12    1    1    2    0    0  0.13223497245E+02  0.28849044517E+02  0.30972848952E+01  0.31886069414E+02  0.00000000000E+00 0.  1.
         11    1    3    3    0    0  0.89161572770E+01 -0.25747208246E+02  0.11223568495E+02  0.29468374286E+02  0.51100000000E-03 0.  1.
        -11    1    3    3    0    0 -0.22494263284E+02 -0.55112860008E-01 -0.10206222011E+02  0.24701455142E+02  0.51100000000E-03 0. -1.
        -12    1    3    3    0    0  0.35460876171E+00 -0.30467234111E+01 -0.41146313785E+01  0.51321011582E+01  0.00000000000E+00 0.  1.
</event>
<event>
 7    1  0.1096439E-011  0.5930192E+02  0.7816164E-02  0.1266605E+00
        -11   -1    0    0    0    0  0.00000000000E+00  0.00000000000E+00  0.45593999997E+02  0.45594000000E+02  0.51100000000E-03 0. -1.
         11   -1    0    0    0    0 -0.00000000000E+00 -0.00000000000E+00 -0.45593999997E+02  0.45594000000E+02  0.51100000000E-03 0.  1.
    9900012    2    1    2    0    0  0.43927741994E+01 -0.31560913153E+02 -0.11552027432E+01  0.59301918434E+02  0.49999953324E+02 0.  0.
        -12    1    1    2    0    0 -0.43927741994E+01  0.31560913153E+02  0.11552027432E+01  0.31886081566E+02  0.00000000000E+00 0.  1.
         11    1    3    3    0    0  0.87824718524E+01 -0.32266667271E+02 -0.79987941987E+01  0.34383867402E+02  0.51100000000E-03 0. -1.
        -11    1    3    3    0    0 -0.66430435620E+01  0.43981636534E+01 -0.68814452862E+01  0.10527495466E+02  0.51100000000E-03 0.  1.
         12    1    3    3    0    0  0.22533459090E+01 -0.36924095353E+01  0.13725036742E+02  0.14390555567E+02  0.00000000000E+00 0. -1.
</event>
<event>
 7    1  0.1096439E-011  0.5930194E+02  0.7816164E-02  0.1266605E+00
        -11   -1    0    0    0    0  0.00000000000E+00  0.00000000000E+00  0.45593999997E+02  0.45594000000E+02  0.51100000000E-03 0. -1.
         11   -1    0    0    0    0 -0.00000000000E+00 -0.00000000000E+00 -0.45593999997E+02  0.45594000000E+02  0.51100000000E-03 0.  1.
    9900012    2    1    2    0    0 -0.29268041075E+01  0.31534008960E+02 -0.37095355963E+01  0.59301944150E+02  0.50000000222E+02 0.  0.
        -12    1    1    2    0    0  0.29268041075E+01 -0.31534008960E+02  0.37095355963E+01  0.31886055850E+02  0.00000000000E+00 0.  1.
         11    1    3    3    0    0 -0.54994795915E+01 -0.43859191894E+01  0.17320601099E+01  0.72443492046E+01  0.51100000000E-03 0. -1.
        -11    1    3    3    0    0 -0.28518863669E+01  0.25571998375E+02 -0.20570482010E+02  0.32942451140E+02  0.51100000000E-03 0.  1.
        -12    1    3    3    0    0  0.54245618508E+01  0.10347929774E+02  0.15128886304E+02  0.19115143805E+02  0.00000000000E+00 0.  1.
</event>
<event>
 7    1  0.1096439E-011  0.5930194E+02  0.7816164E-02  0.1266605E+00
        -11   -1    0    0    0    0  0.00000000000E+00  0.00000000000E+00  0.45593999997E+02  0.45594000000E+02  0.51100000000E-03 0.  1.
         11   -1    0    0    0    0 -0.00000000000E+00 -0.00000000000E+00 -0.45593999997E+02  0.45594000000E+02  0.51100000000E-03 0. -1.
    9900012    2    1    2    0    0 -0.15193611257E+02 -0.22884351315E+02 -0.16192014182E+02  0.59301942210E+02  0.49999996684E+02 0.  0.
        -12    1    1    2    0    0  0.15193611257E+02  0.22884351315E+02  0.16192014182E+02  0.31886057790E+02  0.00000000000E+00 0.  1.
         11    1    3    3    0    0 -0.35132322333E+01 -0.27537835007E+02 -0.21856061614E+02  0.35332174956E+02  0.51100000000E-03 0. -1.
        -11    1    3    3    0    0  0.13233623529E+01  0.92633947000E+01  0.35687747717E+01  0.10014885068E+02  0.51100000000E-03 0.  1.
         12    1    3    3    0    0 -0.13003741377E+02 -0.46099110078E+01  0.20952726603E+01  0.13954882186E+02  0.00000000000E+00 0. -1.
</event>
<event>
 7    1  0.1096439E-011  0.5930208E+02  0.7816164E-02  0.1266604E+00
        -11   -1    0    0    0    0  0.00000000000E+00  0.00000000000E+00  0.45593999997E+02  0.45594000000E+02  0.51100000000E-03 0. -1.
         11   -1    0    0    0    0 -0.00000000000E+00 -0.00000000000E+00 -0.45593999997E+02  0.45594000000E+02  0.51100000000E-03 0.  1.
    9900012    2    1    2    0    0 -0.20142544413E+02 -0.19217649162E+02  0.15545786718E+02  0.59302084310E+02  0.50000255840E+02 0.  0.
        -12    1    1    2    0    0  0.20142544413E+02  0.19217649162E+02 -0.15545786718E+02  0.31885915690E+02  0.00000000000E+00 0.  1.
         11    1    3    3    0    0  0.10177486594E+02 -0.18815718479E+02  0.14503455421E+02  0.25844974651E+02  0.51100000000E-03 0. -1.
        -11    1    3    3    0    0 -0.15829295190E+02  0.25670118336E+01 -0.59391154876E+01  0.17100562242E+02  0.51100000000E-03 0.  1.
         12    1    3    3    0    0 -0.14490735818E+02 -0.29689425161E+01  0.69814467843E+01  0.16356547417E+02  0.00000000000E+00 0. -1.
</event>
<event>
 7    1  0.1096439E-011  0.5930204E+02  0.7816164E-02  0.1266604E+00
        -11   -1    0    0    0    0  0.00000000000E+00  0.00000000000E+00  0.45593999997E+02  0.45594000000E+02  0.51100000000E-03 0. -1.
         11   -1    0    0    0    0 -0.00000000000E+00 -0.00000000000E+00 -0.45593999997E+02  0.45594000000E+02  0.51100000000E-03 0.  1.
    9900012    2    1    2    0    0  0.14254139628E+02 -0.13327655641E+01  0.28491365980E+02  0.59302036066E+02  0.50000167855E+02 0.  0.
        -12    1    1    2    0    0 -0.14254139628E+02  0.13327655641E+01 -0.28491365980E+02  0.31885963934E+02  0.00000000000E+00 0.  1.
         11    1    3    3    0    0 -0.25412033121E+01 -0.16954783837E+01  0.64976881398E+01  0.71799939169E+01  0.51100000000E-03 0. -1.
        -11    1    3    3    0    0  0.81822101684E+01  0.21969459272E+02  0.70723542970E+01  0.24487219105E+02  0.51100000000E-03 0.  1.
        -12    1    3    3    0    0  0.86131327719E+01 -0.21606746452E+02  0.14921323543E+02  0.27634823044E+02  0.00000000000E+00 0.  1.
</event>
<event>
 7    1  0.1096439E-011  0.5930195E+02  0.7816164E-02  0.1266605E+00
        -11   -1    0    0    0    0  0.00000000000E+00  0.00000000000E+00  0.45593999997E+02  0.45594000000E+02  0.51100000000E-03 0.  1.
         11   -1    0    0    0    0 -0.00000000000E+00 -0.00000000000E+00 -0.45593999997E+02  0.45594000000E+02  0.51100000000E-03 0. -1.
    9900012    2    1    2    0    0 -0.18312671459E+02  0.26054886435E+02  0.15840915745E+01  0.59301946791E+02  0.50000005040E+02 0.  0.
        -12    1    1    2    0    0  0.18312671459E+02 -0.26054886435E+02 -0.15840915745E+01  0.31886053209E+02  0.00000000000E+00 0.  1.
         11    1    3    3    0    0 -0.17359811436E+00  0.36851366567E+01 -0.55191922026E+01  0.66386633680E+01  0.51100000000E-03 0. -1.
        -11    1    3    3    0    0 -0.31416383592E+02  0.22895566458E+02  0.46537821350E+01  0.39151676973E+02  0.51100000000E-03 0.  1.
        -12    1    3    3    0    0  0.13277310247E+02 -0.52581667928E+00  0.24495016421E+01  0.13511606450E+02  0.00000000000E+00 0.  1.
</event>
<event>
 7    1  0.1096439E-011  0.5930196E+02  0.7816164E-02  0.1266605E+00
        -11   -1    0    0    0    0  0.00000000000E+00  0.00000000000E+00  0.45593999997E+02  0.45594000000E+02  0.51100000000E-03 0. -1.
         11   -1    0    0    0    0 -0.00000000000E+00 -0.00000000000E+00 -0.45593999997E+02  0.45594000000E+02  0.51100000000E-03 0.  1.
    9900012    2    1    2    0    0  0.17436709823E+02 -0.52974826647E+00  0.26690822378E+02  0.59301961019E+02  0.50000030989E+02 0.  0.
        -12    1    1    2    0    0 -0.17436709823E+02  0.52974826647E+00 -0.26690822378E+02  0.31886038981E+02  0.00000000000E+00 0.  1.
         11    1    3    3    0    0 -0.43008043300E+01 -0.19467157381E+02  0.30604767842E+01  0.20170117818E+02  0.51100000000E-03 0. -1.
        -11    1    3    3    0    0  0.12412897399E+02  0.17733559443E+02  0.14709309753E+02  0.26171032575E+02  0.51100000000E-03 0.  1.
         12    1    3    3    0    0  0.93246167538E+01  0.12038496720E+01  0.89210358402E+01  0.12960810627E+02  0.00000000000E+00 0. -1.
</event>
<event>
 7    1  0.1096439E-011  0.5930193E+02  0.7816164E-02  0.1266605E+00
        -11   -1    0    0    0    0  0.00000000000E+00  0.00000000000E+00  0.45593999997E+02  0.45594000000E+02  0.51100000000E-03 0.  1.
         11   -1    0    0    0    0 -0.00000000000E+00 -0.00000000000E+00 -0.45593999997E+02  0.45594000000E+02  0.51100000000E-03 0. -1.
    9900012    2    1    2    0    0 -0.30709432620E+02  0.42595658096E+01  0.74503686081E+01  0.59301934938E+02  0.49999983423E+02 0.  0.
        -12    1    1    2    0    0  0.30709432620E+02 -0.42595658096E+01 -0.74503686081E+01  0.31886065062E+02  0.00000000000E+00 0.  1.
         11    1    3    3    0    0 -0.17973952442E+02 -0.10543072303E+02 -0.12691188790E+02  0.24398475631E+02  0.51100000000E-03 0. -1.
        -11    1    3    3    0    0 -0.67554570325E+01  0.19520286524E+02  0.12661678014E+02  0.24227997773E+02  0.51100000000E-03 0.  1.
        -12    1    3    3    0    0 -0.59800231456E+01 -0.47176484118E+01  0.74798793841E+01  0.10675461534E+02  0.00000000000E+00 0.  1.
</event>
<event>
 7    1  0.1096439E-011  0.5930194E+02  0.7816164E-02  0.1266605E+00
        -11   -1    0    0    0    0  0.00000000000E+00  0.00000000000E+00  0.45593999997E+02  0.45594000000E+02  0.51100000000E-03 0.  1.
         11   -1    0    0    0    0 -0.00000000000E+00 -0.00000000000E+00 -0.45593999997E+02  0.45594000000E+02  0.51100000000E-03 0. -1.
    9900012    2    1    2    0    0  0.84241339595E+01  0.22660833448E+02 -0.20790416252E+02  0.59301940139E+02  0.49999992908E+02 0.  0.
        -12    1    1    2    0    0 -0.84241339595E+01 -0.22660833448E+02  0.20790416252E+02  0.31886059861E+02  0.00000000000E+00 0.  1.
         11    1    3    3    0    0  0.20516390705E+02  0.65944646164E+01 -0.28072448364E+02  0.35390275621E+02  0.51100000000E-03 0. -1.
        -11    1    3    3    0    0 -0.40262624309E+00  0.59268642415E+01  0.59050470308E+01  0.83761213176E+01  0.51100000000E-03 0.  1.
         12    1    3    3    0    0 -0.11689630502E+02  0.10139504591E+02  0.13769850810E+01  0.15535543200E+02  0.00000000000E+00 0. -1.
</event>
<event>
 7    1  0.1096439E-011  0.5930194E+02  0.7816164E-02  0.1266605E+00
        -11   -1    0    0    0    0  0.00000000000E+00  0.00000000000E+00  0.45593999997E+02  0.45594000000E+02  0.51100000000E-03 0.  1.
         11   -1    0    0    0    0 -0.00000000000E+00 -0.00000000000E+00 -0.45593999997E+02  0.45594000000E+02  0.51100000000E-03 0. -1.
    9900012    2    1    2    0    0  0.25816732886E+02 -0.62033529872E+01 -0.17656037526E+02  0.59301938056E+02  0.49999989109E+02 0.  0.
        -12    1    1    2    0    0 -0.25816732886E+02  0.62033529872E+01  0.17656037526E+02  0.31886061944E+02  0.00000000000E+00 0.  1.
         11    1    3    3    0    0  0.67240793160E+01 -0.15727281420E+02 -0.51047501600E+01  0.17849904704E+02  0.51100000000E-03 0. -1.
        -11    1    3    3    0    0  0.72811978981E+01  0.21169285040E+02 -0.10540139926E+02  0.24743666297E+02  0.51100000000E-03 0.  1.
        -12    1    3    3    0    0  0.11811455672E+02 -0.11645356607E+02 -0.20111474407E+01  0.16708367054E+02  0.00000000000E+00 0.  1.
</event>
<event>
 7    1  0.1096439E-011  0.5930194E+02  0.7816164E-02  0.1266605E+00
        -11   -1    0    0    0    0  0.00000000000E+00  0.00000000000E+00  0.45593999997E+02  0.45594000000E+02  0.51100000000E-03 0.  1.
         11   -1    0    0    0    0 -0.00000000000E+00 -0.00000000000E+00 -0.45593999997E+02  0.45594000000E+02  0.51100000000E-03 0. -1.
    9900012    2    1    2    0    0  0.29989686643E+01  0.31733118022E+02 -0.85794395091E+00  0.59301942541E+02  0.49999997288E+02 0.  0.
        -12    1    1    2    0    0 -0.29989686643E+01 -0.31733118022E+02  0.85794395091E+00  0.31886057459E+02  0.00000000000E+00 0.  1.
         11    1    3    3    0    0 -0.20875191819E+01  0.27648949121E+02 -0.17881005788E+02  0.32993218880E+02  0.51100000000E-03 0. -1.
        -11    1    3    3    0    0 -0.51376010901E+01  0.73785451888E+01  0.10134702831E+02  0.13548065390E+02  0.51100000000E-03 0.  1.
         12    1    3    3    0    0  0.10224088936E+02 -0.32943762873E+01  0.68883590060E+01  0.12760658270E+02  0.00000000000E+00 0. -1.
</event>
<event>
 7    1  0.1096439E-011  0.5930196E+02  0.7816164E-02  0.1266605E+00
        -11   -1    0    0    0    0  0.00000000000E+00  0.00000000000E+00  0.45593999997E+02  0.45594000000E+02  0.51100000000E-03 0.  1.
         11   -1    0    0    0    0 -0.00000000000E+00 -0.00000000000E+00 -0.45593999997E+02  0.45594000000E+02  0.51100000000E-03 0. -1.
    9900012    2    1    2    0    0  0.13154266905E+02 -0.26537438249E+02 -0.11808850608E+02  0.59301963569E+02  0.50000035638E+02 0.  0.
        -12    1    1    2    0    0 -0.13154266905E+02  0.26537438249E+02  0.11808850608E+02  0.31886036431E+02  0.00000000000E+00 0.  1.
         11    1    3    3    0    0  0.33255723993E+01 -0.97193773548E+01 -0.25738693443E+02  0.27712922407E+02  0.51100000000E-03 0. -1.
        -11    1    3    3    0    0  0.93806580287E+01 -0.17782023513E+02  0.18242394043E+02  0.27147413246E+02  0.51100000000E-03 0.  1.
        -12    1    3    3    0    0  0.44803647663E+00  0.96396261914E+00 -0.43125512078E+01  0.44416279150E+01  0.00000000000E+00 0.  1.
</event>
<event>
 7    1  0.1096439E-011  0.5930195E+02  0.7816164E-02  0.1266605E+00
        -11   -1    0    0    0    0  0.00000000000E+00  0.00000000000E+00  0.45593999997E+02  0.45594000000E+02  0.51100000000E-03 0. -1.
         11   -1    0    0    0    0 -0.00000000000E+00 -0.00000000000E+00 -0.45593999997E+02  0.45594000000E+02  0.51100000000E-03 0.  1.
    9900012    2    1    2    0    0  0.18071555772E+02  0.50309530001E+01  0.25784272593E+02  0.59301947732E+02  0.50000006755E+02 0.  0.
        -12    1    1    2    0    0 -0.18071555772E+02 -0.50309530001E+01 -0.25784272593E+02  0.31886052268E+02  0.00000000000E+00 0.  1.
         11    1    3    3    0    0 -0.43617263117E+01  0.15094163478E+02  0.69445020841E+01  0.17178024828E+02  0.51100000000E-03 0. -1.
        -11    1    3    3    0    0  0.17777656816E+02 -0.31299289951E+01  0.25638135387E+02  0.31355310934E+02  0.51100000000E-03 0.  1.
        -12    1    3    3    0    0  0.46556252676E+01 -0.69332814831E+01 -0.67983648777E+01  0.10768611970E+02  0.00000000000E+00 0.  1.
</event>
<event>
 7    1  0.1096439E-011  0.5930195E+02  0.7816164E-02  0.1266605E+00
        -11   -1    0    0    0    0  0.00000000000E+00  0.00000000000E+00  0.45593999997E+02  0.45594000000E+02  0.51100000000E-03 0.  1.
         11   -1    0    0    0    0 -0.00000000000E+00 -0.00000000000E+00 -0.45593999997E+02  0.45594000000E+02  0.51100000000E-03 0. -1.
    9900012    2    1    2    0    0  0.24520409967E+02  0.15707812973E+01 -0.20322464289E+02  0.59301946409E+02  0.50000004342E+02 0.  0.
        -12    1    1    2    0    0 -0.24520409967E+02 -0.15707812973E+01  0.20322464289E+02  0.31886053591E+02  0.00000000000E+00 0.  1.
         11    1    3    3    0    0  0.26676058938E+01  0.62823757266E+01 -0.21434880661E+02  0.22495298957E+02  0.51100000000E-03 0. -1.
        -11    1    3    3    0    0  0.74762544158E+01 -0.15905063735E+02 -0.37036962348E+01  0.17960590150E+02  0.51100000000E-03 0.  1.
        -12    1    3    3    0    0  0.14376549658E+02  0.11193469305E+02  0.48161126065E+01  0.18846057301E+02  0.00000000000E+00 0.  1.
</event>
<event>
 7    1  0.1096439E-011  0.5930197E+02  0.7816164E-02  0.1266605E+00
        -11   -1    0    0    0    0  0.00000000000E+00  0.00000000000E+00  0.45593999997E+02  0.45594000000E+02  0.51100000000E-03 0. -1.
         11   -1    0    0    0    0 -0.00000000000E+00 -0.00000000000E+00 -0.45593999997E+02  0.45594000000E+02  0.51100000000E-03 0.  1.
    9900012    2    1    2    0    0 -0.20617176160E+02  0.83056124663E+01  0.22861923868E+02  0.59301973058E+02  0.50000052944E+02 0.  0.
        -12    1    1    2    0    0  0.20617176160E+02 -0.83056124663E+01 -0.22861923868E+02  0.31886026942E+02  0.00000000000E+00 0.  1.
         11    1    3    3    0    0 -0.16045268892E+01  0.43974318103E+01  0.35078691396E+01  0.58495349581E+01  0.51100000000E-03 0. -1.
        -11    1    3    3    0    0 -0.31494378178E+02 -0.67437064697E+01  0.71230761676E+01  0.32986537377E+02  0.51100000000E-03 0.  1.
        -12    1    3    3    0    0  0.12481728907E+02  0.10651887126E+02  0.12230978560E+02  0.20465900723E+02  0.00000000000E+00 0.  1.
</event>
<event>
 7    1  0.1096439E-011  0.5930194E+02  0.7816164E-02  0.1266605E+00
        -11   -1    0    0    0    0  0.00000000000E+00  0.00000000000E+00  0.45593999997E+02  0.45594000000E+02  0.51100000000E-03 0. -1.
         11   -1    0    0    0    0 -0.00000000000E+00 -0.00000000000E+00 -0.45593999997E+02  0.45594000000E+02  0.51100000000E-03 0.  1.
    9900012    2    1    2    0    0 -0.39084958080E+01  0.29824582829E+02  0.10580119405E+02  0.59301937103E+02  0.49999987371E+02 0.  0.
        -12    1    1    2    0    0  0.39084958080E+01 -0.29824582829E+02 -0.10580119405E+02  0.31886062897E+02  0.00000000000E+00 0.  1.
         11    1    3    3    0    0 -0.24989531429E+00 -0.66269314324E+01  0.52652997932E+01  0.84677063040E+01  0.51100000000E-03 0. -1.
        -11    1    3    3    0    0 -0.37096244366E+01  0.33125085443E+02 -0.10285595243E+02  0.34883034112E+02  0.51100000000E-03 0.  1.
        -12    1    3    3    0    0  0.51023942846E-01  0.33264288187E+01  0.15600414855E+02  0.15951196688E+02  0.00000000000E+00 0.  1.
</event>
<event>
 7    1  0.1096439E-011  0.5930194E+02  0.7816164E-02  0.1266605E+00
        -11   -1    0    0    0    0  0.00000000000E+00  0.00000000000E+00  0.45593999997E+02  0.45594000000E+02  0.51100000000E-03 0.  1.
         11   -1    0    0    0    0 -0.00000000000E+00 -0.00000000000E+00 -0.45593999997E+02  0.45594000000E+02  0.51100000000E-03 0. -1.
    9900012    2    1    2    0    0 -0.25134484324E+02  0.12910364309E+02 -0.14775010885E+02  0.59301941048E+02  0.49999994566E+02 0.  0.
        -12    1    1    2    0    0  0.25134484324E+02 -0.12910364309E+02  0.14775010885E+02  0.31886058952E+02  0.00000000000E+00 0.  1.
         11    1    3    3    0    0 -0.33705297520E+01 -0.77544674338E+01 -0.16299389956E+02  0.18361981081E+02  0.51100000000E-03 0. -1.
        -11    1    3    3    0    0  0.61258173919E+00  0.17747520571E+02  0.41067684819E+01  0.18226773999E+02  0.51100000000E-03 0.  1.
        -12    1    3    3    0    0 -0.22376536311E+02  0.29173111718E+01 -0.25823894104E+01  0.22713185969E+02  0.00000000000E+00 0.  1.
</event>
<event>
 7    1  0.1096439E-011  0.5930195E+02  0.7816164E-02  0.1266605E+00
        -11   -1    0    0    0    0  0.00000000000E+00  0.00000000000E+00  0.45593999997E+02  0.45594000000E+02  0.51100000000E-03 0. -1.
         11   -1    0    0    0    0 -0.00000000000E+00 -0.00000000000E+00 -0.45593999997E+02  0.45594000000E+02  0.51100000000E-03 0.  1.
    9900012    2    1    2    0    0 -0.29617718120E+02  0.71359424790E+01  0.94121755150E+01  0.59301953685E+02  0.50000017613E+02 0.  0.
        -12    1    1    2    0    0  0.29617718120E+02 -0.71359424790E+01 -0.94121755150E+01  0.31886046315E+02  0.00000000000E+00 0.  1.
         11    1    3    3    0    0 -0.77251540521E+01  0.11364408725E+02 -0.58694768835E+01  0.14942508154E+02  0.51100000000E-03 0. -1.
        -11    1    3    3    0    0 -0.20054734949E+02 -0.15854256429E+02  0.63894819432E+00  0.25572604401E+02  0.51100000000E-03 0.  1.
        -12    1    3    3    0    0 -0.18378291185E+01  0.11625790183E+02  0.14642704204E+02  0.18786841130E+02  0.00000000000E+00 0.  1.
</event>
<event>
 7    1  0.1096439E-011  0.5930194E+02  0.7816164E-02  0.1266605E+00
        -11   -1    0    0    0    0  0.00000000000E+00  0.00000000000E+00  0.45593999997E+02  0.45594000000E+02  0.51100000000E-03 0. -1.
         11   -1    0    0    0    0 -0.00000000000E+00 -0.00000000000E+00 -0.45593999997E+02  0.45594000000E+02  0.51100000000E-03 0.  1.
    9900012    2    1    2    0    0 -0.19677803444E+02  0.21543250319E+01  0.24997276216E+02  0.59301939050E+02  0.49999990922E+02 0.  0.
        -12    1    1    2    0    0  0.19677803444E+02 -0.21543250319E+01 -0.24997276216E+02  0.31886060950E+02  0.00000000000E+00 0.  1.
         11    1    3    3    0    0 -0.54582231615E+01 -0.77046991218E+01  0.34350298229E+02  0.35624395817E+02  0.51100000000E-03 0. -1.
        -11    1    3    3    0    0 -0.16300293394E+02  0.63100288367E+01 -0.86560483130E+01  0.19504953251E+02  0.51100000000E-03 0.  1.
         12    1    3    3    0    0  0.20807131123E+01  0.35489953170E+01 -0.69697370069E+00  0.41725899817E+01  0.00000000000E+00 0. -1.
</event>
<event>
 7    1  0.1096439E-011  0.5930209E+02  0.7816164E-02  0.1266604E+00
        -11   -1    0    0    0    0  0.00000000000E+00  0.00000000000E+00  0.45593999997E+02  0.45594000000E+02  0.51100000000E-03 0. -1.
         11   -1    0    0    0    0 -0.00000000000E+00 -0.00000000000E+00 -0.45593999997E+02  0.45594000000E+02  0.51100000000E-03 0.  1.
    9900012    2    1    2    0    0  0.10030645376E+02  0.28531368692E+02  0.10102399842E+02  0.59302088869E+02  0.50000264154E+02 0.  0.
        -12    1    1    2    0    0 -0.10030645376E+02 -0.28531368692E+02 -0.10102399842E+02  0.31885911131E+02  0.00000000000E+00 0.  1.
         11    1    3    3    0    0  0.61595047119E+01  0.23363062877E+02  0.99274532975E+01  0.26121380793E+02  0.51100000000E-03 0. -1.
        -11    1    3    3    0    0  0.36671384098E+01  0.48801767342E+00 -0.15958071914E+02  0.16381273603E+02  0.51100000000E-03 0.  1.
        -12    1    3    3    0    0  0.20400225477E+00  0.46802881416E+01  0.16133018458E+02  0.16799434472E+02  0.00000000000E+00 0.  1.
</event>
<event>
 7    1  0.1096439E-011  0.5930192E+02  0.7816164E-02  0.1266605E+00
        -11   -1    0    0    0    0  0.00000000000E+00  0.00000000000E+00  0.45593999997E+02  0.45594000000E+02  0.51100000000E-03 0. -1.
         11   -1    0    0    0    0 -0.00000000000E+00 -0.00000000000E+00 -0.45593999997E+02  0.45594000000E+02  0.51100000000E-03 0.  1.
    9900012    2    1    2    0    0  0.15475352694E+02  0.13764511710E+02  0.24244048667E+02  0.59301918093E+02  0.49999952701E+02 0.  0.
        -12    1    1    2    0    0 -0.15475352694E+02 -0.13764511710E+02 -0.24244048667E+02  0.31886081907E+02  0.00000000000E+00 0.  1.
         11    1    3    3    0    0  0.46916440282E+01 -0.60348014726E+00  0.16564989030E+02  0.17227146421E+02  0.51100000000E-03 0. -1.
        -11    1    3    3    0    0  0.98236250880E+01 -0.10538367174E+02 -0.33933730797E+01  0.14801208521E+02  0.51100000000E-03 0.  1.
        -12    1    3    3    0    0  0.96008357757E+00  0.24906359032E+02  0.11072432717E+02  0.27273563151E+02  0.00000000000E+00 0.  1.
</event>
<event>
 7    1  0.1096439E-011  0.5930193E+02  0.7816164E-02  0.1266605E+00
        -11   -1    0    0    0    0  0.00000000000E+00  0.00000000000E+00  0.45593999997E+02  0.45594000000E+02  0.51100000000E-03 0.  1.
         11   -1    0    0    0    0 -0.00000000000E+00 -0.00000000000E+00 -0.45593999997E+02  0.45594000000E+02  0.51100000000E-03 0. -1.
    9900012    2    1    2    0    0 -0.21871575513E+02 -0.23016427257E+02 -0.29324841760E+01  0.59301934038E+02  0.49999981781E+02 0.  0.
        -12    1    1    2    0    0  0.21871575513E+02  0.23016427257E+02  0.29324841760E+01  0.31886065962E+02  0.00000000000E+00 0.  1.
         11    1    3    3    0    0 -0.34553851194E+02 -0.27156052434E+02 -0.83530604817E+01  0.44734700578E+02  0.51100000000E-03 0. -1.
        -11    1    3    3    0    0  0.66945895996E+01  0.21989116670E+01  0.16752408442E+01  0.72428706031E+01  0.51100000000E-03 0.  1.
         12    1    3    3    0    0  0.59876860813E+01  0.19407135101E+01  0.37453354614E+01  0.73243628565E+01  0.00000000000E+00 0. -1.
</event>
<event>
 7    1  0.1096439E-011  0.5930195E+02  0.7816164E-02  0.1266605E+00
        -11   -1    0    0    0    0  0.00000000000E+00  0.00000000000E+00  0.45593999997E+02  0.45594000000E+02  0.51100000000E-03 0. -1.
         11   -1    0    0    0    0 -0.00000000000E+00 -0.00000000000E+00 -0.45593999997E+02  0.45594000000E+02  0.51100000000E-03 0.  1.
    9900012    2    1    2    0    0  0.56441341501E+01  0.21042871852E+02  0.23282214036E+02  0.59301949813E+02  0.50000010551E+02 0.  0.
        -12    1    1    2    0    0 -0.56441341501E+01 -0.21042871852E+02 -0.23282214036E+02  0.31886050187E+02  0.00000000000E+00 0.  1.
         11    1    3    3    0    0  0.22906800096E+01  0.18524224709E+02  0.25502561284E+02  0.31603397734E+02  0.51100000000E-03 0. -1.
        -11    1    3    3    0    0 -0.37696365001E+01  0.12777838235E+02 -0.60547479173E+01  0.14633635294E+02  0.51100000000E-03 0.  1.
         12    1    3    3    0    0  0.71230906406E+01 -0.10259191092E+02  0.38344006692E+01  0.13064916786E+02  0.00000000000E+00 0. -1.
</event>
<event>
 7    1  0.1096439E-011  0.5930194E+02  0.7816164E-02  0.1266605E+00
        -11   -1    0    0    0    0  0.00000000000E+00  0.00000000000E+00  0.45593999997E+02  0.45594000000E+02  0.51100000000E-03 0.  1.
         11   -1    0    0    0    0 -0.00000000000E+00 -0.00000000000E+00 -0.45593999997E+02  0.45594000000E+02  0.51100000000E-03 0. -1.
    9900012    2    1    2    0    0  0.19938556742E+01  0.29288884160E+02 -0.12446159365E+02  0.59301935980E+02  0.49999985322E+02 0.  0.
        -12    1    1    2    0    0 -0.19938556742E+01 -0.29288884160E+02  0.12446159365E+02  0.31886064020E+02  0.00000000000E+00 0.  1.
         11    1    3    3    0    0  0.55313356758E+01  0.23760681729E+02  0.82063290697E+00  0.24409815838E+02  0.51100000000E-03 0. -1.
        -11    1    3    3    0    0  0.58038940069E+01 -0.51454161788E+01 -0.18272606246E+02  0.19850658241E+02  0.51100000000E-03 0.  1.
        -12    1    3    3    0    0 -0.93413740085E+01  0.10673618609E+02  0.50058139745E+01  0.15041461901E+02  0.00000000000E+00 0.  1.
</event>
<event>
 7    1  0.1096439E-011  0.5930158E+02  0.7816164E-02  0.1266606E+00
        -11   -1    0    0    0    0  0.00000000000E+00  0.00000000000E+00  0.45593999997E+02  0.45594000000E+02  0.51100000000E-03 0. -1.
         11   -1    0    0    0    0 -0.00000000000E+00 -0.00000000000E+00 -0.45593999997E+02  0.45594000000E+02  0.51100000000E-03 0.  1.
    9900012    2    1    2    0    0 -0.13239849491E+02  0.20201346667E+02  0.20817195960E+02  0.59301581742E+02  0.49999339273E+02 0.  0.
        -12    1    1    2    0    0  0.13239849491E+02 -0.20201346667E+02 -0.20817195960E+02  0.31886418258E+02  0.00000000000E+00 0.  1.
         11    1    3    3    0    0 -0.70682534604E+01  0.53554149705E-01 -0.26118583202E+01  0.75355742431E+01  0.51100000000E-03 0. -1.
        -11    1    3    3    0    0 -0.38558305724E+00  0.32043557276E+02  0.21007840408E+02  0.38317980062E+02  0.51100000000E-03 0.  1.
        -12    1    3    3    0    0 -0.57860129734E+01 -0.11895764759E+02  0.24212138719E+01  0.13448027436E+02  0.00000000000E+00 0.  1.
</event>
<event>
 7    1  0.1096439E-011  0.5930189E+02  0.7816164E-02  0.1266605E+00
        -11   -1    0    0    0    0  0.00000000000E+00  0.00000000000E+00  0.45593999997E+02  0.45594000000E+02  0.51100000000E-03 0. -1.
         11   -1    0    0    0    0 -0.00000000000E+00 -0.00000000000E+00 -0.45593999997E+02  0.45594000000E+02  0.51100000000E-03 0.  1.
    9900012    2    1    2    0    0  0.44876009774E+01 -0.86801040193E+01  0.30351951412E+02  0.59301894517E+02  0.49999909705E+02 0.  0.
        -12    1    1    2    0    0 -0.44876009774E+01  0.86801040193E+01 -0.30351951412E+02  0.31886105483E+02  0.00000000000E+00 0.  1.
         11    1    3    3    0    0 -0.47646353800E+01 -0.17077710951E+02  0.18090294159E+02  0.25329996144E+02  0.51100000000E-03 0. -1.
        -11    1    3    3    0    0  0.96951509843E+01 -0.25629864061E+01 -0.67037835144E+01  0.12062568781E+02  0.51100000000E-03 0.  1.
         12    1    3    3    0    0 -0.44291462681E+00  0.10960593338E+02  0.18965440768E+02  0.21909329592E+02  0.00000000000E+00 0. -1.
</event>
<event>
 7    1  0.1096439E-011  0.5930203E+02  0.7816164E-02  0.1266604E+00
        -11   -1    0    0    0    0  0.00000000000E+00  0.00000000000E+00  0.45593999997E+02  0.45594000000E+02  0.51100000000E-03 0. -1.
         11   -1    0    0    0    0 -0.00000000000E+00 -0.00000000000E+00 -0.45593999997E+02  0.45594000000E+02  0.51100000000E-03 0.  1.
    9900012    2    1    2    0    0 -0.43910622177E+00 -0.15315125294E+02  0.27963707928E+02  0.59302033838E+02  0.50000163792E+02 0.  0.
        -12    1    1    2    0    0  0.43910622177E+00  0.15315125294E+02 -0.27963707928E+02  0.31885966162E+02  0.00000000000E+00 0.  1.
         11    1    3    3    0    0 -0.20939400623E+02 -0.24839753950E+01  0.20891598917E+02  0.29683118734E+02  0.51100000000E-03 0. -1.
        -11    1    3    3    0    0  0.94778572523E+01 -0.22094796525E+01 -0.42095592074E+01  0.10603394146E+02  0.51100000000E-03 0.  1.
         12    1    3    3    0    0  0.11022437149E+02 -0.10621670246E+02  0.11281668218E+02  0.19015520958E+02  0.00000000000E+00 0. -1.
</event>
<event>
 7    1  0.1096439E-011  0.5930192E+02  0.7816164E-02  0.1266605E+00
        -11   -1    0    0    0    0  0.00000000000E+00  0.00000000000E+00  0.45593999997E+02  0.45594000000E+02  0.51100000000E-03 0.  1.
         11   -1    0    0    0    0 -0.00000000000E+00 -0.00000000000E+00 -0.45593999997E+02  0.45594000000E+02  0.51100000000E-03 0. -1.
    9900012    2    1    2    0    0 -0.17906257897E+02  0.25846287844E+02 -0.52968976035E+01  0.59301924804E+02  0.49999964940E+02 0.  0.
        -12    1    1    2    0    0  0.17906257897E+02 -0.25846287844E+02  0.52968976035E+01  0.31886075196E+02  0.00000000000E+00 0.  1.
         11    1    3    3    0    0 -0.14577688417E+02 -0.55848235524E+01 -0.81189126032E+01  0.17595908497E+02  0.51100000000E-03 0. -1.
        -11    1    3    3    0    0  0.12661987295E+00  0.35836055219E+02  0.37473678881E+01  0.36031675684E+02  0.51100000000E-03 0.  1.
        -12    1    3    3    0    0 -0.34551893520E+01 -0.44049438224E+01 -0.92535288828E+00  0.56743406229E+01  0.00000000000E+00 0.  1.
</event>
<event>
 7    1  0.1096439E-011  0.5930195E+02  0.7816164E-02  0.1266605E+00
        -11   -1    0    0    0    0  0.00000000000E+00  0.00000000000E+00  0.45593999997E+02  0.45594000000E+02  0.51100000000E-03 0. -1.
         11   -1    0    0    0    0 -0.00000000000E+00 -0.00000000000E+00 -0.45593999997E+02  0.45594000000E+02  0.51100000000E-03 0.  1.
    9900012    2    1    2    0    0  0.10226646827E+02  0.29680234190E+02 -0.55874743801E+01  0.59301945417E+02  0.50000002534E+02 0.  0.
        -12    1    1    2    0    0 -0.10226646827E+02 -0.29680234190E+02  0.55874743801E+01  0.31886054583E+02  0.00000000000E+00 0.  1.
         11    1    3    3    0    0  0.30951868135E+01  0.40678706983E+00  0.12197115968E+02  0.12590285752E+02  0.51100000000E-03 0. -1.
        -11    1    3    3    0    0  0.16357924750E+02  0.27232577225E+02 -0.19256154036E+02  0.37148276312E+02  0.51100000000E-03 0.  1.
        -12    1    3    3    0    0 -0.92264647367E+01  0.20408698949E+01  0.14715636883E+01  0.95633833529E+01  0.00000000000E+00 0.  1.
</event>
<event>
 7    1  0.1096439E-011  0.5930166E+02  0.7816164E-02  0.1266606E+00
        -11   -1    0    0    0    0  0.00000000000E+00  0.00000000000E+00  0.45593999997E+02  0.45594000000E+02  0.51100000000E-03 0.  1.
         11   -1    0    0    0    0 -0.00000000000E+00 -0.00000000000E+00 -0.45593999997E+02  0.45594000000E+02  0.51100000000E-03 0. -1.
    9900012    2    1    2    0    0 -0.95024331210E+01  0.21970633804E+02 -0.21064985324E+02  0.59301661364E+02  0.49999484486E+02 0.  0.
        -12    1    1    2    0    0  0.95024331210E+01 -0.21970633804E+02  0.21064985324E+02  0.31886338636E+02  0.00000000000E+00 0.  1.
         11    1    3    3    0    0  0.10029659708E+02 -0.89337303512E+01 -0.14558539361E+02  0.19807995366E+02  0.51100000000E-03 0. -1.
        -11    1    3    3    0    0 -0.49594695487E+00  0.54354188706E+01  0.31005054429E+01  0.62771710143E+01  0.51100000000E-03 0.  1.
         12    1    3    3    0    0 -0.19036145874E+02  0.25468945284E+02 -0.96069514057E+01  0.33216494983E+02  0.00000000000E+00 0. -1.
</event>
<event>
 7    1  0.1096439E-011  0.5930194E+02  0.7816164E-02  0.1266605E+00
        -11   -1    0    0    0    0  0.00000000000E+00  0.00000000000E+00  0.45593999997E+02  0.45594000000E+02  0.51100000000E-03 0.  1.
         11   -1    0    0    0    0 -0.00000000000E+00 -0.00000000000E+00 -0.45593999997E+02  0.45594000000E+02  0.51100000000E-03 0. -1.
    9900012    2    1    2    0    0  0.12692635757E+01  0.27442300435E+02 -0.16187339573E+02  0.59301939634E+02  0.49999991987E+02 0.  0.
        -12    1    1    2    0    0 -0.12692635757E+01 -0.27442300435E+02  0.16187339573E+02  0.31886060366E+02  0.00000000000E+00 0.  1.
         11    1    3    3    0    0  0.15158533012E+02  0.23965377577E+02 -0.51548330596E+01  0.28821740919E+02  0.51100000000E-03 0. -1.
        -11    1    3    3    0    0 -0.46002718819E+01 -0.99126367981E+01 -0.23332655840E+00  0.10930567745E+02  0.51100000000E-03 0.  1.
         12    1    3    3    0    0 -0.92889975540E+01  0.13389559657E+02 -0.10799179955E+02  0.19549630970E+02  0.00000000000E+00 0. -1.
</event>
<event>
 7    1  0.1096439E-011  0.5930180E+02  0.7816164E-02  0.1266605E+00
        -11   -1    0    0    0    0  0.00000000000E+00  0.00000000000E+00  0.45593999997E+02  0.45594000000E+02  0.51100000000E-03 0.  1.
         11   -1    0    0    0    0 -0.00000000000E+00 -0.00000000000E+00 -0.45593999997E+02  0.45594000000E+02  0.51100000000E-03 0. -1.
    9900012    2    1    2    0    0  0.16336780454E+02  0.96002581404E+01  0.25645164396E+02  0.59301799084E+02  0.49999735656E+02 0.  0.
        -12    1    1    2    0    0 -0.16336780454E+02 -0.96002581404E+01 -0.25645164396E+02  0.31886200916E+02  0.00000000000E+00 0.  1.
         11    1    3    3    0    0  0.91997685240E+01 -0.46715811318E+01  0.32034682875E+02  0.33655316346E+02  0.51100000000E-03 0. -1.
        -11    1    3    3    0    0  0.12422699015E+02  0.44459214880E+01 -0.93555729624E+00  0.13227431210E+02  0.51100000000E-03 0.  1.
         12    1    3    3    0    0 -0.52856870856E+01  0.98259177842E+01 -0.54539611825E+01  0.12419051528E+02  0.00000000000E+00 0. -1.
</event>
<event>
 7    1  0.1096439E-011  0.5930193E+02  0.7816164E-02  0.1266605E+00
        -11   -1    0    0    0    0  0.00000000000E+00  0.00000000000E+00  0.45593999997E+02  0.45594000000E+02  0.51100000000E-03 0. -1.
         11   -1    0    0    0    0 -0.00000000000E+00 -0.00000000000E+00 -0.45593999997E+02  0.45594000000E+02  0.51100000000E-03 0.  1.
    9900012    2    1    2    0    0  0.30715484901E+02  0.58943252370E+01  0.62078264811E+01  0.59301934198E+02  0.49999982074E+02 0.  0.
        -12    1    1    2    0    0 -0.30715484901E+02 -0.58943252370E+01 -0.62078264811E+01  0.31886065802E+02  0.00000000000E+00 0.  1.
         11    1    3    3    0    0  0.29643601694E+02  0.14653348075E+02  0.76979043137E+00  0.33076522018E+02  0.51100000000E-03 0.  1.
        -11    1    3    3    0    0 -0.96435485469E+01 -0.15680632618E+01 -0.36630097800E+01  0.10434294029E+02  0.51100000000E-03 0. -1.
         12    1    3    3    0    0  0.10715431753E+02 -0.71909595764E+01  0.91010458297E+01  0.15791118152E+02  0.00000000000E+00 0. -1.
</event>
<event>
 7    1  0.1096439E-011  0.5930195E+02  0.7816164E-02  0.1266605E+00
        -11   -1    0    0    0    0  0.00000000000E+00  0.00000000000E+00  0.45593999997E+02  0.45594000000E+02  0.51100000000E-03 0.  1.
         11   -1    0    0    0    0 -0.00000000000E+00 -0.00000000000E+00 -0.45593999997E+02  0.45594000000E+02  0.51100000000E-03 0. -1.
    9900012    2    1    2    0    0 -0.39149223876E+01 -0.68417318184E+01 -0.30896345555E+02  0.59301951637E+02  0.50000013877E+02 0.  0.
        -12    1    1    2    0    0  0.39149223876E+01  0.68417318184E+01  0.30896345555E+02  0.31886048363E+02  0.00000000000E+00 0.  1.
         11    1    3    3    0    0 -0.29825573145E+01  0.19699519165E+02 -0.12062308206E+02  0.23290899145E+02  0.51100000000E-03 0. -1.
        -11    1    3    3    0    0  0.68781639272E+01 -0.14697769885E+02 -0.12452653966E+02  0.20454881316E+02  0.51100000000E-03 0.  1.
         12    1    3    3    0    0 -0.78105290002E+01 -0.11843481098E+02 -0.63813833820E+01  0.15556171176E+02  0.00000000000E+00 0. -1.
</event>
<event>
 7    1  0.1096439E-011  0.5930196E+02  0.7816164E-02  0.1266605E+00
        -11   -1    0    0    0    0  0.00000000000E+00  0.00000000000E+00  0.45593999997E+02  0.45594000000E+02  0.51100000000E-03 0. -1.
         11   -1    0    0    0    0 -0.00000000000E+00 -0.00000000000E+00 -0.45593999997E+02  0.45594000000E+02  0.51100000000E-03 0.  1.
    9900012    2    1    2    0    0  0.26806739645E+02 -0.62814229721E+01 -0.16082979663E+02  0.59301956034E+02  0.50000021896E+02 0.  0.
        -12    1    1    2    0    0 -0.26806739645E+02  0.62814229721E+01  0.16082979663E+02  0.31886043966E+02  0.00000000000E+00 0.  1.
         11    1    3    3    0    0  0.59455394791E+01 -0.29930576024E+01 -0.19828928891E+02  0.20916363324E+02  0.51100000000E-03 0.  1.
        -11    1    3    3    0    0  0.27807200868E+02 -0.64950304593E+01  0.79692501230E+01  0.29646834377E+02  0.51100000000E-03 0. -1.
        -12    1    3    3    0    0 -0.69460007014E+01  0.32066650896E+01 -0.42233008957E+01  0.87387583326E+01  0.00000000000E+00 0.  1.
</event>
<event>
 7    1  0.1096439E-011  0.5930194E+02  0.7816164E-02  0.1266605E+00
        -11   -1    0    0    0    0  0.00000000000E+00  0.00000000000E+00  0.45593999997E+02  0.45594000000E+02  0.51100000000E-03 0.  1.
         11   -1    0    0    0    0 -0.00000000000E+00 -0.00000000000E+00 -0.45593999997E+02  0.45594000000E+02  0.51100000000E-03 0. -1.
    9900012    2    1    2    0    0  0.14542397685E+02  0.25056710038E+02 -0.13319198183E+02  0.59301935825E+02  0.49999985040E+02 0.  0.
        -12    1    1    2    0    0 -0.14542397685E+02 -0.25056710038E+02  0.13319198183E+02  0.31886064175E+02  0.00000000000E+00 0.  1.
         11    1    3    3    0    0 -0.54345507889E+01 -0.60306859838E+00 -0.85530062318E+01  0.10151450629E+02  0.51100000000E-03 0. -1.
        -11    1    3    3    0    0  0.19641127766E+02  0.25020657346E+02  0.10781207863E+02  0.33586331106E+02  0.51100000000E-03 0.  1.
        -12    1    3    3    0    0  0.33582070788E+00  0.63912129116E+00 -0.15547399813E+02  0.15564154090E+02  0.00000000000E+00 0.  1.
</event>
<event>
 7    1  0.1096439E-011  0.5930194E+02  0.7816164E-02  0.1266605E+00
        -11   -1    0    0    0    0  0.00000000000E+00  0.00000000000E+00  0.45593999997E+02  0.45594000000E+02  0.51100000000E-03 0.  1.
         11   -1    0    0    0    0 -0.00000000000E+00 -0.00000000000E+00 -0.45593999997E+02  0.45594000000E+02  0.51100000000E-03 0. -1.
    9900012    2    1    2    0    0  0.77995841806E+01 -0.13519777123E+02 -0.27804731102E+02  0.59301937865E+02  0.49999988760E+02 0.  0.
        -12    1    1    2    0    0 -0.77995841806E+01  0.13519777123E+02  0.27804731102E+02  0.31886062135E+02  0.00000000000E+00 0.  1.
         11    1    3    3    0    0 -0.48518077068E+01 -0.13892360762E+02  0.58735474630E+01  0.15844124640E+02  0.51100000000E-03 0. -1.
        -11    1    3    3    0    0  0.33836709497E+01  0.11736179957E+02 -0.19822604775E+02  0.23283530862E+02  0.51100000000E-03 0.  1.
         12    1    3    3    0    0  0.92677209376E+01 -0.11363596318E+02 -0.13855673790E+02  0.20174282362E+02  0.00000000000E+00 0. -1.
</event>
<event>
 7    1  0.1096439E-011  0.5930195E+02  0.7816164E-02  0.1266605E+00
        -11   -1    0    0    0    0  0.00000000000E+00  0.00000000000E+00  0.45593999997E+02  0.45594000000E+02  0.51100000000E-03 0.  1.
         11   -1    0    0    0    0 -0.00000000000E+00 -0.00000000000E+00 -0.45593999997E+02  0.45594000000E+02  0.51100000000E-03 0. -1.
    9900012    2    1    2    0    0  0.24768972668E+02 -0.32045511522E+01 -0.19822938930E+02  0.59301951908E+02  0.50000014372E+02 0.  0.
        -12    1    1    2    0    0 -0.24768972668E+02  0.32045511522E+01  0.19822938930E+02  0.31886048092E+02  0.00000000000E+00 0.  1.
         11    1    3    3    0    0  0.25314879697E+02  0.14952064185E+02 -0.17682731267E+02  0.34308691942E+02  0.51100000000E-03 0. -1.
        -11    1    3    3    0    0  0.98844582565E+00 -0.30206114813E+01  0.66872968951E+01  0.74041244516E+01  0.51100000000E-03 0.  1.
         12    1    3    3    0    0 -0.15343528548E+01 -0.15136003856E+02 -0.88275045580E+01  0.17589135514E+02  0.00000000000E+00 0. -1.
</event>
<event>
 7    1  0.1096439E-011  0.5930193E+02  0.7816164E-02  0.1266605E+00
        -11   -1    0    0    0    0  0.00000000000E+00  0.00000000000E+00  0.45593999997E+02  0.45594000000E+02  0.51100000000E-03 0.  1.
         11   -1    0    0    0    0 -0.00000000000E+00 -0.00000000000E+00 -0.45593999997E+02  0.45594000000E+02  0.51100000000E-03 0. -1.
    9900012    2    1    2    0    0  0.26739511927E+02 -0.13369225170E+02 -0.11089801606E+02  0.59301931265E+02  0.49999976724E+02 0.  0.
        -12    1    1    2    0    0 -0.26739511927E+02  0.13369225170E+02  0.11089801606E+02  0.31886068735E+02  0.00000000000E+00 0.  1.
         11    1    3    3    0    0  0.11143237472E+02 -0.92250370836E+01  0.24717714645E+00  0.14468384407E+02  0.51100000000E-03 0. -1.
        -11    1    3    3    0    0 -0.26836799855E+01  0.15461023089E+02 -0.85858691072E+01  0.17887496242E+02  0.51100000000E-03 0.  1.
        -12    1    3    3    0    0  0.18279954441E+02 -0.19605211175E+02 -0.27511096452E+01  0.26946050617E+02  0.00000000000E+00 0.  1.
</event>
<event>
 7    1  0.1096439E-011  0.5930193E+02  0.7816164E-02  0.1266605E+00
        -11   -1    0    0    0    0  0.00000000000E+00  0.00000000000E+00  0.45593999997E+02  0.45594000000E+02  0.51100000000E-03 0. -1.
         11   -1    0    0    0    0 -0.00000000000E+00 -0.00000000000E+00 -0.45593999997E+02  0.45594000000E+02  0.51100000000E-03 0.  1.
    9900012    2    1    2    0    0 -0.26778870554E+02 -0.74234073230E+01  0.15636712618E+02  0.59301926772E+02  0.49999968529E+02 0.  0.
        -12    1    1    2    0    0  0.26778870554E+02  0.74234073230E+01 -0.15636712618E+02  0.31886073228E+02  0.00000000000E+00 0.  1.
         11    1    3    3    0    0 -0.19100111449E+02 -0.14846409268E+02  0.15123496058E+02  0.28529813508E+02  0.51100000000E-03 0. -1.
        -11    1    3    3    0    0 -0.13108752610E+02  0.44466477430E+01 -0.11012301151E+02  0.17688494793E+02  0.51100000000E-03 0.  1.
         12    1    3    3    0    0  0.54299935047E+01  0.29763542022E+01  0.11525517711E+02  0.13083618471E+02  0.00000000000E+00 0. -1.
</event>
<event>
 7    1  0.1096439E-011  0.5930195E+02  0.7816164E-02  0.1266605E+00
        -11   -1    0    0    0    0  0.00000000000E+00  0.00000000000E+00  0.45593999997E+02  0.45594000000E+02  0.51100000000E-03 0.  1.
         11   -1    0    0    0    0 -0.00000000000E+00 -0.00000000000E+00 -0.45593999997E+02  0.45594000000E+02  0.51100000000E-03 0. -1.
    9900012    2    1    2    0    0 -0.28360190513E+02 -0.11546618086E+02  0.88935461123E+01  0.59301953560E+02  0.50000017384E+02 0.  0.
        -12    1    1    2    0    0  0.28360190513E+02  0.11546618086E+02 -0.88935461123E+01  0.31886046440E+02  0.00000000000E+00 0.  1.
         11    1    3    3    0    0 -0.11963187996E+02  0.18428060957E+02 -0.37099098767E+01  0.22281712887E+02  0.51100000000E-03 0. -1.
        -11    1    3    3    0    0 -0.42440563007E+01 -0.11313759279E+02  0.73369518601E+01  0.14136620026E+02  0.51100000000E-03 0.  1.
         12    1    3    3    0    0 -0.12152946216E+02 -0.18660919764E+02  0.52665041289E+01  0.22883620647E+02  0.00000000000E+00 0. -1.
</event>
<event>
 7    1  0.1096439E-011  0.5930196E+02  0.7816164E-02  0.1266605E+00
        -11   -1    0    0    0    0  0.00000000000E+00  0.00000000000E+00  0.45593999997E+02  0.45594000000E+02  0.51100000000E-03 0.  1.
         11   -1    0    0    0    0 -0.00000000000E+00 -0.00000000000E+00 -0.45593999997E+02  0.45594000000E+02  0.51100000000E-03 0. -1.
    9900012    2    1    2    0    0 -0.24925136965E+02 -0.54396218625E+01 -0.19127666606E+02  0.59301959661E+02  0.50000028511E+02 0.  0.
        -12    1    1    2    0    0  0.24925136965E+02  0.54396218625E+01  0.19127666606E+02  0.31886040339E+02  0.00000000000E+00 0.  1.
         11    1    3    3    0    0 -0.28384846447E+02 -0.10683819926E+02 -0.43228873555E+01  0.30635451219E+02  0.51100000000E-03 0. -1.
        -11    1    3    3    0    0 -0.19368765854E+01  0.80795843421E+01 -0.19352714963E+02  0.21060834522E+02  0.51100000000E-03 0.  1.
        -12    1    3    3    0    0  0.53965860673E+01 -0.28353862781E+01  0.45479357131E+01  0.76056739201E+01  0.00000000000E+00 0.  1.
</event>
<event>
 7    1  0.1096439E-011  0.5930193E+02  0.7816164E-02  0.1266605E+00
        -11   -1    0    0    0    0  0.00000000000E+00  0.00000000000E+00  0.45593999997E+02  0.45594000000E+02  0.51100000000E-03 0.  1.
         11   -1    0    0    0    0 -0.00000000000E+00 -0.00000000000E+00 -0.45593999997E+02  0.45594000000E+02  0.51100000000E-03 0. -1.
    9900012    2    1    2    0    0 -0.25796027562E+02  0.10964660998E+02 -0.15200736164E+02  0.59301933941E+02  0.49999981605E+02 0.  0.
        -12    1    1    2    0    0  0.25796027562E+02 -0.10964660998E+02  0.15200736164E+02  0.31886066059E+02  0.00000000000E+00 0.  1.
         11    1    3    3    0    0 -0.20203263316E+02 -0.14751675416E+02  0.15300432657E+01  0.25062418256E+02  0.51100000000E-03 0. -1.
        -11    1    3    3    0    0  0.40923430467E+01  0.13221531369E+02 -0.99072501967E+01  0.17020862789E+02  0.51100000000E-03 0.  1.
         12    1    3    3    0    0 -0.96851072921E+01  0.12494805044E+02 -0.68235292332E+01  0.17218652896E+02  0.00000000000E+00 0. -1.
</event>
<event>
 7    1  0.1096439E-011  0.5930194E+02  0.7816164E-02  0.1266605E+00
        -11   -1    0    0    0    0  0.00000000000E+00  0.00000000000E+00  0.45593999997E+02  0.45594000000E+02  0.51100000000E-03 0. -1.
         11   -1    0    0    0    0 -0.00000000000E+00 -0.00000000000E+00 -0.45593999997E+02  0.45594000000E+02  0.51100000000E-03 0.  1.
    9900012    2    1    2    0    0  0.12731001841E+02 -0.28137150935E+02  0.79336532258E+01  0.59301944676E+02  0.50000001183E+02 0.  0.
        -12    1    1    2    0    0 -0.12731001841E+02  0.28137150935E+02 -0.79336532258E+01  0.31886055324E+02  0.00000000000E+00 0.  1.
         11    1    3    3    0    0 -0.60732682402E+00 -0.28269622691E+02  0.18986011907E+02  0.34058905757E+02  0.51100000000E-03 0. -1.
        -11    1    3    3    0    0  0.43845742702E+01 -0.49571029712E+01 -0.13160050687E+02  0.14730386816E+02  0.51100000000E-03 0.  1.
         12    1    3    3    0    0  0.89537543949E+01  0.50895747275E+01  0.21076920059E+01  0.10512652104E+02  0.00000000000E+00 0. -1.
</event>
<event>
 7    1  0.1096439E-011  0.5930194E+02  0.7816164E-02  0.1266605E+00
        -11   -1    0    0    0    0  0.00000000000E+00  0.00000000000E+00  0.45593999997E+02  0.45594000000E+02  0.51100000000E-03 0. -1.
         11   -1    0    0    0    0 -0.00000000000E+00 -0.00000000000E+00 -0.45593999997E+02  0.45594000000E+02  0.51100000000E-03 0.  1.
    9900012    2    1    2    0    0 -0.56491575011E+01  0.21614354736E+02  0.22751430276E+02  0.59301938927E+02  0.49999990697E+02 0.  0.
        -12    1    1    2    0    0  0.56491575011E+01 -0.21614354736E+02 -0.22751430276E+02  0.31886061073E+02  0.00000000000E+00 0.  1.
         11    1    3    3    0    0  0.47150684789E+01 -0.14104815893E+02 -0.66949906060E+00  0.14887106213E+02  0.51100000000E-03 0. -1.
        -11    1    3    3    0    0 -0.92141792709E+01  0.24962059719E+02  0.13985917496E+02  0.30060129965E+02  0.51100000000E-03 0.  1.
         12    1    3    3    0    0 -0.11500467091E+01  0.10757110911E+02  0.94350118407E+01  0.14354702749E+02  0.00000000000E+00 0. -1.
</event>
<event>
 7    1  0.1096439E-011  0.5930196E+02  0.7816164E-02  0.1266605E+00
        -11   -1    0    0    0    0  0.00000000000E+00  0.00000000000E+00  0.45593999997E+02  0.45594000000E+02  0.51100000000E-03 0.  1.
         11   -1    0    0    0    0 -0.00000000000E+00 -0.00000000000E+00 -0.45593999997E+02  0.45594000000E+02  0.51100000000E-03 0. -1.
    9900012    2    1    2    0    0 -0.88799156836E+01 -0.27747929482E+02 -0.12958349860E+02  0.59301963492E+02  0.50000035498E+02 0.  0.
        -12    1    1    2    0    0  0.88799156836E+01  0.27747929482E+02  0.12958349860E+02  0.31886036508E+02  0.00000000000E+00 0.  1.
         11    1    3    3    0    0 -0.61903208010E+01 -0.89926367408E+01 -0.22616469511E+02  0.25113587569E+02  0.51100000000E-03 0. -1.
        -11    1    3    3    0    0 -0.92458151916E+01 -0.15829915380E+02  0.16208313297E+02  0.24469996725E+02  0.51100000000E-03 0.  1.
         12    1    3    3    0    0  0.65562203089E+01 -0.29253773609E+01 -0.65501936460E+01  0.97183791983E+01  0.00000000000E+00 0. -1.
</event>
<event>
 7    1  0.1096439E-011  0.5930196E+02  0.7816164E-02  0.1266605E+00
        -11   -1    0    0    0    0  0.00000000000E+00  0.00000000000E+00  0.45593999997E+02  0.45594000000E+02  0.51100000000E-03 0. -1.
         11   -1    0    0    0    0 -0.00000000000E+00 -0.00000000000E+00 -0.45593999997E+02  0.45594000000E+02  0.51100000000E-03 0.  1.
    9900012    2    1    2    0    0 -0.12081960110E+02 -0.26451336561E+02  0.13079474286E+02  0.59301958954E+02  0.50000027222E+02 0.  0.
        -12    1    1    2    0    0  0.12081960110E+02  0.26451336561E+02 -0.13079474286E+02  0.31886041046E+02  0.00000000000E+00 0.  1.
         11    1    3    3    0    0  0.11673150571E+02 -0.16031773633E+02  0.20221123103E+02  0.28322676954E+02  0.51100000000E-03 0. -1.
        -11    1    3    3    0    0 -0.92623169614E+01 -0.53728617252E+01 -0.10794079088E+02  0.15204285654E+02  0.51100000000E-03 0.  1.
        -12    1    3    3    0    0 -0.14492793720E+02 -0.50467012030E+01  0.36524302715E+01  0.15774996346E+02  0.00000000000E+00 0.  1.
</event>
<event>
 7    1  0.1096439E-011  0.5930195E+02  0.7816164E-02  0.1266605E+00
        -11   -1    0    0    0    0  0.00000000000E+00  0.00000000000E+00  0.45593999997E+02  0.45594000000E+02  0.51100000000E-03 0.  1.
         11   -1    0    0    0    0 -0.00000000000E+00 -0.00000000000E+00 -0.45593999997E+02  0.45594000000E+02  0.51100000000E-03 0. -1.
    9900012    2    1    2    0    0 -0.11713574827E+02 -0.19067753539E+02 -0.22714156629E+02  0.59301953340E+02  0.50000016983E+02 0.  0.
        -12    1    1    2    0    0  0.11713574827E+02  0.19067753539E+02  0.22714156629E+02  0.31886046660E+02  0.00000000000E+00 0.  1.
         11    1    3    3    0    0  0.17104031098E+01 -0.22362615935E+02 -0.37184504373E+01  0.22734092113E+02  0.51100000000E-03 0. -1.
        -11    1    3    3    0    0 -0.78303641396E+00  0.11329404911E+02 -0.18344853577E+02  0.21575500335E+02  0.51100000000E-03 0.  1.
        -12    1    3    3    0    0 -0.12640941523E+02 -0.80345425146E+01 -0.65085261431E+00  0.14992360892E+02  0.00000000000E+00 0.  1.
</event>
<event>
 7    1  0.1096439E-011  0.5930188E+02  0.7816164E-02  0.1266605E+00
        -11   -1    0    0    0    0  0.00000000000E+00  0.00000000000E+00  0.45593999997E+02  0.45594000000E+02  0.51100000000E-03 0. -1.
         11   -1    0    0    0    0 -0.00000000000E+00 -0.00000000000E+00 -0.45593999997E+02  0.45594000000E+02  0.51100000000E-03 0.  1.
    9900012    2    1    2    0    0  0.16142575758E+02  0.11496873446E+02  0.24979272696E+02  0.59301875815E+02  0.49999875596E+02 0.  0.
        -12    1    1    2    0    0 -0.16142575758E+02 -0.11496873446E+02 -0.24979272696E+02  0.31886124185E+02  0.00000000000E+00 0.  1.
         11    1    3    3    0    0 -0.26877736685E+01 -0.76589789299E+01  0.18890522719E+02  0.20560543145E+02  0.51100000000E-03 0. -1.
        -11    1    3    3    0    0  0.40697011472E+01  0.22688371345E+02  0.44445903989E+01  0.23475072860E+02  0.51100000000E-03 0.  1.
         12    1    3    3    0    0  0.14760648279E+02 -0.35325189688E+01  0.16441595777E+01  0.15266259811E+02  0.00000000000E+00 0. -1.
</event>
<event>
 7    1  0.1096439E-011  0.5930195E+02  0.7816164E-02  0.1266605E+00
        -11   -1    0    0    0    0  0.00000000000E+00  0.00000000000E+00  0.45593999997E+02  0.45594000000E+02  0.51100000000E-03 0. -1.
         11   -1    0    0    0    0 -0.00000000000E+00 -0.00000000000E+00 -0.45593999997E+02  0.45594000000E+02  0.51100000000E-03 0.  1.
    9900012    2    1    2    0    0  0.25423849758E+00 -0.16047008769E+02  0.27552657608E+02  0.59301951814E+02  0.50000014200E+02 0.  0.
        -12    1    1    2    0    0 -0.25423849758E+00  0.16047008769E+02 -0.27552657608E+02  0.31886048186E+02  0.00000000000E+00 0.  1.
         11    1    3    3    0    0 -0.33477387764E+01 -0.24909876769E+02 -0.91886287950E-03  0.25133828134E+02  0.51100000000E-03 0. -1.
        -11    1    3    3    0    0 -0.16615476708E+01  0.60647556375E+01  0.32712702448E+00  0.62967462992E+01  0.51100000000E-03 0.  1.
         12    1    3    3    0    0  0.52635249448E+01  0.27981123625E+01  0.27226449446E+02  0.27871377381E+02  0.00000000000E+00 0. -1.
</event>
<event>
 7    1  0.1096439E-011  0.5930194E+02  0.7816164E-02  0.1266605E+00
        -11   -1    0    0    0    0  0.00000000000E+00  0.00000000000E+00  0.45593999997E+02  0.45594000000E+02  0.51100000000E-03 0.  1.
         11   -1    0    0    0    0 -0.00000000000E+00 -0.00000000000E+00 -0.45593999997E+02  0.45594000000E+02  0.51100000000E-03 0. -1.
    9900012    2    1    2    0    0  0.16640814534E+02  0.27165019960E+02 -0.13659334750E+01  0.59301940475E+02  0.49999993520E+02 0.  0.
        -12    1    1    2    0    0 -0.16640814534E+02 -0.27165019960E+02  0.13659334750E+01  0.31886059525E+02  0.00000000000E+00 0.  1.
         11    1    3    3    0    0  0.19289372782E+01 -0.51355519695E+01 -0.12628472642E+02  0.13768551652E+02  0.51100000000E-03 0. -1.
        -11    1    3    3    0    0 -0.57457686313E+01  0.17178006212E+02  0.82888651914E+01  0.19919915687E+02  0.51100000000E-03 0.  1.
         12    1    3    3    0    0  0.20457645887E+02  0.15122565718E+02  0.29736739761E+01  0.25613473135E+02  0.00000000000E+00 0. -1.
</event>
<event>
 7    1  0.1096439E-011  0.5930194E+02  0.7816164E-02  0.1266605E+00
        -11   -1    0    0    0    0  0.00000000000E+00  0.00000000000E+00  0.45593999997E+02  0.45594000000E+02  0.51100000000E-03 0.  1.
         11   -1    0    0    0    0 -0.00000000000E+00 -0.00000000000E+00 -0.45593999997E+02  0.45594000000E+02  0.51100000000E-03 0. -1.
    9900012    2    1    2    0    0  0.28761538585E+02 -0.12495749434E+02  0.57750117648E+01  0.59301943226E+02  0.49999998538E+02 0.  0.
        -12    1    1    2    0    0 -0.28761538585E+02  0.12495749434E+02 -0.57750117648E+01  0.31886056774E+02  0.00000000000E+00 0.  1.
         11    1    3    3    0    0  0.39828777778E+02  0.13306963610E+01  0.52596478735E+01  0.40196594236E+02  0.51100000000E-03 0. -1.
        -11    1    3    3    0    0 -0.49586001097E-01 -0.47833242299E+01 -0.53303576543E+00  0.48131878052E+01  0.51100000000E-03 0.  1.
         12    1    3    3    0    0 -0.11017653192E+02 -0.90431215653E+01  0.10483996568E+01  0.14292161185E+02  0.00000000000E+00 0. -1.
</event>
<event>
 7    1  0.1096439E-011  0.5930194E+02  0.7816164E-02  0.1266605E+00
        -11   -1    0    0    0    0  0.00000000000E+00  0.00000000000E+00  0.45593999997E+02  0.45594000000E+02  0.51100000000E-03 0.  1.
         11   -1    0    0    0    0 -0.00000000000E+00 -0.00000000000E+00 -0.45593999997E+02  0.45594000000E+02  0.51100000000E-03 0. -1.
    9900012    2    1    2    0    0  0.16506935438E+02  0.79735688920E+01 -0.26089539416E+02  0.59301940579E+02  0.49999993711E+02 0.  0.
        -12    1    1    2    0    0 -0.16506935438E+02 -0.79735688920E+01  0.26089539416E+02  0.31886059421E+02  0.00000000000E+00 0.  1.
         11    1    3    3    0    0 -0.63747567426E+01  0.86627455558E+01 -0.77962906901E+01  0.13283931379E+02  0.51100000000E-03 0. -1.
        -11    1    3    3    0    0  0.20749721725E+02 -0.89792522648E+01 -0.26031268093E+02  0.34479049316E+02  0.51100000000E-03 0.  1.
        -12    1    3    3    0    0  0.21319704560E+01  0.82900756010E+01  0.77380193676E+01  0.11538959885E+02  0.00000000000E+00 0.  1.
</event>
<event>
 7    1  0.1096439E-011  0.5930196E+02  0.7816164E-02  0.1266605E+00
        -11   -1    0    0    0    0  0.00000000000E+00  0.00000000000E+00  0.45593999997E+02  0.45594000000E+02  0.51100000000E-03 0.  1.
         11   -1    0    0    0    0 -0.00000000000E+00 -0.00000000000E+00 -0.45593999997E+02  0.45594000000E+02  0.51100000000E-03 0. -1.
    9900012    2    1    2    0    0 -0.15828168859E+02 -0.96828105615E+01 -0.25931292335E+02  0.59301958038E+02  0.50000025552E+02 0.  0.
        -12    1    1    2    0    0  0.15828168859E+02  0.96828105615E+01  0.25931292335E+02  0.31886041962E+02  0.00000000000E+00 0.  1.
         11    1    3    3    0    0  0.69007796221E+01  0.13941554835E+01 -0.56461836464E+00  0.70628056085E+01  0.51100000000E-03 0. -1.
        -11    1    3    3    0    0 -0.33097453604E+02 -0.45722393620E+01 -0.19156262620E+02  0.38513753461E+02  0.51100000000E-03 0.  1.
        -12    1    3    3    0    0  0.10368505123E+02 -0.65047266831E+01 -0.62104113508E+01  0.13725398969E+02  0.00000000000E+00 0.  1.
</event>
<event>
 7    1  0.1096439E-011  0.5930195E+02  0.7816164E-02  0.1266605E+00
        -11   -1    0    0    0    0  0.00000000000E+00  0.00000000000E+00  0.45593999997E+02  0.45594000000E+02  0.51100000000E-03 0. -1.
         11   -1    0    0    0    0 -0.00000000000E+00 -0.00000000000E+00 -0.45593999997E+02  0.45594000000E+02  0.51100000000E-03 0.  1.
    9900012    2    1    2    0    0 -0.10342796330E+02 -0.30046979856E+02 -0.26317229108E+01  0.59301946625E+02  0.50000004736E+02 0.  0.
        -12    1    1    2    0    0  0.10342796330E+02  0.30046979856E+02  0.26317229108E+01  0.31886053375E+02  0.00000000000E+00 0.  1.
         11    1    3    3    0    0  0.10645158102E+02 -0.48357327525E+01  0.71548181163E+01  0.13707484263E+02  0.51100000000E-03 0. -1.
        -11    1    3    3    0    0 -0.27170568251E+02 -0.21552257677E+02 -0.16210146231E+01  0.34718399715E+02  0.51100000000E-03 0.  1.
        -12    1    3    3    0    0  0.61826138188E+01 -0.36589894261E+01 -0.81655264040E+01  0.10876062647E+02  0.00000000000E+00 0.  1.
</event>
<event>
 7    1  0.1096439E-011  0.5930202E+02  0.7816164E-02  0.1266604E+00
        -11   -1    0    0    0    0  0.00000000000E+00  0.00000000000E+00  0.45593999997E+02  0.45594000000E+02  0.51100000000E-03 0.  1.
         11   -1    0    0    0    0 -0.00000000000E+00 -0.00000000000E+00 -0.45593999997E+02  0.45594000000E+02  0.51100000000E-03 0. -1.
    9900012    2    1    2    0    0  0.13566616381E+02 -0.26977926961E+02 -0.10239814225E+02  0.59302024737E+02  0.50000147193E+02 0.  0.
        -12    1    1    2    0    0 -0.13566616381E+02  0.26977926961E+02  0.10239814225E+02  0.31885975263E+02  0.00000000000E+00 0.  1.
         11    1    3    3    0    0  0.22339577127E+02 -0.31672245445E+01 -0.21869983334E+01  0.22668722494E+02  0.51100000000E-03 0. -1.
        -11    1    3    3    0    0 -0.44892294910E+01 -0.86215121937E+00  0.73566400024E+01  0.86612146108E+01  0.51100000000E-03 0.  1.
         12    1    3    3    0    0 -0.42837312556E+01 -0.22948551197E+02 -0.15409455894E+02  0.27972087632E+02  0.00000000000E+00 0. -1.
</event>
<event>
 7    1  0.1096439E-011  0.5930195E+02  0.7816164E-02  0.1266605E+00
        -11   -1    0    0    0    0  0.00000000000E+00  0.00000000000E+00  0.45593999997E+02  0.45594000000E+02  0.51100000000E-03 0.  1.
         11   -1    0    0    0    0 -0.00000000000E+00 -0.00000000000E+00 -0.45593999997E+02  0.45594000000E+02  0.51100000000E-03 0. -1.
    9900012    2    1    2    0    0 -0.20735601655E+02  0.20296342152E+02  0.13221698589E+02  0.59301952984E+02  0.50000016333E+02 0.  0.
        -12    1    1    2    0    0  0.20735601655E+02 -0.20296342152E+02 -0.13221698589E+02  0.31886047016E+02  0.00000000000E+00 0.  1.
         11    1    3    3    0    0  0.36712012011E+01 -0.10703302637E+01 -0.56465140470E+01  0.68195634960E+01  0.51100000000E-03 0. -1.
        -11    1    3    3    0    0 -0.10065714362E+02  0.17964518594E+02  0.28288703109E+02  0.34989902227E+02  0.51100000000E-03 0.  1.
         12    1    3    3    0    0 -0.14341088494E+02  0.34021538209E+01 -0.94204904733E+01  0.17492487261E+02  0.00000000000E+00 0. -1.
</event>
<event>
 7    1  0.1096439E-011  0.5930194E+02  0.7816164E-02  0.1266605E+00
        -11   -1    0    0    0    0  0.00000000000E+00  0.00000000000E+00  0.45593999997E+02  0.45594000000E+02  0.51100000000E-03 0.  1.
         11   -1    0    0    0    0 -0.00000000000E+00 -0.00000000000E+00 -0.45593999997E+02  0.45594000000E+02  0.51100000000E-03 0. -1.
    9900012    2    1    2    0    0  0.28460724390E+01  0.66507427899E+00 -0.31751822933E+02  0.59301941735E+02  0.49999995818E+02 0.  0.
        -12    1    1    2    0    0 -0.28460724390E+01 -0.66507427899E+00  0.31751822933E+02  0.31886058265E+02  0.00000000000E+00 0.  1.
         11    1    3    3    0    0 -0.21415229960E+02 -0.18604840865E+00 -0.17030704302E+02  0.27362229031E+02  0.51100000000E-03 0. -1.
        -11    1    3    3    0    0  0.12686474144E+02 -0.65557593212E+01 -0.99017622405E+01  0.17377269699E+02  0.51100000000E-03 0.  1.
         12    1    3    3    0    0  0.11574828255E+02  0.74068820089E+01 -0.48193563908E+01  0.14562443004E+02  0.00000000000E+00 0. -1.
</event>
<event>
 7    1  0.1096439E-011  0.5930194E+02  0.7816164E-02  0.1266605E+00
        -11   -1    0    0    0    0  0.00000000000E+00  0.00000000000E+00  0.45593999997E+02  0.45594000000E+02  0.51100000000E-03 0.  1.
         11   -1    0    0    0    0 -0.00000000000E+00 -0.00000000000E+00 -0.45593999997E+02  0.45594000000E+02  0.51100000000E-03 0. -1.
    9900012    2    1    2    0    0 -0.69711233274E+01 -0.26607686076E+02  0.16129320802E+02  0.59301944924E+02  0.50000001634E+02 0.  0.
        -12    1    1    2    0    0  0.69711233274E+01  0.26607686076E+02 -0.16129320802E+02  0.31886055076E+02  0.00000000000E+00 0.  1.
         11    1    3    3    0    0  0.20019592111E+02 -0.87380863754E+01  0.86248059790E+01  0.23484580052E+02  0.51100000000E-03 0. -1.
        -11    1    3    3    0    0 -0.17309411601E+02 -0.15282136228E+02 -0.33731289223E+00  0.23092708761E+02  0.51100000000E-03 0.  1.
         12    1    3    3    0    0 -0.96813038371E+01 -0.25874634729E+01  0.78418277153E+01  0.12724656110E+02  0.00000000000E+00 0. -1.
</event>
<event>
 7    1  0.1096439E-011  0.5930194E+02  0.7816164E-02  0.1266605E+00
        -11   -1    0    0    0    0  0.00000000000E+00  0.00000000000E+00  0.45593999997E+02  0.45594000000E+02  0.51100000000E-03 0.  1.
         11   -1    0    0    0    0 -0.00000000000E+00 -0.00000000000E+00 -0.45593999997E+02  0.45594000000E+02  0.51100000000E-03 0. -1.
    9900012    2    1    2    0    0 -0.28607099430E+02  0.13407856677E+02 -0.43108927207E+01  0.59301944200E+02  0.50000000313E+02 0.  0.
        -12    1    1    2    0    0  0.28607099430E+02 -0.13407856677E+02  0.43108927207E+01  0.31886055800E+02  0.00000000000E+00 0.  1.
         11    1    3    3    0    0 -0.31295807184E+02  0.20958073113E+01  0.12811466338E+02  0.33881464337E+02  0.51100000000E-03 0. -1.
        -11    1    3    3    0    0  0.64631118247E+01  0.11099305141E+02 -0.70270346870E+01  0.14640546637E+02  0.51100000000E-03 0.  1.
         12    1    3    3    0    0 -0.37744040702E+01  0.21274422505E+00 -0.10095324372E+02  0.10779933226E+02  0.00000000000E+00 0. -1.
</event>
<event>
 7    1  0.1096439E-011  0.5930196E+02  0.7816164E-02  0.1266605E+00
        -11   -1    0    0    0    0  0.00000000000E+00  0.00000000000E+00  0.45593999997E+02  0.45594000000E+02  0.51100000000E-03 0. -1.
         11   -1    0    0    0    0 -0.00000000000E+00 -0.00000000000E+00 -0.45593999997E+02  0.45594000000E+02  0.51100000000E-03 0.  1.
    9900012    2    1    2    0    0  0.14928866687E+02  0.90301520044E+01  0.26689044481E+02  0.59301956014E+02  0.50000021859E+02 0.  0.
        -12    1    1    2    0    0 -0.14928866687E+02 -0.90301520044E+01 -0.26689044481E+02  0.31886043986E+02  0.00000000000E+00 0.  1.
         11    1    3    3    0    0 -0.84356777636E+01 -0.51977413751E+01  0.13479996693E+02  0.16729838189E+02  0.51100000000E-03 0. -1.
        -11    1    3    3    0    0  0.25823909881E+02  0.19668613137E+02  0.15753421425E+02  0.36081836860E+02  0.51100000000E-03 0.  1.
         12    1    3    3    0    0 -0.24593654310E+01 -0.54407197578E+01 -0.25443736361E+01  0.64902809651E+01  0.00000000000E+00 0. -1.
</event>
<event>
 7    1  0.1096439E-011  0.5930195E+02  0.7816164E-02  0.1266605E+00
        -11   -1    0    0    0    0  0.00000000000E+00  0.00000000000E+00  0.45593999997E+02  0.45594000000E+02  0.51100000000E-03 0. -1.
         11   -1    0    0    0    0 -0.00000000000E+00 -0.00000000000E+00 -0.45593999997E+02  0.45594000000E+02  0.51100000000E-03 0.  1.
    9900012    2    1    2    0    0 -0.25801603191E+02 -0.19431814126E+01  0.18633889036E+02  0.59301945025E+02  0.50000001819E+02 0.  0.
        -12    1    1    2    0    0  0.25801603191E+02  0.19431814126E+01 -0.18633889036E+02  0.31886054975E+02  0.00000000000E+00 0.  1.
         11    1    3    3    0    0 -0.18940684246E+02 -0.17657871502E+02 -0.75652338630E+01  0.26977448162E+02  0.51100000000E-03 0.  1.
        -11    1    3    3    0    0 -0.62240727713E+01  0.60570669056E+01  0.16363440615E+02  0.18525369912E+02  0.51100000000E-03 0. -1.
        -12    1    3    3    0    0 -0.63684617364E+00  0.96576231836E+01  0.98356822845E+01  0.13799126951E+02  0.00000000000E+00 0.  1.
</event>
<event>
 7    1  0.1096439E-011  0.5930194E+02  0.7816164E-02  0.1266605E+00
        -11   -1    0    0    0    0  0.00000000000E+00  0.00000000000E+00  0.45593999997E+02  0.45594000000E+02  0.51100000000E-03 0.  1.
         11   -1    0    0    0    0 -0.00000000000E+00 -0.00000000000E+00 -0.45593999997E+02  0.45594000000E+02  0.51100000000E-03 0. -1.
    9900012    2    1    2    0    0  0.30400885522E+02 -0.30118788479E+01 -0.91343160731E+01  0.59301937451E+02  0.49999988006E+02 0.  0.
        -12    1    1    2    0    0 -0.30400885522E+02  0.30118788479E+01  0.91343160731E+01  0.31886062549E+02  0.00000000000E+00 0.  1.
         11    1    3    3    0    0  0.10293540957E+02  0.67300097397E+01 -0.13796794229E+02  0.18482465955E+02  0.51100000000E-03 0. -1.
        -11    1    3    3    0    0  0.65013527814E+01 -0.33434838206E+01  0.18806135188E+02  0.20177145314E+02  0.51100000000E-03 0.  1.
         12    1    3    3    0    0  0.13605991784E+02 -0.63984047670E+01 -0.14143657032E+02  0.20642326182E+02  0.00000000000E+00 0. -1.
</event>
<event>
 7    1  0.1096439E-011  0.5930196E+02  0.7816164E-02  0.1266605E+00
        -11   -1    0    0    0    0  0.00000000000E+00  0.00000000000E+00  0.45593999997E+02  0.45594000000E+02  0.51100000000E-03 0. -1.
         11   -1    0    0    0    0 -0.00000000000E+00 -0.00000000000E+00 -0.45593999997E+02  0.45594000000E+02  0.51100000000E-03 0.  1.
    9900012    2    1    2    0    0  0.22577806418E+02 -0.20977020727E+02  0.81808766503E+01  0.59301960986E+02  0.50000030928E+02 0.  0.
        -12    1    1    2    0    0 -0.22577806418E+02  0.20977020727E+02 -0.81808766503E+01  0.31886039014E+02  0.00000000000E+00 0.  1.
         11    1    3    3    0    0 -0.37702888275E+01 -0.94145620279E+01  0.10548048060E+02  0.14632510863E+02  0.51100000000E-03 0. -1.
        -11    1    3    3    0    0  0.30429335155E+02 -0.11308525045E+02 -0.11678748045E+02  0.34499570038E+02  0.51100000000E-03 0.  1.
        -12    1    3    3    0    0 -0.40812399098E+01 -0.25393365405E+00  0.93115766351E+01  0.10169880085E+02  0.00000000000E+00 0.  1.
</event>
<event>
 7    1  0.1096439E-011  0.5930199E+02  0.7816164E-02  0.1266605E+00
        -11   -1    0    0    0    0  0.00000000000E+00  0.00000000000E+00  0.45593999997E+02  0.45594000000E+02  0.51100000000E-03 0. -1.
         11   -1    0    0    0    0 -0.00000000000E+00 -0.00000000000E+00 -0.45593999997E+02  0.45594000000E+02  0.51100000000E-03 0.  1.
    9900012    2    1    2    0    0  0.55454010328E+01 -0.20820655070E+02 -0.23504604247E+02  0.59301990984E+02  0.50000085636E+02 0.  0.
        -12    1    1    2    0    0 -0.55454010328E+01  0.20820655070E+02  0.23504604247E+02  0.31886009016E+02  0.00000000000E+00 0.  1.
         11    1    3    3    0    0 -0.79728881122E+01 -0.27194331249E+02 -0.13438752735E+02  0.31363970926E+02  0.51100000000E-03 0. -1.
        -11    1    3    3    0    0  0.69525626991E+01  0.14059585850E+02 -0.41451098025E+01  0.16223193826E+02  0.51100000000E-03 0.  1.
         12    1    3    3    0    0  0.65657264459E+01 -0.76859096714E+01 -0.59207417103E+01  0.11714826232E+02  0.00000000000E+00 0. -1.
</event>
<event>
 7    1  0.1096439E-011  0.5930195E+02  0.7816164E-02  0.1266605E+00
        -11   -1    0    0    0    0  0.00000000000E+00  0.00000000000E+00  0.45593999997E+02  0.45594000000E+02  0.51100000000E-03 0.  1.
         11   -1    0    0    0    0 -0.00000000000E+00 -0.00000000000E+00 -0.45593999997E+02  0.45594000000E+02  0.51100000000E-03 0. -1.
    9900012    2    1    2    0    0  0.30790043561E+02 -0.87399641806E+00  0.82419309780E+01  0.59301951664E+02  0.50000013927E+02 0.  0.
        -12    1    1    2    0    0 -0.30790043561E+02  0.87399641806E+00 -0.82419309780E+01  0.31886048336E+02  0.00000000000E+00 0.  1.
         11    1    3    3    0    0  0.25753610894E+02 -0.12946539844E+02  0.79106194490E+01  0.29890454469E+02  0.51100000000E-03 0. -1.
        -11    1    3    3    0    0  0.63540684519E+01  0.20148515897E+02 -0.85071863147E+00  0.21143807632E+02  0.51100000000E-03 0.  1.
        -12    1    3    3    0    0 -0.13176357851E+01 -0.80759724711E+01  0.11820301604E+01  0.82676895634E+01  0.00000000000E+00 0.  1.
</event>
<event>
 7    1  0.1096439E-011  0.5930198E+02  0.7816164E-02  0.1266605E+00
        -11   -1    0    0    0    0  0.00000000000E+00  0.00000000000E+00  0.45593999997E+02  0.45594000000E+02  0.51100000000E-03 0. -1.
         11   -1    0    0    0    0 -0.00000000000E+00 -0.00000000000E+00 -0.45593999997E+02  0.45594000000E+02  0.51100000000E-03 0.  1.
    9900012    2    1    2    0    0 -0.19123721583E+02 -0.14966062488E+02  0.20664423658E+02  0.59301981768E+02  0.50000068830E+02 0.  0.
        -12    1    1    2    0    0  0.19123721583E+02  0.14966062488E+02 -0.20664423658E+02  0.31886018232E+02  0.00000000000E+00 0.  1.
         11    1    3    3    0    0  0.73997463664E+01 -0.13175058673E+02 -0.63123110536E+01  0.16376314861E+02  0.51100000000E-03 0. -1.
        -11    1    3    3    0    0 -0.15775029246E+02 -0.47709236032E+01  0.33773653346E+01  0.16823194007E+02  0.51100000000E-03 0.  1.
         12    1    3    3    0    0 -0.10748438703E+02  0.29799197887E+01  0.23599369377E+02  0.26102472900E+02  0.00000000000E+00 0. -1.
</event>
<event>
 7    1  0.1096439E-011  0.5930183E+02  0.7816164E-02  0.1266605E+00
        -11   -1    0    0    0    0  0.00000000000E+00  0.00000000000E+00  0.45593999997E+02  0.45594000000E+02  0.51100000000E-03 0.  1.
         11   -1    0    0    0    0 -0.00000000000E+00 -0.00000000000E+00 -0.45593999997E+02  0.45594000000E+02  0.51100000000E-03 0. -1.
    9900012    2    1    2    0    0 -0.19678480967E+01 -0.31152988365E+02  0.65074465288E+01  0.59301827911E+02  0.49999788230E+02 0.  0.
        -12    1    1    2    0    0  0.19678480967E+01  0.31152988365E+02 -0.65074465288E+01  0.31886172089E+02  0.00000000000E+00 0.  1.
         11    1    3    3    0    0 -0.11140383985E+02 -0.88260568504E+01  0.75876104968E+01  0.16111463874E+02  0.51100000000E-03 0. -1.
        -11    1    3    3    0    0  0.14662827617E+02  0.41590618499E+01  0.37922670352E+01  0.15705973346E+02  0.51100000000E-03 0.  1.
        -12    1    3    3    0    0 -0.54902917291E+01 -0.26485993364E+02 -0.48724310032E+01  0.27484390691E+02  0.00000000000E+00 0.  1.
</event>
<event>
 7    1  0.1096439E-011  0.5930198E+02  0.7816164E-02  0.1266605E+00
        -11   -1    0    0    0    0  0.00000000000E+00  0.00000000000E+00  0.45593999997E+02  0.45594000000E+02  0.51100000000E-03 0.  1.
         11   -1    0    0    0    0 -0.00000000000E+00 -0.00000000000E+00 -0.45593999997E+02  0.45594000000E+02  0.51100000000E-03 0. -1.
    9900012    2    1    2    0    0 -0.31871418129E+02 -0.31498369566E+00  0.91191182456E+00  0.59301982823E+02  0.50000070753E+02 0.  0.
        -12    1    1    2    0    0  0.31871418129E+02  0.31498369566E+00 -0.91191182456E+00  0.31886017177E+02  0.00000000000E+00 0.  1.
         11    1    3    3    0    0 -0.16031611008E+02  0.23547520929E+02 -0.21563526896E+01  0.28568306751E+02  0.51100000000E-03 0. -1.
        -11    1    3    3    0    0 -0.41924233930E+01 -0.26610718591E+01  0.42193412903E+01  0.65161766804E+01  0.51100000000E-03 0.  1.
         12    1    3    3    0    0 -0.11647383727E+02 -0.21201432766E+02 -0.11510767761E+01  0.24217499391E+02  0.00000000000E+00 0. -1.
</event>
<event>
 7    1  0.1096439E-011  0.5930195E+02  0.7816164E-02  0.1266605E+00
        -11   -1    0    0    0    0  0.00000000000E+00  0.00000000000E+00  0.45593999997E+02  0.45594000000E+02  0.51100000000E-03 0.  1.
         11   -1    0    0    0    0 -0.00000000000E+00 -0.00000000000E+00 -0.45593999997E+02  0.45594000000E+02  0.51100000000E-03 0. -1.
    9900012    2    1    2    0    0  0.21683295515E+02  0.11982714607E+02 -0.20074090584E+02  0.59301954988E+02  0.50000019990E+02 0.  0.
        -12    1    1    2    0    0 -0.21683295515E+02 -0.11982714607E+02  0.20074090584E+02  0.31886045012E+02  0.00000000000E+00 0.  1.
         11    1    3    3    0    0 -0.28821842774E+01  0.70052052798E+01 -0.13397644192E+02  0.15390801064E+02  0.51100000000E-03 0. -1.
        -11    1    3    3    0    0  0.27083607667E+02 -0.81530375195E+01 -0.10229653559E+02  0.30077227885E+02  0.51100000000E-03 0.  1.
        -12    1    3    3    0    0 -0.25181278752E+01  0.13130546846E+02  0.35532071676E+01  0.13833926039E+02  0.00000000000E+00 0.  1.
</event>
<event>
 7    1  0.1096439E-011  0.5930193E+02  0.7816164E-02  0.1266605E+00
        -11   -1    0    0    0    0  0.00000000000E+00  0.00000000000E+00  0.45593999997E+02  0.45594000000E+02  0.51100000000E-03 0.  1.
         11   -1    0    0    0    0 -0.00000000000E+00 -0.00000000000E+00 -0.45593999997E+02  0.45594000000E+02  0.51100000000E-03 0. -1.
    9900012    2    1    2    0    0 -0.22842083043E+02  0.17079520129E+02 -0.14256592820E+02  0.59301934008E+02  0.49999981726E+02 0.  0.
        -12    1    1    2    0    0  0.22842083043E+02 -0.17079520129E+02  0.14256592820E+02  0.31886065992E+02  0.00000000000E+00 0.  1.
         11    1    3    3    0    0 -0.13337636522E+02 -0.16279689414E+02 -0.53766231487E+01  0.21721623147E+02  0.51100000000E-03 0. -1.
        -11    1    3    3    0    0 -0.41973583833E+01  0.18743550783E+02  0.86916697852E+00  0.19227427411E+02  0.51100000000E-03 0.  1.
         12    1    3    3    0    0 -0.53070881378E+01  0.14615658760E+02 -0.97491366502E+01  0.18352883450E+02  0.00000000000E+00 0. -1.
</event>
<event>
 7    1  0.1096439E-011  0.5930195E+02  0.7816164E-02  0.1266605E+00
        -11   -1    0    0    0    0  0.00000000000E+00  0.00000000000E+00  0.45593999997E+02  0.45594000000E+02  0.51100000000E-03 0.  1.
         11   -1    0    0    0    0 -0.00000000000E+00 -0.00000000000E+00 -0.45593999997E+02  0.45594000000E+02  0.51100000000E-03 0. -1.
    9900012    2    1    2    0    0  0.21667735629E+02 -0.21127714939E+02 -0.10042350117E+02  0.59301954435E+02  0.50000018981E+02 0.  0.
        -12    1    1    2    0    0 -0.21667735629E+02  0.21127714939E+02  0.10042350117E+02  0.31886045565E+02  0.00000000000E+00 0.  1.
         11    1    3    3    0    0  0.28984682413E+02 -0.11898950142E+02  0.76721142699E+01  0.32257683840E+02  0.51100000000E-03 0. -1.
        -11    1    3    3    0    0 -0.23627042282E+01  0.28358704356E+01  0.13630017190E+01  0.39347561989E+01  0.51100000000E-03 0.  1.
         12    1    3    3    0    0 -0.49542425558E+01 -0.12064635233E+02 -0.19077466106E+02  0.23109514397E+02  0.00000000000E+00 0. -1.
</event>
<event>
 7    1  0.1096439E-011  0.5930194E+02  0.7816164E-02  0.1266605E+00
        -11   -1    0    0    0    0  0.00000000000E+00  0.00000000000E+00  0.45593999997E+02  0.45594000000E+02  0.51100000000E-03 0.  1.
         11   -1    0    0    0    0 -0.00000000000E+00 -0.00000000000E+00 -0.45593999997E+02  0.45594000000E+02  0.51100000000E-03 0. -1.
    9900012    2    1    2    0    0 -0.23272075838E+02 -0.13213482101E+02 -0.17335956857E+02  0.59301936850E+02  0.49999986910E+02 0.  0.
        -12    1    1    2    0    0  0.23272075838E+02  0.13213482101E+02  0.17335956857E+02  0.31886063150E+02  0.00000000000E+00 0.  1.
         11    1    3    3    0    0  0.73855595205E+01  0.10981233822E+02 -0.79142884922E+01  0.15419790799E+02  0.51100000000E-03 0. -1.
        -11    1    3    3    0    0 -0.53500367153E+01 -0.43722201996E+01  0.51198603551E+01  0.85995449092E+01  0.51100000000E-03 0.  1.
         12    1    3    3    0    0 -0.25307598644E+02 -0.19822495724E+02 -0.14541528720E+02  0.35282601142E+02  0.00000000000E+00 0. -1.
</event>
<event>
 7    1  0.1096439E-011  0.5930191E+02  0.7816164E-02  0.1266605E+00
        -11   -1    0    0    0    0  0.00000000000E+00  0.00000000000E+00  0.45593999997E+02  0.45594000000E+02  0.51100000000E-03 0.  1.
         11   -1    0    0    0    0 -0.00000000000E+00 -0.00000000000E+00 -0.45593999997E+02  0.45594000000E+02  0.51100000000E-03 0. -1.
    9900012    2    1    2    0    0  0.21799571713E+02 -0.41336936147E+01 -0.22900081576E+02  0.59301913912E+02  0.49999945077E+02 0.  0.
        -12    1    1    2    0    0 -0.21799571713E+02  0.41336936147E+01  0.22900081576E+02  0.31886086088E+02  0.00000000000E+00 0.  1.
         11    1    3    3    0    0  0.80601959586E+01  0.65084263980E+01 -0.90013381330E+01  0.13724083267E+02  0.51100000000E-03 0. -1.
        -11    1    3    3    0    0  0.87061673870E+01 -0.23657812565E+02  0.91590872649E+00  0.25225549250E+02  0.51100000000E-03 0.  1.
        -12    1    3    3    0    0  0.50332083678E+01  0.13015692552E+02 -0.14814652170E+02  0.20352281395E+02  0.00000000000E+00 0.  1.
</event>
<event>
 7    1  0.1096439E-011  0.5930199E+02  0.7816164E-02  0.1266605E+00
        -11   -1    0    0    0    0  0.00000000000E+00  0.00000000000E+00  0.45593999997E+02  0.45594000000E+02  0.51100000000E-03 0.  1.
         11   -1    0    0    0    0 -0.00000000000E+00 -0.00000000000E+00 -0.45593999997E+02  0.45594000000E+02  0.51100000000E-03 0. -1.
    9900012    2    1    2    0    0  0.27181980104E+02 -0.14394573575E+02  0.84055931776E+01  0.59301987589E+02  0.50000079446E+02 0.  0.
        -12    1    1    2    0    0 -0.27181980104E+02  0.14394573575E+02 -0.84055931776E+01  0.31886012411E+02  0.00000000000E+00 0.  1.
         11    1    3    3    0    0 -0.70578215819E+01 -0.14692436245E+02 -0.83543255996E+01  0.18315984407E+02  0.51100000000E-03 0. -1.
        -11    1    3    3    0    0  0.78408606337E+01 -0.52787215138E+00  0.11699361318E+02  0.14093714911E+02  0.51100000000E-03 0.  1.
         12    1    3    3    0    0  0.26398941052E+02  0.82573482182E+00  0.50605574591E+01  0.26892288271E+02  0.00000000000E+00 0. -1.
</event>
<event>
 7    1  0.1096439E-011  0.5930196E+02  0.7816164E-02  0.1266605E+00
        -11   -1    0    0    0    0  0.00000000000E+00  0.00000000000E+00  0.45593999997E+02  0.45594000000E+02  0.51100000000E-03 0. -1.
         11   -1    0    0    0    0 -0.00000000000E+00 -0.00000000000E+00 -0.45593999997E+02  0.45594000000E+02  0.51100000000E-03 0.  1.
    9900012    2    1    2    0    0  0.20338338827E+02  0.17323439133E+02  0.17406038358E+02  0.59301956957E+02  0.50000023579E+02 0.  0.
        -12    1    1    2    0    0 -0.20338338827E+02 -0.17323439133E+02 -0.17406038358E+02  0.31886043043E+02  0.00000000000E+00 0.  1.
         11    1    3    3    0    0  0.12549928517E+01 -0.10639505966E+02  0.66777926028E+01  0.12624064661E+02  0.51100000000E-03 0. -1.
        -11    1    3    3    0    0  0.94667171662E+01  0.22819083924E+02  0.20447840323E+02  0.32069354517E+02  0.51100000000E-03 0.  1.
        -12    1    3    3    0    0  0.96166288095E+01  0.51438611756E+01 -0.97195945680E+01  0.14608537778E+02  0.00000000000E+00 0.  1.
</event>
<event>
 7    1  0.1096439E-011  0.5930193E+02  0.7816164E-02  0.1266605E+00
        -11   -1    0    0    0    0  0.00000000000E+00  0.00000000000E+00  0.45593999997E+02  0.45594000000E+02  0.51100000000E-03 0.  1.
         11   -1    0    0    0    0 -0.00000000000E+00 -0.00000000000E+00 -0.45593999997E+02  0.45594000000E+02  0.51100000000E-03 0. -1.
    9900012    2    1    2    0    0  0.13907247323E+01  0.15266965052E+02 -0.27959020276E+02  0.59301934830E+02  0.49999983226E+02 0.  0.
        -12    1    1    2    0    0 -0.13907247323E+01 -0.15266965052E+02  0.27959020276E+02  0.31886065170E+02  0.00000000000E+00 0.  1.
         11    1    3    3    0    0  0.48189735950E+01 -0.16077250714E+00 -0.12760944102E+02  0.13641482652E+02  0.51100000000E-03 0. -1.
        -11    1    3    3    0    0  0.24807240348E+01  0.28070919169E+02 -0.56234519421E+01  0.28735930587E+02  0.51100000000E-03 0.  1.
        -12    1    3    3    0    0 -0.59089728975E+01 -0.12643181609E+02 -0.95746242327E+01  0.16924521591E+02  0.00000000000E+00 0.  1.
</event>
<event>
 7    1  0.1096439E-011  0.5930194E+02  0.7816164E-02  0.1266605E+00
        -11   -1    0    0    0    0  0.00000000000E+00  0.00000000000E+00  0.45593999997E+02  0.45594000000E+02  0.51100000000E-03 0. -1.
         11   -1    0    0    0    0 -0.00000000000E+00 -0.00000000000E+00 -0.45593999997E+02  0.45594000000E+02  0.51100000000E-03 0.  1.
    9900012    2    1    2    0    0  0.28633978456E+01 -0.52489092912E+01  0.31320447958E+02  0.59301944172E+02  0.50000000264E+02 0.  0.
        -12    1    1    2    0    0 -0.28633978456E+01  0.52489092912E+01 -0.31320447958E+02  0.31886055828E+02  0.00000000000E+00 0.  1.
         11    1    3    3    0    0 -0.28779799718E+01 -0.25223336225E+02  0.15750642370E+02  0.29876114111E+02  0.51100000000E-03 0. -1.
        -11    1    3    3    0    0  0.10076804248E+02  0.10598939929E+02  0.86173964834E+01  0.16974658579E+02  0.51100000000E-03 0.  1.
         12    1    3    3    0    0 -0.43354264304E+01  0.93754870053E+01  0.69524091048E+01  0.12451171482E+02  0.00000000000E+00 0. -1.
</event>
<event>
 7    1  0.1096439E-011  0.5930156E+02  0.7816164E-02  0.1266606E+00
        -11   -1    0    0    0    0  0.00000000000E+00  0.00000000000E+00  0.45593999997E+02  0.45594000000E+02  0.51100000000E-03 0. -1.
         11   -1    0    0    0    0 -0.00000000000E+00 -0.00000000000E+00 -0.45593999997E+02  0.45594000000E+02  0.51100000000E-03 0.  1.
    9900012    2    1    2    0    0 -0.25385125648E+02 -0.58252969758E+01  0.18395821946E+02  0.59301561596E+02  0.49999302532E+02 0.  0.
        -12    1    1    2    0    0  0.25385125648E+02  0.58252969758E+01 -0.18395821946E+02  0.31886438404E+02  0.00000000000E+00 0.  1.
         11    1    3    3    0    0 -0.97356537739E+01  0.15099763167E+01  0.22129271133E+02  0.24223286813E+02  0.51100000000E-03 0. -1.
        -11    1    3    3    0    0  0.15986836064E+01  0.63175032475E+01 -0.10240709464E+02  0.12138318135E+02  0.51100000000E-03 0.  1.
        -12    1    3    3    0    0 -0.17248155481E+02 -0.13652776540E+02  0.65072602763E+01  0.22939956649E+02  0.00000000000E+00 0.  1.
</event>
<event>
 7    1  0.1096439E-011  0.5930199E+02  0.7816164E-02  0.1266605E+00
        -11   -1    0    0    0    0  0.00000000000E+00  0.00000000000E+00  0.45593999997E+02  0.45594000000E+02  0.51100000000E-03 0.  1.
         11   -1    0    0    0    0 -0.00000000000E+00 -0.00000000000E+00 -0.45593999997E+02  0.45594000000E+02  0.51100000000E-03 0. -1.
    9900012    2    1    2    0    0  0.15916711605E+02  0.44195976183E+01 -0.27273492543E+02  0.59301985089E+02  0.50000074885E+02 0.  0.
        -12    1    1    2    0    0 -0.15916711605E+02 -0.44195976183E+01  0.27273492543E+02  0.31886014911E+02  0.00000000000E+00 0.  1.
         11    1    3    3    0    0  0.77261322760E+01  0.17592146266E+02  0.98296124981E+00  0.19239099337E+02  0.51100000000E-03 0. -1.
        -11    1    3    3    0    0 -0.43811635960E+01 -0.12784972136E+02 -0.22462627984E+02  0.26214876753E+02  0.51100000000E-03 0.  1.
         12    1    3    3    0    0  0.12571742925E+02 -0.38757651199E+00 -0.57938258083E+01  0.13848008999E+02  0.00000000000E+00 0. -1.
</event>
<event>
 7    1  0.1096439E-011  0.5930194E+02  0.7816164E-02  0.1266605E+00
        -11   -1    0    0    0    0  0.00000000000E+00  0.00000000000E+00  0.45593999997E+02  0.45594000000E+02  0.51100000000E-03 0.  1.
         11   -1    0    0    0    0 -0.00000000000E+00 -0.00000000000E+00 -0.45593999997E+02  0.45594000000E+02  0.51100000000E-03 0. -1.
    9900012    2    1    2    0    0  0.29937285456E+02  0.10957095547E+02 -0.64966000336E+00  0.59301936251E+02  0.49999985817E+02 0.  0.
        -12    1    1    2    0    0 -0.29937285456E+02 -0.10957095547E+02  0.64966000336E+00  0.31886063749E+02  0.00000000000E+00 0.  1.
         11    1    3    3    0    0  0.30517064448E+02  0.56273793099E+01  0.61780528111E+01  0.31640590342E+02  0.51100000000E-03 0. -1.
        -11    1    3    3    0    0 -0.32086091219E+01  0.84675552896E+01  0.81203940636E+01  0.12162872403E+02  0.51100000000E-03 0.  1.
        -12    1    3    3    0    0  0.26288301295E+01 -0.31378390520E+01 -0.14948106878E+02  0.15498473506E+02  0.00000000000E+00 0.  1.
</event>
<event>
 7    1  0.1096439E-011  0.5930183E+02  0.7816164E-02  0.1266605E+00
        -11   -1    0    0    0    0  0.00000000000E+00  0.00000000000E+00  0.45593999997E+02  0.45594000000E+02  0.51100000000E-03 0. -1.
         11   -1    0    0    0    0 -0.00000000000E+00 -0.00000000000E+00 -0.45593999997E+02  0.45594000000E+02  0.51100000000E-03 0.  1.
    9900012    2    1    2    0    0 -0.29503355735E+02  0.91816214417E+01  0.78725806172E+01  0.59301832191E+02  0.49999796037E+02 0.  0.
        -12    1    1    2    0    0  0.29503355735E+02 -0.91816214417E+01 -0.78725806172E+01  0.31886167809E+02  0.00000000000E+00 0.  1.
         11    1    3    3    0    0 -0.62182579776E+01  0.11113995533E+02  0.43971482855E+01  0.13473030182E+02  0.51100000000E-03 0. -1.
        -11    1    3    3    0    0 -0.23250883870E+02 -0.17978529599E+02 -0.90564403248E-01  0.29391143725E+02  0.51100000000E-03 0.  1.
        -12    1    3    3    0    0 -0.34213887875E-01  0.16046155508E+02  0.35659967349E+01  0.16437658284E+02  0.00000000000E+00 0.  1.
</event>
<event>
 7    1  0.1096439E-011  0.5930196E+02  0.7816164E-02  0.1266605E+00
        -11   -1    0    0    0    0  0.00000000000E+00  0.00000000000E+00  0.45593999997E+02  0.45594000000E+02  0.51100000000E-03 0.  1.
         11   -1    0    0    0    0 -0.00000000000E+00 -0.00000000000E+00 -0.45593999997E+02  0.45594000000E+02  0.51100000000E-03 0. -1.
    9900012    2    1    2    0    0 -0.58107846552E+01 -0.28920380595E+02 -0.12106430429E+02  0.59301964031E+02  0.50000036482E+02 0.  0.
        -12    1    1    2    0    0  0.58107846552E+01  0.28920380595E+02  0.12106430429E+02  0.31886035969E+02  0.00000000000E+00 0.  1.
         11    1    3    3    0    0 -0.11160847449E+02 -0.56970143329E+01 -0.26582052010E+02  0.29387513972E+02  0.51100000000E-03 0. -1.
        -11    1    3    3    0    0 -0.25506682433E+01 -0.12834413062E+02  0.80890787906E+01  0.15383798721E+02  0.51100000000E-03 0.  1.
         12    1    3    3    0    0  0.79007310374E+01 -0.10388953200E+02  0.63865427906E+01  0.14530651339E+02  0.00000000000E+00 0. -1.
</event>
<event>
 7    1  0.1096439E-011  0.5930191E+02  0.7816164E-02  0.1266605E+00
        -11   -1    0    0    0    0  0.00000000000E+00  0.00000000000E+00  0.45593999997E+02  0.45594000000E+02  0.51100000000E-03 0.  1.
         11   -1    0    0    0    0 -0.00000000000E+00 -0.00000000000E+00 -0.45593999997E+02  0.45594000000E+02  0.51100000000E-03 0. -1.
    9900012    2    1    2    0    0  0.14184850414E+02 -0.21982743254E+01 -0.28472443719E+02  0.59301914593E+02  0.49999946318E+02 0.  0.
        -12    1    1    2    0    0 -0.14184850414E+02  0.21982743254E+01  0.28472443719E+02  0.31886085407E+02  0.00000000000E+00 0.  1.
         11    1    3    3    0    0 -0.19009037784E+00  0.27750478437E+01  0.14712590898E+01  0.31466853127E+01  0.51100000000E-03 0. -1.
        -11    1    3    3    0    0  0.18695373390E+02 -0.21807218900E+02 -0.25016914210E+02  0.38090914655E+02  0.51100000000E-03 0.  1.
        -12    1    3    3    0    0 -0.43204325990E+01  0.16833896731E+02 -0.49267885985E+01  0.18064314626E+02  0.00000000000E+00 0.  1.
</event>
<event>
 7    1  0.1096439E-011  0.5930189E+02  0.7816164E-02  0.1266605E+00
        -11   -1    0    0    0    0  0.00000000000E+00  0.00000000000E+00  0.45593999997E+02  0.45594000000E+02  0.51100000000E-03 0. -1.
         11   -1    0    0    0    0 -0.00000000000E+00 -0.00000000000E+00 -0.45593999997E+02  0.45594000000E+02  0.51100000000E-03 0.  1.
    9900012    2    1    2    0    0 -0.41936575445E+01 -0.22971336612E+01  0.31525556195E+02  0.59301885780E+02  0.49999893771E+02 0.  0.
        -12    1    1    2    0    0  0.41936575445E+01  0.22971336612E+01 -0.31525556195E+02  0.31886114220E+02  0.00000000000E+00 0.  1.
         11    1    3    3    0    0 -0.12522051570E+02 -0.17378080460E+02  0.19062893157E+02  0.28673914134E+02  0.51100000000E-03 0. -1.
        -11    1    3    3    0    0 -0.29421204265E+01  0.10121120777E+02  0.14724756172E+02  0.18108329658E+02  0.51100000000E-03 0.  1.
         12    1    3    3    0    0  0.11270514452E+02  0.49598260219E+01 -0.22620931343E+01  0.12519641989E+02  0.00000000000E+00 0. -1.
</event>
<event>
 7    1  0.1096439E-011  0.5930192E+02  0.7816164E-02  0.1266605E+00
        -11   -1    0    0    0    0  0.00000000000E+00  0.00000000000E+00  0.45593999997E+02  0.45594000000E+02  0.51100000000E-03 0.  1.
         11   -1    0    0    0    0 -0.00000000000E+00 -0.00000000000E+00 -0.45593999997E+02  0.45594000000E+02  0.51100000000E-03 0. -1.
    9900012    2    1    2    0    0 -0.13295601096E+02 -0.20241185440E+02 -0.20742318967E+02  0.59301915376E+02  0.49999947746E+02 0.  0.
        -12    1    1    2    0    0  0.13295601096E+02  0.20241185440E+02  0.20742318967E+02  0.31886084624E+02  0.00000000000E+00 0.  1.
         11    1    3    3    0    0 -0.53820686665E+01  0.96853532782E+01  0.17524919435E+01  0.11218019412E+02  0.51100000000E-03 0.  1.
        -11    1    3    3    0    0  0.25193760781E+01 -0.22784546208E+02 -0.75615667321E+00  0.22935879641E+02  0.51100000000E-03 0. -1.
         12    1    3    3    0    0 -0.10432908508E+02 -0.71419925098E+01 -0.21738654237E+02  0.25148016323E+02  0.00000000000E+00 0. -1.
</event>
<event>
 7    1  0.1096439E-011  0.5930195E+02  0.7816164E-02  0.1266605E+00
        -11   -1    0    0    0    0  0.00000000000E+00  0.00000000000E+00  0.45593999997E+02  0.45594000000E+02  0.51100000000E-03 0.  1.
         11   -1    0    0    0    0 -0.00000000000E+00 -0.00000000000E+00 -0.45593999997E+02  0.45594000000E+02  0.51100000000E-03 0. -1.
    9900012    2    1    2    0    0  0.28999847381E+02  0.11291451444E+02 -0.69449513695E+01  0.59301947040E+02  0.50000005494E+02 0.  0.
        -12    1    1    2    0    0 -0.28999847381E+02 -0.11291451444E+02  0.69449513695E+01  0.31886052960E+02  0.00000000000E+00 0.  1.
         11    1    3    3    0    0  0.26824121638E+01  0.13856651920E+02 -0.59968995063E+00  0.14126633206E+02  0.51100000000E-03 0.  1.
        -11    1    3    3    0    0  0.22569258129E+01 -0.16230443584E+02 -0.61547211646E+01  0.17504331062E+02  0.51100000000E-03 0. -1.
        -12    1    3    3    0    0  0.24060509404E+02  0.13665243107E+02 -0.19054025429E+00  0.27670982772E+02  0.00000000000E+00 0.  1.
</event>
<event>
 7    1  0.1096439E-011  0.5930194E+02  0.7816164E-02  0.1266605E+00
        -11   -1    0    0    0    0  0.00000000000E+00  0.00000000000E+00  0.45593999997E+02  0.45594000000E+02  0.51100000000E-03 0.  1.
         11   -1    0    0    0    0 -0.00000000000E+00 -0.00000000000E+00 -0.45593999997E+02  0.45594000000E+02  0.51100000000E-03 0. -1.
    9900012    2    1    2    0    0 -0.17617001985E+02 -0.88594517135E+01 -0.25057378428E+02  0.59301939452E+02  0.49999991655E+02 0.  0.
        -12    1    1    2    0    0  0.17617001985E+02  0.88594517135E+01  0.25057378428E+02  0.31886060548E+02  0.00000000000E+00 0.  1.
         11    1    3    3    0    0 -0.59421806529E+01 -0.30690107140E+01  0.11092105441E+02  0.12952341141E+02  0.51100000000E-03 0. -1.
        -11    1    3    3    0    0  0.55437845043E+01 -0.95834859262E+00 -0.24189580557E+02  0.24835212631E+02  0.51100000000E-03 0.  1.
         12    1    3    3    0    0 -0.17218605836E+02 -0.48320924069E+01 -0.11959903311E+02  0.21514385680E+02  0.00000000000E+00 0. -1.
</event>
<event>
 7    1  0.1096439E-011  0.5930194E+02  0.7816164E-02  0.1266605E+00
        -11   -1    0    0    0    0  0.00000000000E+00  0.00000000000E+00  0.45593999997E+02  0.45594000000E+02  0.51100000000E-03 0. -1.
         11   -1    0    0    0    0 -0.00000000000E+00 -0.00000000000E+00 -0.45593999997E+02  0.45594000000E+02  0.51100000000E-03 0.  1.
    9900012    2    1    2    0    0  0.33736853336E+01 -0.85176793694E+01  0.30541582238E+02  0.59301939406E+02  0.49999991572E+02 0.  0.
        -12    1    1    2    0    0 -0.33736853336E+01  0.85176793694E+01 -0.30541582238E+02  0.31886060594E+02  0.00000000000E+00 0.  1.
         11    1    3    3    0    0 -0.27964053347E+01 -0.22361704321E+02  0.30349628649E+02  0.37801662164E+02  0.51100000000E-03 0. -1.
        -11    1    3    3    0    0  0.84184944766E+01  0.13001117275E+02 -0.45855806121E+01  0.16153255073E+02  0.51100000000E-03 0.  1.
         12    1    3    3    0    0 -0.22484038083E+01  0.84290767720E+00  0.47775342010E+01  0.53470221693E+01  0.00000000000E+00 0. -1.
</event>
<event>
 7    1  0.1096439E-011  0.5930196E+02  0.7816164E-02  0.1266605E+00
        -11   -1    0    0    0    0  0.00000000000E+00  0.00000000000E+00  0.45593999997E+02  0.45594000000E+02  0.51100000000E-03 0.  1.
         11   -1    0    0    0    0 -0.00000000000E+00 -0.00000000000E+00 -0.45593999997E+02  0.45594000000E+02  0.51100000000E-03 0. -1.
    9900012    2    1    2    0    0  0.20135280309E+02 -0.71400830536E+00 -0.24713969332E+02  0.59301959149E+02  0.50000027578E+02 0.  0.
        -12    1    1    2    0    0 -0.20135280309E+02  0.71400830536E+00  0.24713969332E+02  0.31886040851E+02  0.00000000000E+00 0.  1.
         11    1    3    3    0    0 -0.41694863799E+01  0.15373074691E+02 -0.54647960882E+01  0.16839834877E+02  0.51100000000E-03 0. -1.
        -11    1    3    3    0    0  0.26554789847E+02 -0.15208832097E+02 -0.89502077906E+01  0.31883720883E+02  0.51100000000E-03 0.  1.
         12    1    3    3    0    0 -0.22500231585E+01 -0.87825089886E+00 -0.10298965454E+02  0.10578403389E+02  0.00000000000E+00 0. -1.
</event>
<event>
 7    1  0.1096439E-011  0.5930195E+02  0.7816164E-02  0.1266605E+00
        -11   -1    0    0    0    0  0.00000000000E+00  0.00000000000E+00  0.45593999997E+02  0.45594000000E+02  0.51100000000E-03 0.  1.
         11   -1    0    0    0    0 -0.00000000000E+00 -0.00000000000E+00 -0.45593999997E+02  0.45594000000E+02  0.51100000000E-03 0. -1.
    9900012    2    1    2    0    0 -0.97852788080E+01  0.20404439004E+02 -0.22463915516E+02  0.59301947991E+02  0.50000007228E+02 0.  0.
        -12    1    1    2    0    0  0.97852788080E+01 -0.20404439004E+02  0.22463915516E+02  0.31886052009E+02  0.00000000000E+00 0.  1.
         11    1    3    3    0    0  0.60153073825E+01  0.61569244099E+01 -0.27433717214E+02  0.28752399579E+02  0.51100000000E-03 0. -1.
        -11    1    3    3    0    0 -0.16338687589E+02  0.17740564890E+02  0.84828151112E+01  0.25566354985E+02  0.51100000000E-03 0.  1.
        -12    1    3    3    0    0  0.53810139828E+00 -0.34930502967E+01 -0.35130134135E+01  0.49831934272E+01  0.00000000000E+00 0.  1.
</event>
<event>
 7    1  0.1096439E-011  0.5930194E+02  0.7816164E-02  0.1266605E+00
        -11   -1    0    0    0    0  0.00000000000E+00  0.00000000000E+00  0.45593999997E+02  0.45594000000E+02  0.51100000000E-03 0.  1.
         11   -1    0    0    0    0 -0.00000000000E+00 -0.00000000000E+00 -0.45593999997E+02  0.45594000000E+02  0.51100000000E-03 0. -1.
    9900012    2    1    2    0    0  0.26839023516E+02 -0.15773738757E+02 -0.68975840640E+01  0.59301942175E+02  0.49999996622E+02 0.  0.
        -12    1    1    2    0    0 -0.26839023516E+02  0.15773738757E+02  0.68975840640E+01  0.31886057825E+02  0.00000000000E+00 0.  1.
         11    1    3    3    0    0  0.91686848112E+01  0.66879750972E+01 -0.16929293079E+02  0.20381235401E+02  0.51100000000E-03 0. -1.
        -11    1    3    3    0    0 -0.22056465247E+01 -0.68825124401E+01  0.11545844942E+02  0.13621321146E+02  0.51100000000E-03 0.  1.
         12    1    3    3    0    0  0.19875985230E+02 -0.15579201414E+02 -0.15141359278E+01  0.25299385628E+02  0.00000000000E+00 0. -1.
</event>
<event>
 7    1  0.1096439E-011  0.5930195E+02  0.7816164E-02  0.1266605E+00
        -11   -1    0    0    0    0  0.00000000000E+00  0.00000000000E+00  0.45593999997E+02  0.45594000000E+02  0.51100000000E-03 0.  1.
         11   -1    0    0    0    0 -0.00000000000E+00 -0.00000000000E+00 -0.45593999997E+02  0.45594000000E+02  0.51100000000E-03 0. -1.
    9900012    2    1    2    0    0  0.14940382741E+02 -0.41352943656E+01 -0.27864036641E+02  0.59301949227E+02  0.50000009483E+02 0.  0.
        -12    1    1    2    0    0 -0.14940382741E+02  0.41352943656E+01  0.27864036641E+02  0.31886050773E+02  0.00000000000E+00 0.  1.
         11    1    3    3    0    0 -0.59421287391E+01  0.15213953877E+02 -0.12584958686E+02  0.20619274282E+02  0.51100000000E-03 0.  1.
        -11    1    3    3    0    0  0.20859970004E+02 -0.74116294920E+01 -0.15001802566E+02  0.26741815211E+02  0.51100000000E-03 0. -1.
        -12    1    3    3    0    0  0.22541476674E-01 -0.11937618751E+02 -0.27727538995E+00  0.11940859735E+02  0.00000000000E+00 0.  1.
</event>
<event>
 7    1  0.1096439E-011  0.5930195E+02  0.7816164E-02  0.1266605E+00
        -11   -1    0    0    0    0  0.00000000000E+00  0.00000000000E+00  0.45593999997E+02  0.45594000000E+02  0.51100000000E-03 0. -1.
         11   -1    0    0    0    0 -0.00000000000E+00 -0.00000000000E+00 -0.45593999997E+02  0.45594000000E+02  0.51100000000E-03 0.  1.
    9900012    2    1    2    0    0  0.21409284526E+02 -0.11377888387E+02 -0.20710058236E+02  0.59301947873E+02  0.50000007014E+02 0.  0.
        -12    1    1    2    0    0 -0.21409284526E+02  0.11377888387E+02  0.20710058236E+02  0.31886052127E+02  0.00000000000E+00 0.  1.
         11    1    3    3    0    0  0.30270414859E+02 -0.12807158646E+02 -0.15304501818E+02  0.36256711164E+02  0.51100000000E-03 0. -1.
        -11    1    3    3    0    0 -0.62083999839E+01  0.10782016218E+02 -0.13615012110E+01  0.12515981379E+02  0.51100000000E-03 0.  1.
         12    1    3    3    0    0 -0.26527303489E+01 -0.93527459591E+01 -0.40440552074E+01  0.10529255330E+02  0.00000000000E+00 0. -1.
</event>
<event>
 7    1  0.1096439E-011  0.5930187E+02  0.7816164E-02  0.1266605E+00
        -11   -1    0    0    0    0  0.00000000000E+00  0.00000000000E+00  0.45593999997E+02  0.45594000000E+02  0.51100000000E-03 0. -1.
         11   -1    0    0    0    0 -0.00000000000E+00 -0.00000000000E+00 -0.45593999997E+02  0.45594000000E+02  0.51100000000E-03 0.  1.
    9900012    2    1    2    0    0 -0.18366608039E+02 -0.23197197646E+02  0.11886250077E+02  0.59301871192E+02  0.49999867165E+02 0.  0.
        -12    1    1    2    0    0  0.18366608039E+02  0.23197197646E+02 -0.11886250077E+02  0.31886128808E+02  0.00000000000E+00 0.  1.
         11    1    3    3    0    0 -0.27042863146E+01 -0.58260270874E+01  0.63163690005E+01  0.90084556782E+01  0.51100000000E-03 0. -1.
        -11    1    3    3    0    0 -0.14317976606E+02  0.26072013002E+01 -0.15475946310E+02  0.21243984258E+02  0.51100000000E-03 0.  1.
        -12    1    3    3    0    0 -0.13443451184E+01 -0.19978371858E+02  0.21045827386E+02  0.29049431256E+02  0.00000000000E+00 0.  1.
</event>
<event>
 7    1  0.1096439E-011  0.5930193E+02  0.7816164E-02  0.1266605E+00
        -11   -1    0    0    0    0  0.00000000000E+00  0.00000000000E+00  0.45593999997E+02  0.45594000000E+02  0.51100000000E-03 0.  1.
         11   -1    0    0    0    0 -0.00000000000E+00 -0.00000000000E+00 -0.45593999997E+02  0.45594000000E+02  0.51100000000E-03 0. -1.
    9900012    2    1    2    0    0  0.31702315326E+02 -0.24583635851E+01 -0.23750876956E+01  0.59301931097E+02  0.49999976417E+02 0.  0.
        -12    1    1    2    0    0 -0.31702315326E+02  0.24583635851E+01  0.23750876956E+01  0.31886068903E+02  0.00000000000E+00 0.  1.
         11    1    3    3    0    0  0.11068883553E+02  0.69633705897E+00 -0.62557373496E+01  0.12733393831E+02  0.51100000000E-03 0. -1.
        -11    1    3    3    0    0 -0.99090222961E+01  0.52738007363E+01 -0.68102371912E+01  0.13129395566E+02  0.51100000000E-03 0.  1.
        -12    1    3    3    0    0  0.30542454069E+02 -0.84285013803E+01  0.10690886845E+02  0.33439141700E+02  0.00000000000E+00 0.  1.
</event>
<event>
 7    1  0.1096439E-011  0.5930191E+02  0.7816164E-02  0.1266605E+00
        -11   -1    0    0    0    0  0.00000000000E+00  0.00000000000E+00  0.45593999997E+02  0.45594000000E+02  0.51100000000E-03 0.  1.
         11   -1    0    0    0    0 -0.00000000000E+00 -0.00000000000E+00 -0.45593999997E+02  0.45594000000E+02  0.51100000000E-03 0. -1.
    9900012    2    1    2    0    0 -0.16099400579E+02  0.67495094319E+01 -0.26682877036E+02  0.59301913638E+02  0.49999944576E+02 0.  0.
        -12    1    1    2    0    0  0.16099400579E+02 -0.67495094319E+01  0.26682877036E+02  0.31886086362E+02  0.00000000000E+00 0.  1.
         11    1    3    3    0    0  0.14812383866E+01 -0.16669649304E+01 -0.32540072840E+02  0.32616394343E+02  0.51100000000E-03 0. -1.
        -11    1    3    3    0    0 -0.16138715903E+02  0.31699738260E+01  0.10516720354E+02  0.19521995090E+02  0.51100000000E-03 0.  1.
        -12    1    3    3    0    0 -0.14419230635E+01  0.52465005363E+01 -0.46595245498E+01  0.71635242045E+01  0.00000000000E+00 0.  1.
</event>
<event>
 7    1  0.1096439E-011  0.5930193E+02  0.7816164E-02  0.1266605E+00
        -11   -1    0    0    0    0  0.00000000000E+00  0.00000000000E+00  0.45593999997E+02  0.45594000000E+02  0.51100000000E-03 0. -1.
         11   -1    0    0    0    0 -0.00000000000E+00 -0.00000000000E+00 -0.45593999997E+02  0.45594000000E+02  0.51100000000E-03 0.  1.
    9900012    2    1    2    0    0 -0.28939100998E+02 -0.64092284591E+01  0.11754657150E+02  0.59301925599E+02  0.49999966390E+02 0.  0.
        -12    1    1    2    0    0  0.28939100998E+02  0.64092284591E+01 -0.11754657150E+02  0.31886074401E+02  0.00000000000E+00 0.  1.
         11    1    3    3    0    0 -0.32127408206E+01  0.17211570423E+02  0.10963399179E+02  0.20658073043E+02  0.51100000000E-03 0. -1.
        -11    1    3    3    0    0 -0.10689679444E+02 -0.20487663479E+02 -0.12854804651E+01  0.23144460714E+02  0.51100000000E-03 0.  1.
        -12    1    3    3    0    0 -0.15036680733E+02 -0.31331354032E+01  0.20767384359E+01  0.15499391842E+02  0.00000000000E+00 0.  1.
</event>
<event>
 7    1  0.1096439E-011  0.5930194E+02  0.7816164E-02  0.1266605E+00
        -11   -1    0    0    0    0  0.00000000000E+00  0.00000000000E+00  0.45593999997E+02  0.45594000000E+02  0.51100000000E-03 0.  1.
         11   -1    0    0    0    0 -0.00000000000E+00 -0.00000000000E+00 -0.45593999997E+02  0.45594000000E+02  0.51100000000E-03 0. -1.
    9900012    2    1    2    0    0  0.40890915018E+01  0.21362102136E+02 -0.23316527751E+02  0.59301944375E+02  0.50000000633E+02 0.  0.
        -12    1    1    2    0    0 -0.40890915018E+01 -0.21362102136E+02  0.23316527751E+02  0.31886055625E+02  0.00000000000E+00 0.  1.
         11    1    3    3    0    0  0.79233949292E+01  0.49421164980E+01 -0.13191063338E+02  0.16161957027E+02  0.51100000000E-03 0. -1.
        -11    1    3    3    0    0 -0.43843638861E+00 -0.10110803785E+02  0.61381868554E+01  0.11836296624E+02  0.51100000000E-03 0.  1.
        -12    1    3    3    0    0 -0.33958670388E+01  0.26530789423E+02 -0.16263651269E+02  0.31303690723E+02  0.00000000000E+00 0.  1.
</event>
<event>
 7    1  0.1096439E-011  0.5930193E+02  0.7816164E-02  0.1266605E+00
        -11   -1    0    0    0    0  0.00000000000E+00  0.00000000000E+00  0.45593999997E+02  0.45594000000E+02  0.51100000000E-03 0. -1.
         11   -1    0    0    0    0 -0.00000000000E+00 -0.00000000000E+00 -0.45593999997E+02  0.45594000000E+02  0.51100000000E-03 0.  1.
    9900012    2    1    2    0    0  0.14836190151E+02 -0.83626809102E+00  0.28211870574E+02  0.59301929001E+02  0.49999972594E+02 0.  0.
        -12    1    1    2    0    0 -0.14836190151E+02  0.83626809102E+00 -0.28211870574E+02  0.31886070999E+02  0.00000000000E+00 0.  1.
         11    1    3    3    0    0 -0.15371420290E+02 -0.58441437295E+00  0.52278176478E+01  0.16246605168E+02  0.51100000000E-03 0. -1.
        -11    1    3    3    0    0  0.11983500397E+02  0.28544856821E+00 -0.19728269062E+01  0.12148160722E+02  0.51100000000E-03 0.  1.
         12    1    3    3    0    0  0.18224110043E+02 -0.53730228629E+00  0.24956879832E+02  0.30907163111E+02  0.00000000000E+00 0. -1.
</event>
<event>
 7    1  0.1096439E-011  0.5930194E+02  0.7816164E-02  0.1266605E+00
        -11   -1    0    0    0    0  0.00000000000E+00  0.00000000000E+00  0.45593999997E+02  0.45594000000E+02  0.51100000000E-03 0. -1.
         11   -1    0    0    0    0 -0.00000000000E+00 -0.00000000000E+00 -0.45593999997E+02  0.45594000000E+02  0.51100000000E-03 0.  1.
    9900012    2    1    2    0    0  0.88039383278E+01  0.44885595049E+01 -0.30316069036E+02  0.59301944454E+02  0.50000000778E+02 0.  0.
        -12    1    1    2    0    0 -0.88039383278E+01 -0.44885595049E+01  0.30316069036E+02  0.31886055546E+02  0.00000000000E+00 0.  1.
         11    1    3    3    0    0 -0.12782613709E+02 -0.26394535025E+01 -0.13405755821E+02  0.18710323819E+02  0.51100000000E-03 0. -1.
        -11    1    3    3    0    0  0.20069083369E+02  0.16048145861E+02 -0.18148279765E+02  0.31459039266E+02  0.51100000000E-03 0.  1.
        -12    1    3    3    0    0  0.15174686676E+01 -0.89201328534E+01  0.12379665503E+01  0.91325813688E+01  0.00000000000E+00 0.  1.
</event>
<event>
 7    1  0.1096439E-011  0.5930195E+02  0.7816164E-02  0.1266605E+00
        -11   -1    0    0    0    0  0.00000000000E+00  0.00000000000E+00  0.45593999997E+02  0.45594000000E+02  0.51100000000E-03 0. -1.
         11   -1    0    0    0    0 -0.00000000000E+00 -0.00000000000E+00 -0.45593999997E+02  0.45594000000E+02  0.51100000000E-03 0.  1.
    9900012    2    1    2    0    0  0.42235843040E+01 -0.91865259581E+01  0.30240525384E+02  0.59301948206E+02  0.50000007620E+02 0.  0.
        -12    1    1    2    0    0 -0.42235843040E+01  0.91865259581E+01 -0.30240525384E+02  0.31886051794E+02  0.00000000000E+00 0.  1.
         11    1    3    3    0    0 -0.59460061380E+01 -0.13310237006E+02  0.43747562134E+01  0.15220246067E+02  0.51100000000E-03 0. -1.
        -11    1    3    3    0    0  0.16824904357E+02 -0.65151203367E+01  0.34162635290E+01  0.18362871682E+02  0.51100000000E-03 0.  1.
        -12    1    3    3    0    0 -0.66553139155E+01  0.10638831385E+02  0.22449505641E+02  0.25718830457E+02  0.00000000000E+00 0.  1.
</event>
<event>
 7    1  0.1096439E-011  0.5930194E+02  0.7816164E-02  0.1266605E+00
        -11   -1    0    0    0    0  0.00000000000E+00  0.00000000000E+00  0.45593999997E+02  0.45594000000E+02  0.51100000000E-03 0.  1.
         11   -1    0    0    0    0 -0.00000000000E+00 -0.00000000000E+00 -0.45593999997E+02  0.45594000000E+02  0.51100000000E-03 0. -1.
    9900012    2    1    2    0    0  0.25264956014E+02  0.64077589957E+01 -0.18366903604E+02  0.59301944651E+02  0.50000001137E+02 0.  0.
        -12    1    1    2    0    0 -0.25264956014E+02 -0.64077589957E+01  0.18366903604E+02  0.31886055349E+02  0.00000000000E+00 0.  1.
         11    1    3    3    0    0  0.35940002006E+02  0.13186915998E+02 -0.10297494537E+02  0.39643623595E+02  0.51100000000E-03 0.  1.
        -11    1    3    3    0    0 -0.79403404887E+01 -0.24859493895E+01 -0.10994150023E+02  0.13787686044E+02  0.51100000000E-03 0. -1.
        -12    1    3    3    0    0 -0.27347055034E+01 -0.42932076124E+01  0.29247409566E+01  0.58706350131E+01  0.00000000000E+00 0.  1.
</event>
<event>
 7    1  0.1096439E-011  0.5930204E+02  0.7816164E-02  0.1266604E+00
        -11   -1    0    0    0    0  0.00000000000E+00  0.00000000000E+00  0.45593999997E+02  0.45594000000E+02  0.51100000000E-03 0.  1.
         11   -1    0    0    0    0 -0.00000000000E+00 -0.00000000000E+00 -0.45593999997E+02  0.45594000000E+02  0.51100000000E-03 0. -1.
    9900012    2    1    2    0    0  0.26817036122E+02 -0.88344965993E+01 -0.14815965499E+02  0.59302037725E+02  0.50000170881E+02 0.  0.
        -12    1    1    2    0    0 -0.26817036122E+02  0.88344965993E+01  0.14815965499E+02  0.31885962275E+02  0.00000000000E+00 0.  1.
         11    1    3    3    0    0  0.32626923735E+02 -0.54101302884E+01  0.62824647328E+01  0.33663853396E+02  0.51100000000E-03 0. -1.
        -11    1    3    3    0    0 -0.67512668751E+01 -0.73284780636E+01 -0.17969202588E+02  0.20546981216E+02  0.51100000000E-03 0.  1.
        -12    1    3    3    0    0  0.94137926298E+00  0.39041117527E+01 -0.31292276430E+01  0.50912031128E+01  0.00000000000E+00 0.  1.
</event>
<event>
 7    1  0.1096439E-011  0.5930196E+02  0.7816164E-02  0.1266605E+00
        -11   -1    0    0    0    0  0.00000000000E+00  0.00000000000E+00  0.45593999997E+02  0.45594000000E+02  0.51100000000E-03 0.  1.
         11   -1    0    0    0    0 -0.00000000000E+00 -0.00000000000E+00 -0.45593999997E+02  0.45594000000E+02  0.51100000000E-03 0. -1.
    9900012    2    1    2    0    0  0.11480579836E+02 -0.13936276305E+02 -0.26281096488E+02  0.59301960057E+02  0.50000029234E+02 0.  0.
        -12    1    1    2    0    0 -0.11480579836E+02  0.13936276305E+02  0.26281096488E+02  0.31886039943E+02  0.00000000000E+00 0.  1.
         11    1    3    3    0    0  0.14676793662E+02  0.94983005693E+01 -0.29703586609E+02  0.34466346537E+02  0.51100000000E-03 0. -1.
        -11    1    3    3    0    0 -0.19581645959E+01 -0.18299569872E+02 -0.24401742914E+00  0.18405657034E+02  0.51100000000E-03 0.  1.
        -12    1    3    3    0    0 -0.12380492304E+01 -0.51350070018E+01  0.36665075497E+01  0.64299564865E+01  0.00000000000E+00 0.  1.
</event>
<event>
 7    1  0.1096439E-011  0.5930195E+02  0.7816164E-02  0.1266605E+00
        -11   -1    0    0    0    0  0.00000000000E+00  0.00000000000E+00  0.45593999997E+02  0.45594000000E+02  0.51100000000E-03 0. -1.
         11   -1    0    0    0    0 -0.00000000000E+00 -0.00000000000E+00 -0.45593999997E+02  0.45594000000E+02  0.51100000000E-03 0.  1.
    9900012    2    1    2    0    0 -0.19206141727E+02 -0.18613403668E+02  0.17360458910E+02  0.59301949606E+02  0.50000010173E+02 0.  0.
        -12    1    1    2    0    0  0.19206141727E+02  0.18613403668E+02 -0.17360458910E+02  0.31886050394E+02  0.00000000000E+00 0.  1.
         11    1    3    3    0    0  0.65804532072E+01 -0.61406534106E+01  0.50855588801E+01  0.10337934905E+02  0.51100000000E-03 0. -1.
        -11    1    3    3    0    0 -0.20997269167E+02 -0.23462090833E+02 -0.44034441152E+00  0.31488869815E+02  0.51100000000E-03 0.  1.
        -12    1    3    3    0    0 -0.47893257668E+01  0.10989340575E+02  0.12715244442E+02  0.17475144886E+02  0.00000000000E+00 0.  1.
</event>
<event>
 7    1  0.1096439E-011  0.5930230E+02  0.7816164E-02  0.1266604E+00
        -11   -1    0    0    0    0  0.00000000000E+00  0.00000000000E+00  0.45593999997E+02  0.45594000000E+02  0.51100000000E-03 0.  1.
         11   -1    0    0    0    0 -0.00000000000E+00 -0.00000000000E+00 -0.45593999997E+02  0.45594000000E+02  0.51100000000E-03 0. -1.
    9900012    2    1    2    0    0  0.35864201701E+01  0.58576190414E+01 -0.31137179492E+02  0.59302296978E+02  0.50000643693E+02 0.  0.
        -12    1    1    2    0    0 -0.35864201701E+01 -0.58576190414E+01  0.31137179492E+02  0.31885703022E+02  0.00000000000E+00 0.  1.
         11    1    3    3    0    0 -0.69763289813E+01 -0.27483054503E+01 -0.13099882888E+02  0.15094014736E+02  0.51100000000E-03 0. -1.
        -11    1    3    3    0    0 -0.67472613438E+01  0.17590643054E+02 -0.19768882615E+01  0.18943715215E+02  0.51100000000E-03 0.  1.
        -12    1    3    3    0    0  0.17310010495E+02 -0.89847185619E+01 -0.16060408342E+02  0.25264567028E+02  0.00000000000E+00 0.  1.
</event>
<event>
 7    1  0.1096439E-011  0.5930201E+02  0.7816164E-02  0.1266605E+00
        -11   -1    0    0    0    0  0.00000000000E+00  0.00000000000E+00  0.45593999997E+02  0.45594000000E+02  0.51100000000E-03 0. -1.
         11   -1    0    0    0    0 -0.00000000000E+00 -0.00000000000E+00 -0.45593999997E+02  0.45594000000E+02  0.51100000000E-03 0.  1.
    9900012    2    1    2    0    0  0.14802010770E+02 -0.18394495256E+02  0.21430336349E+02  0.59302010999E+02  0.50000122139E+02 0.  0.
        -12    1    1    2    0    0 -0.14802010770E+02  0.18394495256E+02 -0.21430336349E+02  0.31885989001E+02  0.00000000000E+00 0.  1.
         11    1    3    3    0    0  0.33886156521E+01  0.13036223771E+02 -0.28794691801E+01  0.13773786308E+02  0.51100000000E-03 0. -1.
        -11    1    3    3    0    0  0.80187494871E+01 -0.88329209477E+01 -0.31514931132E+00  0.11933991585E+02  0.51100000000E-03 0.  1.
         12    1    3    3    0    0  0.33946456304E+01 -0.22597798080E+02  0.24624954841E+02  0.33594233105E+02  0.00000000000E+00 0. -1.
</event>
<event>
 7    1  0.1096439E-011  0.5930193E+02  0.7816164E-02  0.1266605E+00
        -11   -1    0    0    0    0  0.00000000000E+00  0.00000000000E+00  0.45593999997E+02  0.45594000000E+02  0.51100000000E-03 0. -1.
         11   -1    0    0    0    0 -0.00000000000E+00 -0.00000000000E+00 -0.45593999997E+02  0.45594000000E+02  0.51100000000E-03 0.  1.
    9900012    2    1    2    0    0  0.22031505811E+01 -0.31801633235E+02 -0.72365594567E+00  0.59301930520E+02  0.49999975366E+02 0.  0.
        -12    1    1    2    0    0 -0.22031505811E+01  0.31801633235E+02  0.72365594567E+00  0.31886069480E+02  0.00000000000E+00 0.  1.
         11    1    3    3    0    0 -0.15594128851E+02 -0.17524974414E+02  0.16536339537E+02  0.28701082007E+02  0.51100000000E-03 0. -1.
        -11    1    3    3    0    0  0.12803414377E+02 -0.14962677335E+02 -0.16079743474E+02  0.25423754310E+02  0.51100000000E-03 0.  1.
         12    1    3    3    0    0  0.49938650553E+01  0.68601851367E+00 -0.11802520082E+01  0.51770942038E+01  0.00000000000E+00 0. -1.
</event>
<event>
 7    1  0.1096439E-011  0.5930193E+02  0.7816164E-02  0.1266605E+00
        -11   -1    0    0    0    0  0.00000000000E+00  0.00000000000E+00  0.45593999997E+02  0.45594000000E+02  0.51100000000E-03 0.  1.
         11   -1    0    0    0    0 -0.00000000000E+00 -0.00000000000E+00 -0.45593999997E+02  0.45594000000E+02  0.51100000000E-03 0. -1.
    9900012    2    1    2    0    0  0.28580063530E+02  0.10961523849E+02  0.89300762249E+01  0.59301932543E+02  0.49999979055E+02 0.  0.
        -12    1    1    2    0    0 -0.28580063530E+02 -0.10961523849E+02 -0.89300762249E+01  0.31886067457E+02  0.00000000000E+00 0.  1.
         11    1    3    3    0    0  0.17542362085E+02  0.19729283454E+02 -0.12435749978E+02  0.29182648456E+02  0.51100000000E-03 0. -1.
        -11    1    3    3    0    0 -0.23878862087E+01 -0.38461717455E+01  0.12500028731E+02  0.13294576194E+02  0.51100000000E-03 0.  1.
         12    1    3    3    0    0  0.13425587653E+02 -0.49215878591E+01  0.88657974721E+01  0.16824707894E+02  0.00000000000E+00 0. -1.
</event>
<event>
 7    1  0.1096439E-011  0.5930196E+02  0.7816164E-02  0.1266605E+00
        -11   -1    0    0    0    0  0.00000000000E+00  0.00000000000E+00  0.45593999997E+02  0.45594000000E+02  0.51100000000E-03 0.  1.
         11   -1    0    0    0    0 -0.00000000000E+00 -0.00000000000E+00 -0.45593999997E+02  0.45594000000E+02  0.51100000000E-03 0. -1.
    9900012    2    1    2    0    0  0.78300119479E+01  0.62821264083E+01 -0.30264593938E+02  0.59301955316E+02  0.50000020588E+02 0.  0.
        -12    1    1    2    0    0 -0.78300119479E+01 -0.62821264083E+01  0.30264593938E+02  0.31886044684E+02  0.00000000000E+00 0.  1.
         11    1    3    3    0    0  0.16243797878E+01  0.76554747074E+01 -0.34802859945E+02  0.35671893183E+02  0.51100000000E-03 0. -1.
        -11    1    3    3    0    0  0.91606280937E+01  0.26679295232E+01  0.11570963891E+02  0.14997405130E+02  0.51100000000E-03 0.  1.
        -12    1    3    3    0    0 -0.29549959336E+01 -0.40412778223E+01 -0.70326978844E+01  0.86326570033E+01  0.00000000000E+00 0.  1.
</event>
<event>
 7    1  0.1096439E-011  0.5930193E+02  0.7816164E-02  0.1266605E+00
        -11   -1    0    0    0    0  0.00000000000E+00  0.00000000000E+00  0.45593999997E+02  0.45594000000E+02  0.51100000000E-03 0. -1.
         11   -1    0    0    0    0 -0.00000000000E+00 -0.00000000000E+00 -0.45593999997E+02  0.45594000000E+02  0.51100000000E-03 0.  1.
    9900012    2    1    2    0    0 -0.70600090385E+01  0.10014893437E+02  0.29437720830E+02  0.59301933672E+02  0.49999981114E+02 0.  0.
        -12    1    1    2    0    0  0.70600090385E+01 -0.10014893437E+02 -0.29437720830E+02  0.31886066328E+02  0.00000000000E+00 0.  1.
         11    1    3    3    0    0  0.18708581483E+02 -0.64132247340E+00  0.33355290843E+01  0.19014417429E+02  0.51100000000E-03 0. -1.
        -11    1    3    3    0    0 -0.14582145121E+02 -0.89190844399E+00  0.12580922103E+02  0.19279887402E+02  0.51100000000E-03 0.  1.
         12    1    3    3    0    0 -0.11186445400E+02  0.11548124355E+02  0.13521269643E+02  0.21007628842E+02  0.00000000000E+00 0. -1.
</event>
<event>
 7    1  0.1096439E-011  0.5930196E+02  0.7816164E-02  0.1266605E+00
        -11   -1    0    0    0    0  0.00000000000E+00  0.00000000000E+00  0.45593999997E+02  0.45594000000E+02  0.51100000000E-03 0.  1.
         11   -1    0    0    0    0 -0.00000000000E+00 -0.00000000000E+00 -0.45593999997E+02  0.45594000000E+02  0.51100000000E-03 0. -1.
    9900012    2    1    2    0    0  0.28121621158E+02 -0.14597462881E+02 -0.35788590508E+01  0.59301957109E+02  0.50000023858E+02 0.  0.
        -12    1    1    2    0    0 -0.28121621158E+02  0.14597462881E+02  0.35788590508E+01  0.31886042891E+02  0.00000000000E+00 0.  1.
         11    1    3    3    0    0  0.69621166606E+01 -0.13336676497E+02 -0.11273612355E+02  0.18799796387E+02  0.51100000000E-03 0. -1.
        -11    1    3    3    0    0  0.15016241799E+02 -0.12171456430E+02  0.16319944683E+02  0.25297677050E+02  0.51100000000E-03 0.  1.
         12    1    3    3    0    0  0.61432626986E+01  0.10910670046E+02 -0.86251913788E+01  0.15204483673E+02  0.00000000000E+00 0. -1.
</event>
<event>
 7    1  0.1096439E-011  0.5930192E+02  0.7816164E-02  0.1266605E+00
        -11   -1    0    0    0    0  0.00000000000E+00  0.00000000000E+00  0.45593999997E+02  0.45594000000E+02  0.51100000000E-03 0.  1.
         11   -1    0    0    0    0 -0.00000000000E+00 -0.00000000000E+00 -0.45593999997E+02  0.45594000000E+02  0.51100000000E-03 0. -1.
    9900012    2    1    2    0    0 -0.26988191834E+02 -0.16794955046E+02 -0.25078000389E+01  0.59301920365E+02  0.49999956844E+02 0.  0.
        -12    1    1    2    0    0  0.26988191834E+02  0.16794955046E+02  0.25078000389E+01  0.31886079635E+02  0.00000000000E+00 0.  1.
         11    1    3    3    0    0  0.10366964172E+02  0.33686512699E+01 -0.74302094465E+01  0.13192034347E+02  0.51100000000E-03 0. -1.
        -11    1    3    3    0    0 -0.20920707705E+02 -0.16017657893E+02 -0.44810290358E+01  0.26726784257E+02  0.51100000000E-03 0.  1.
        -12    1    3    3    0    0 -0.16434448301E+02 -0.41459484232E+01  0.94034384434E+01  0.19383101760E+02  0.00000000000E+00 0.  1.
</event>
<event>
 7    1  0.1096439E-011  0.5930195E+02  0.7816164E-02  0.1266605E+00
        -11   -1    0    0    0    0  0.00000000000E+00  0.00000000000E+00  0.45593999997E+02  0.45594000000E+02  0.51100000000E-03 0.  1.
         11   -1    0    0    0    0 -0.00000000000E+00 -0.00000000000E+00 -0.45593999997E+02  0.45594000000E+02  0.51100000000E-03 0. -1.
    9900012    2    1    2    0    0 -0.19563093733E+02  0.10572028357E+02 -0.22852526531E+02  0.59301946798E+02  0.50000005052E+02 0.  0.
        -12    1    1    2    0    0  0.19563093733E+02 -0.10572028357E+02  0.22852526531E+02  0.31886053202E+02  0.00000000000E+00 0.  1.
         11    1    3    3    0    0 -0.26898776967E+02 -0.43931704262E-01 -0.38060077363E+01  0.27166741200E+02  0.51100000000E-03 0. -1.
        -11    1    3    3    0    0 -0.37652119326E+01  0.13817196260E+02 -0.10942776228E+02  0.18023209626E+02  0.51100000000E-03 0.  1.
         12    1    3    3    0    0  0.11100895167E+02 -0.32012361987E+01 -0.81037425669E+01  0.14111995971E+02  0.00000000000E+00 0. -1.
</event>
<event>
 7    1  0.1096439E-011  0.5930197E+02  0.7816164E-02  0.1266605E+00
        -11   -1    0    0    0    0  0.00000000000E+00  0.00000000000E+00  0.45593999997E+02  0.45594000000E+02  0.51100000000E-03 0.  1.
         11   -1    0    0    0    0 -0.00000000000E+00 -0.00000000000E+00 -0.45593999997E+02  0.45594000000E+02  0.51100000000E-03 0. -1.
    9900012    2    1    2    0    0 -0.28378775764E+02 -0.82776790836E+01 -0.11951733363E+02  0.59301971473E+02  0.50000050054E+02 0.  0.
        -12    1    1    2    0    0  0.28378775764E+02  0.82776790836E+01  0.11951733363E+02  0.31886028527E+02  0.00000000000E+00 0.  1.
         11    1    3    3    0    0 -0.11397182544E+02  0.59307060464E+01  0.16414615714E+02  0.20844871155E+02  0.51100000000E-03 0. -1.
        -11    1    3    3    0    0  0.19027918338E+01 -0.41284777531E+01 -0.54800766545E+01  0.71201254006E+01  0.51100000000E-03 0.  1.
         12    1    3    3    0    0 -0.18884385054E+02 -0.10079907377E+02 -0.22886272423E+02  0.31336974918E+02  0.00000000000E+00 0. -1.
</event>
<event>
 7    1  0.1096439E-011  0.5930194E+02  0.7816164E-02  0.1266605E+00
        -11   -1    0    0    0    0  0.00000000000E+00  0.00000000000E+00  0.45593999997E+02  0.45594000000E+02  0.51100000000E-03 0.  1.
         11   -1    0    0    0    0 -0.00000000000E+00 -0.00000000000E+00 -0.45593999997E+02  0.45594000000E+02  0.51100000000E-03 0. -1.
    9900012    2    1    2    0    0  0.20033489205E+02  0.22302306751E+02 -0.10862195293E+02  0.59301939366E+02  0.49999991499E+02 0.  0.
        -12    1    1    2    0    0 -0.20033489205E+02 -0.22302306751E+02  0.10862195293E+02  0.31886060634E+02  0.00000000000E+00 0.  1.
         11    1    3    3    0    0  0.24306106761E+02  0.30304685795E+02 -0.65327058082E+01  0.39393363051E+02  0.51100000000E-03 0. -1.
        -11    1    3    3    0    0  0.19272066244E+01 -0.52027955942E+01 -0.97448739297E+01  0.11213642385E+02  0.51100000000E-03 0.  1.
        -12    1    3    3    0    0 -0.61998241807E+01 -0.27995834503E+01  0.54153844445E+01  0.86949339300E+01  0.00000000000E+00 0.  1.
</event>
<event>
 7    1  0.1096439E-011  0.5930178E+02  0.7816164E-02  0.1266605E+00
        -11   -1    0    0    0    0  0.00000000000E+00  0.00000000000E+00  0.45593999997E+02  0.45594000000E+02  0.51100000000E-03 0.  1.
         11   -1    0    0    0    0 -0.00000000000E+00 -0.00000000000E+00 -0.45593999997E+02  0.45594000000E+02  0.51100000000E-03 0. -1.
    9900012    2    1    2    0    0 -0.21948600964E+02 -0.15997040308E+02 -0.16705817137E+02  0.59301784968E+02  0.49999709912E+02 0.  0.
        -12    1    1    2    0    0  0.21948600964E+02  0.15997040308E+02  0.16705817137E+02  0.31886215032E+02  0.00000000000E+00 0.  1.
         11    1    3    3    0    0 -0.18167438472E+02 -0.11026144360E+02 -0.14890472355E+02  0.25949139625E+02  0.51100000000E-03 0. -1.
        -11    1    3    3    0    0  0.13918056770E+02 -0.18596818326E+01 -0.53705778049E+01  0.15033756250E+02  0.51100000000E-03 0.  1.
        -12    1    3    3    0    0 -0.17699219261E+02 -0.31112141155E+01  0.35552330228E+01  0.18318889092E+02  0.00000000000E+00 0.  1.
</event>
<event>
 7    1  0.1096439E-011  0.5930196E+02  0.7816164E-02  0.1266605E+00
        -11   -1    0    0    0    0  0.00000000000E+00  0.00000000000E+00  0.45593999997E+02  0.45594000000E+02  0.51100000000E-03 0. -1.
         11   -1    0    0    0    0 -0.00000000000E+00 -0.00000000000E+00 -0.45593999997E+02  0.45594000000E+02  0.51100000000E-03 0.  1.
    9900012    2    1    2    0    0 -0.14957203084E+02  0.27632605648E+02 -0.54259566339E+01  0.59301955648E+02  0.50000021193E+02 0.  0.
        -12    1    1    2    0    0  0.14957203084E+02 -0.27632605648E+02  0.54259566339E+01  0.31886044352E+02  0.00000000000E+00 0.  1.
         11    1    3    3    0    0 -0.18754796422E+00  0.13011271246E+02  0.13959261678E+02  0.19083745453E+02  0.51100000000E-03 0. -1.
        -11    1    3    3    0    0 -0.70585482475E+01 -0.82970920530E+01 -0.78483318498E+01  0.13426136934E+02  0.51100000000E-03 0.  1.
         12    1    3    3    0    0 -0.77111068728E+01  0.22918426455E+02 -0.11536886462E+02  0.26792073261E+02  0.00000000000E+00 0. -1.
</event>
<event>
 7    1  0.1096439E-011  0.5930191E+02  0.7816164E-02  0.1266605E+00
        -11   -1    0    0    0    0  0.00000000000E+00  0.00000000000E+00  0.45593999997E+02  0.45594000000E+02  0.51100000000E-03 0. -1.
         11   -1    0    0    0    0 -0.00000000000E+00 -0.00000000000E+00 -0.45593999997E+02  0.45594000000E+02  0.51100000000E-03 0.  1.
    9900012    2    1    2    0    0 -0.20761858719E+01  0.14409777163E+02  0.28368475914E+02  0.59301911320E+02  0.49999940348E+02 0.  0.
        -12    1    1    2    0    0  0.20761858719E+01 -0.14409777163E+02 -0.28368475914E+02  0.31886088680E+02  0.00000000000E+00 0.  1.
         11    1    3    3    0    0  0.12471156899E+01  0.64662283211E+01  0.54670459731E+01  0.85589717944E+01  0.51100000000E-03 0. -1.
        -11    1    3    3    0    0  0.12307668103E+02 -0.11325773214E+02 -0.36365141724E+00  0.16729736269E+02  0.51100000000E-03 0.  1.
        -12    1    3    3    0    0 -0.15630969664E+02  0.19269322056E+02  0.23265081358E+02  0.34013203256E+02  0.00000000000E+00 0.  1.
</event>
<event>
 7    1  0.1096439E-011  0.5930195E+02  0.7816164E-02  0.1266605E+00
        -11   -1    0    0    0    0  0.00000000000E+00  0.00000000000E+00  0.45593999997E+02  0.45594000000E+02  0.51100000000E-03 0.  1.
         11   -1    0    0    0    0 -0.00000000000E+00 -0.00000000000E+00 -0.45593999997E+02  0.45594000000E+02  0.51100000000E-03 0. -1.
    9900012    2    1    2    0    0  0.12354887182E+02 -0.29278014788E+02 -0.26219536715E+01  0.59301952451E+02  0.50000015362E+02 0.  0.
        -12    1    1    2    0    0 -0.12354887182E+02  0.29278014788E+02  0.26219536715E+01  0.31886047549E+02  0.00000000000E+00 0.  1.
         11    1    3    3    0    0 -0.98294932656E+01  0.68631904717E+01  0.34269391806E+01  0.12468609935E+02  0.51100000000E-03 0. -1.
        -11    1    3    3    0    0  0.77134587642E+01 -0.58543427508E+01 -0.88919618556E+01  0.13146777592E+02  0.51100000000E-03 0.  1.
         12    1    3    3    0    0  0.14470921684E+02 -0.30286862509E+02  0.28430690035E+01  0.33686564924E+02  0.00000000000E+00 0. -1.
</event>
<event>
 7    1  0.1096439E-011  0.5930194E+02  0.7816164E-02  0.1266605E+00
        -11   -1    0    0    0    0  0.00000000000E+00  0.00000000000E+00  0.45593999997E+02  0.45594000000E+02  0.51100000000E-03 0. -1.
         11   -1    0    0    0    0 -0.00000000000E+00 -0.00000000000E+00 -0.45593999997E+02  0.45594000000E+02  0.51100000000E-03 0.  1.
    9900012    2    1    2    0    0  0.95229656595E+01  0.11483693772E+02  0.28180824816E+02  0.59301937450E+02  0.49999988004E+02 0.  0.
        -12    1    1    2    0    0 -0.95229656595E+01 -0.11483693772E+02 -0.28180824816E+02  0.31886062550E+02  0.00000000000E+00 0.  1.
         11    1    3    3    0    0  0.94006126190E+01  0.24030788573E+02  0.11456334658E+02  0.28232922646E+02  0.51100000000E-03 0.  1.
        -11    1    3    3    0    0  0.37862046234E+00 -0.80122585514E+01 -0.46132529995E+01  0.92532018268E+01  0.51100000000E-03 0. -1.
         12    1    3    3    0    0 -0.25626742177E+00 -0.45348362502E+01  0.21337743158E+02  0.21815812977E+02  0.00000000000E+00 0. -1.
</event>
<event>
 7    1  0.1096439E-011  0.5930189E+02  0.7816164E-02  0.1266605E+00
        -11   -1    0    0    0    0  0.00000000000E+00  0.00000000000E+00  0.45593999997E+02  0.45594000000E+02  0.51100000000E-03 0. -1.
         11   -1    0    0    0    0 -0.00000000000E+00 -0.00000000000E+00 -0.45593999997E+02  0.45594000000E+02  0.51100000000E-03 0.  1.
    9900012    2    1    2    0    0  0.17339366990E+02  0.11731648552E+01  0.26733759545E+02  0.59301892323E+02  0.49999905703E+02 0.  0.
        -12    1    1    2    0    0 -0.17339366990E+02 -0.11731648552E+01 -0.26733759545E+02  0.31886107677E+02  0.00000000000E+00 0.  1.
         11    1    3    3    0    0 -0.25626381555E+01  0.13455798225E+02  0.26102566958E+02  0.29478290694E+02  0.51100000000E-03 0. -1.
        -11    1    3    3    0    0  0.59155221014E+01 -0.12558898133E+02 -0.49834411665E+01  0.14749712206E+02  0.51100000000E-03 0.  1.
         12    1    3    3    0    0  0.13986483044E+02  0.27626476315E+00  0.56146337531E+01  0.15073889423E+02  0.00000000000E+00 0. -1.
</event>
<event>
 7    1  0.1096439E-011  0.5930195E+02  0.7816164E-02  0.1266605E+00
        -11   -1    0    0    0    0  0.00000000000E+00  0.00000000000E+00  0.45593999997E+02  0.45594000000E+02  0.51100000000E-03 0.  1.
         11   -1    0    0    0    0 -0.00000000000E+00 -0.00000000000E+00 -0.45593999997E+02  0.45594000000E+02  0.51100000000E-03 0. -1.
    9900012    2    1    2    0    0  0.99492293962E+01 -0.29851820467E+02  0.51577256125E+01  0.59301945301E+02  0.50000002323E+02 0.  0.
        -12    1    1    2    0    0 -0.99492293962E+01  0.29851820467E+02 -0.51577256125E+01  0.31886054699E+02  0.00000000000E+00 0.  1.
         11    1    3    3    0    0  0.16068545188E+01 -0.41073331457E+01 -0.53411406124E+01  0.69267561179E+01  0.51100000000E-03 0. -1.
        -11    1    3    3    0    0  0.21569654734E+02  0.61075067514E-01  0.88979435251E+01  0.23332962408E+02  0.51100000000E-03 0.  1.
        -12    1    3    3    0    0 -0.13227279857E+02 -0.25805562388E+02  0.16009226998E+01  0.29042226775E+02  0.00000000000E+00 0.  1.
</event>
<event>
 7    1  0.1096439E-011  0.5930200E+02  0.7816164E-02  0.1266605E+00
        -11   -1    0    0    0    0  0.00000000000E+00  0.00000000000E+00  0.45593999997E+02  0.45594000000E+02  0.51100000000E-03 0. -1.
         11   -1    0    0    0    0 -0.00000000000E+00 -0.00000000000E+00 -0.45593999997E+02  0.45594000000E+02  0.51100000000E-03 0.  1.
    9900012    2    1    2    0    0 -0.17743322454E+01 -0.30329797026E+02  0.96784263144E+01  0.59302003411E+02  0.50000108301E+02 0.  0.
        -12    1    1    2    0    0  0.17743322454E+01  0.30329797026E+02 -0.96784263144E+01  0.31885996589E+02  0.00000000000E+00 0.  1.
         11    1    3    3    0    0  0.15296293561E+02  0.14973075843E+01  0.11344955541E+02  0.19103050626E+02  0.51100000000E-03 0. -1.
        -11    1    3    3    0    0 -0.68871944361E+01 -0.23652673895E+02  0.55878356532E+01  0.25260766757E+02  0.51100000000E-03 0.  1.
        -12    1    3    3    0    0 -0.10183431371E+02 -0.81744307152E+01 -0.72543648802E+01  0.14938186028E+02  0.00000000000E+00 0.  1.
</event>
<event>
 7    1  0.1096439E-011  0.5930187E+02  0.7816164E-02  0.1266605E+00
        -11   -1    0    0    0    0  0.00000000000E+00  0.00000000000E+00  0.45593999997E+02  0.45594000000E+02  0.51100000000E-03 0.  1.
         11   -1    0    0    0    0 -0.00000000000E+00 -0.00000000000E+00 -0.45593999997E+02  0.45594000000E+02  0.51100000000E-03 0. -1.
    9900012    2    1    2    0    0 -0.11591027260E+02  0.53819251113E+01 -0.29213154700E+02  0.59301867617E+02  0.49999860644E+02 0.  0.
        -12    1    1    2    0    0  0.11591027260E+02 -0.53819251113E+01  0.29213154700E+02  0.31886132383E+02  0.00000000000E+00 0.  1.
         11    1    3    3    0    0 -0.20376647692E+01  0.17108347677E+02 -0.27572264906E+02  0.32512727205E+02  0.51100000000E-03 0. -1.
        -11    1    3    3    0    0  0.44502924448E+01 -0.90102103121E+01  0.48011216315E+01  0.11137313944E+02  0.51100000000E-03 0.  1.
         12    1    3    3    0    0 -0.14003654936E+02 -0.27162122536E+01 -0.64420114251E+01  0.15651826468E+02  0.00000000000E+00 0. -1.
</event>
<event>
 7    1  0.1096439E-011  0.5930193E+02  0.7816164E-02  0.1266605E+00
        -11   -1    0    0    0    0  0.00000000000E+00  0.00000000000E+00  0.45593999997E+02  0.45594000000E+02  0.51100000000E-03 0. -1.
         11   -1    0    0    0    0 -0.00000000000E+00 -0.00000000000E+00 -0.45593999997E+02  0.45594000000E+02  0.51100000000E-03 0.  1.
    9900012    2    1    2    0    0 -0.26894990050E+02  0.83119444337E+01  0.14976404462E+02  0.59301927795E+02  0.49999970395E+02 0.  0.
        -12    1    1    2    0    0  0.26894990050E+02 -0.83119444337E+01 -0.14976404462E+02  0.31886072205E+02  0.00000000000E+00 0.  1.
         11    1    3    3    0    0 -0.25858838487E+02  0.19769111156E+02  0.13679606650E+02  0.35307632634E+02  0.51100000000E-03 0. -1.
        -11    1    3    3    0    0 -0.40746608256E+01 -0.16337436951E+02 -0.26164076748E+01  0.17039961748E+02  0.51100000000E-03 0.  1.
        -12    1    3    3    0    0  0.30385092624E+01  0.48802702287E+01  0.39132054867E+01  0.69543334134E+01  0.00000000000E+00 0.  1.
</event>
<event>
 7    1  0.1096439E-011  0.5930195E+02  0.7816164E-02  0.1266605E+00
        -11   -1    0    0    0    0  0.00000000000E+00  0.00000000000E+00  0.45593999997E+02  0.45594000000E+02  0.51100000000E-03 0.  1.
         11   -1    0    0    0    0 -0.00000000000E+00 -0.00000000000E+00 -0.45593999997E+02  0.45594000000E+02  0.51100000000E-03 0. -1.
    9900012    2    1    2    0    0  0.16992115735E+02  0.14765098197E+02 -0.22582737987E+02  0.59301950120E+02  0.50000011112E+02 0.  0.
        -12    1    1    2    0    0 -0.16992115735E+02 -0.14765098197E+02  0.22582737987E+02  0.31886049880E+02  0.00000000000E+00 0.  1.
         11    1    3    3    0    0  0.13297477663E+00  0.12242325004E+02  0.11709932839E+02  0.16941509117E+02  0.51100000000E-03 0. -1.
        -11    1    3    3    0    0  0.18470101138E+02 -0.33274101961E+01 -0.24957708786E+02  0.31226647639E+02  0.51100000000E-03 0.  1.
        -12    1    3    3    0    0 -0.16109601794E+01  0.58501833894E+01 -0.93349620409E+01  0.11133793365E+02  0.00000000000E+00 0.  1.
</event>
<event>
 7    1  0.1096439E-011  0.5930190E+02  0.7816164E-02  0.1266605E+00
        -11   -1    0    0    0    0  0.00000000000E+00  0.00000000000E+00  0.45593999997E+02  0.45594000000E+02  0.51100000000E-03 0.  1.
         11   -1    0    0    0    0 -0.00000000000E+00 -0.00000000000E+00 -0.45593999997E+02  0.45594000000E+02  0.51100000000E-03 0. -1.
    9900012    2    1    2    0    0 -0.14152553831E+02  0.17291994533E+02  0.22746774475E+02  0.59301896383E+02  0.49999913107E+02 0.  0.
        -12    1    1    2    0    0  0.14152553831E+02 -0.17291994533E+02 -0.22746774475E+02  0.31886103617E+02  0.00000000000E+00 0.  1.
         11    1    3    3    0    0 -0.10353813711E+02  0.12753346957E+02  0.69983676932E+01  0.17855712464E+02  0.51100000000E-03 0. -1.
        -11    1    3    3    0    0  0.13777587897E+02  0.78590333610E+01  0.17325532451E+02  0.23489580852E+02  0.51100000000E-03 0.  1.
        -12    1    3    3    0    0 -0.17576328017E+02 -0.33203857853E+01 -0.15771256684E+01  0.17956603067E+02  0.00000000000E+00 0.  1.
</event>
<event>
 7    1  0.1096439E-011  0.5930195E+02  0.7816164E-02  0.1266605E+00
        -11   -1    0    0    0    0  0.00000000000E+00  0.00000000000E+00  0.45593999997E+02  0.45594000000E+02  0.51100000000E-03 0. -1.
         11   -1    0    0    0    0 -0.00000000000E+00 -0.00000000000E+00 -0.45593999997E+02  0.45594000000E+02  0.51100000000E-03 0.  1.
    9900012    2    1    2    0    0 -0.20886368012E+01 -0.16259407584E+02  0.27349399716E+02  0.59301946567E+02  0.50000004632E+02 0.  0.
        -12    1    1    2    0    0  0.20886368012E+01  0.16259407584E+02 -0.27349399716E+02  0.31886053433E+02  0.00000000000E+00 0.  1.
         11    1    3    3    0    0  0.58202165040E+01 -0.18924860941E+02 -0.59305244461E+00  0.19808508103E+02  0.51100000000E-03 0. -1.
        -11    1    3    3    0    0 -0.14406507750E+02  0.10418773647E+02  0.17192493078E+02  0.24732167886E+02  0.51100000000E-03 0.  1.
        -12    1    3    3    0    0  0.64976544450E+01 -0.77533202898E+01  0.10749959082E+02  0.14761270578E+02  0.00000000000E+00 0.  1.
</event>
<event>
 7    1  0.1096439E-011  0.5930192E+02  0.7816164E-02  0.1266605E+00
        -11   -1    0    0    0    0  0.00000000000E+00  0.00000000000E+00  0.45593999997E+02  0.45594000000E+02  0.51100000000E-03 0.  1.
         11   -1    0    0    0    0 -0.00000000000E+00 -0.00000000000E+00 -0.45593999997E+02  0.45594000000E+02  0.51100000000E-03 0. -1.
    9900012    2    1    2    0    0  0.20834863672E+02  0.15460164937E+02 -0.18536817462E+02  0.59301923952E+02  0.49999963386E+02 0.  0.
        -12    1    1    2    0    0 -0.20834863672E+02 -0.15460164937E+02  0.18536817462E+02  0.31886076048E+02  0.00000000000E+00 0.  1.
         11    1    3    3    0    0 -0.52636756522E-01  0.24205230933E+02 -0.25032985394E+01  0.24334388815E+02  0.51100000000E-03 0.  1.
        -11    1    3    3    0    0  0.24326992411E+02 -0.58718037564E+01 -0.17163235723E+02  0.30345630655E+02  0.51100000000E-03 0. -1.
         12    1    3    3    0    0 -0.34394919820E+01 -0.28732622395E+01  0.11297167999E+01  0.46219044818E+01  0.00000000000E+00 0. -1.
</event>
<event>
 7    1  0.1096439E-011  0.5930191E+02  0.7816164E-02  0.1266605E+00
        -11   -1    0    0    0    0  0.00000000000E+00  0.00000000000E+00  0.45593999997E+02  0.45594000000E+02  0.51100000000E-03 0.  1.
         11   -1    0    0    0    0 -0.00000000000E+00 -0.00000000000E+00 -0.45593999997E+02  0.45594000000E+02  0.51100000000E-03 0. -1.
    9900012    2    1    2    0    0  0.48303041660E+01 -0.17712695364E+02 -0.26070126382E+02  0.59301907343E+02  0.49999933096E+02 0.  0.
        -12    1    1    2    0    0 -0.48303041660E+01  0.17712695364E+02  0.26070126382E+02  0.31886092657E+02  0.00000000000E+00 0.  1.
         11    1    3    3    0    0 -0.12627781503E+02 -0.10401188999E+02 -0.28243159386E+01  0.16601878179E+02  0.51100000000E-03 0. -1.
        -11    1    3    3    0    0  0.61767461343E+01  0.10984057166E+02 -0.15211895490E+02  0.19753568520E+02  0.51100000000E-03 0.  1.
        -12    1    3    3    0    0  0.11281339535E+02 -0.18295563530E+02 -0.80339149528E+01  0.22946460644E+02  0.00000000000E+00 0.  1.
</event>
<event>
 7    1  0.1096439E-011  0.5930195E+02  0.7816164E-02  0.1266605E+00
        -11   -1    0    0    0    0  0.00000000000E+00  0.00000000000E+00  0.45593999997E+02  0.45594000000E+02  0.51100000000E-03 0. -1.
         11   -1    0    0    0    0 -0.00000000000E+00 -0.00000000000E+00 -0.45593999997E+02  0.45594000000E+02  0.51100000000E-03 0.  1.
    9900012    2    1    2    0    0 -0.31331672549E+02  0.13277705655E+01  0.57692013615E+01  0.59301947191E+02  0.50000005768E+02 0.  0.
        -12    1    1    2    0    0  0.31331672549E+02 -0.13277705655E+01 -0.57692013615E+01  0.31886052809E+02  0.00000000000E+00 0.  1.
         11    1    3    3    0    0 -0.22384304808E+02  0.23804229385E+02  0.61339486409E+01  0.33246409800E+02  0.51100000000E-03 0. -1.
        -11    1    3    3    0    0 -0.89862036148E+01 -0.19090735977E+02  0.29642862920E+01  0.21307159572E+02  0.51100000000E-03 0.  1.
         12    1    3    3    0    0  0.38835873835E-01 -0.33857228421E+01 -0.33290335714E+01  0.47483778186E+01  0.00000000000E+00 0. -1.
</event>
<event>
 7    1  0.1096439E-011  0.5930195E+02  0.7816164E-02  0.1266605E+00
        -11   -1    0    0    0    0  0.00000000000E+00  0.00000000000E+00  0.45593999997E+02  0.45594000000E+02  0.51100000000E-03 0. -1.
         11   -1    0    0    0    0 -0.00000000000E+00 -0.00000000000E+00 -0.45593999997E+02  0.45594000000E+02  0.51100000000E-03 0.  1.
    9900012    2    1    2    0    0  0.25957052325E+00 -0.20074252465E+02  0.24772508783E+02  0.59301950068E+02  0.50000011015E+02 0.  0.
        -12    1    1    2    0    0 -0.25957052325E+00  0.20074252465E+02 -0.24772508783E+02  0.31886049932E+02  0.00000000000E+00 0.  1.
         11    1    3    3    0    0 -0.12552558398E+02 -0.24466246386E+01  0.18016414567E+02  0.22093978559E+02  0.51100000000E-03 0. -1.
        -11    1    3    3    0    0  0.22150452542E+02 -0.97892279069E+01  0.27407028608E+01  0.24371766108E+02  0.51100000000E-03 0.  1.
         12    1    3    3    0    0 -0.93383236205E+01 -0.78383999199E+01  0.40153913550E+01  0.12836205400E+02  0.00000000000E+00 0. -1.
</event>
<event>
 7    1  0.1096439E-011  0.5930195E+02  0.7816164E-02  0.1266605E+00
        -11   -1    0    0    0    0  0.00000000000E+00  0.00000000000E+00  0.45593999997E+02  0.45594000000E+02  0.51100000000E-03 0.  1.
         11   -1    0    0    0    0 -0.00000000000E+00 -0.00000000000E+00 -0.45593999997E+02  0.45594000000E+02  0.51100000000E-03 0. -1.
    9900012    2    1    2    0    0 -0.19542944179E+01 -0.59665345310E+01 -0.31261817842E+02  0.59301952021E+02  0.50000014577E+02 0.  0.
        -12    1    1    2    0    0  0.19542944179E+01  0.59665345310E+01  0.31261817842E+02  0.31886047979E+02  0.00000000000E+00 0.  1.
         11    1    3    3    0    0  0.12396577266E+02  0.23535874384E+01 -0.19782454261E+02  0.23464014971E+02  0.51100000000E-03 0. -1.
        -11    1    3    3    0    0 -0.14082488323E+02 -0.18408016622E+02 -0.46118086776E+01  0.23631342172E+02  0.51100000000E-03 0.  1.
         12    1    3    3    0    0 -0.26838336064E+00  0.10087894652E+02 -0.68675549034E+01  0.12206594877E+02  0.00000000000E+00 0. -1.
</event>
<event>
 7    1  0.1096439E-011  0.5930197E+02  0.7816164E-02  0.1266605E+00
        -11   -1    0    0    0    0  0.00000000000E+00  0.00000000000E+00  0.45593999997E+02  0.45594000000E+02  0.51100000000E-03 0.  1.
         11   -1    0    0    0    0 -0.00000000000E+00 -0.00000000000E+00 -0.45593999997E+02  0.45594000000E+02  0.51100000000E-03 0. -1.
    9900012    2    1    2    0    0 -0.30315496031E+01 -0.20084657296E+02 -0.24579160916E+02  0.59301970096E+02  0.50000047543E+02 0.  0.
        -12    1    1    2    0    0  0.30315496031E+01  0.20084657296E+02  0.24579160916E+02  0.31886029904E+02  0.00000000000E+00 0.  1.
         11    1    3    3    0    0  0.13126936024E+02 -0.71798077192E+01 -0.19719223373E+02  0.24753057568E+02  0.51100000000E-03 0. -1.
        -11    1    3    3    0    0 -0.18046482990E+02 -0.18331101898E+02  0.17596897465E+01  0.25783742036E+02  0.51100000000E-03 0.  1.
        -12    1    3    3    0    0  0.18879973625E+01  0.54262523220E+01 -0.66196272892E+01  0.87651704918E+01  0.00000000000E+00 0.  1.
</event>
<event>
 7    1  0.1096439E-011  0.5930196E+02  0.7816164E-02  0.1266605E+00
        -11   -1    0    0    0    0  0.00000000000E+00  0.00000000000E+00  0.45593999997E+02  0.45594000000E+02  0.51100000000E-03 0.  1.
         11   -1    0    0    0    0 -0.00000000000E+00 -0.00000000000E+00 -0.45593999997E+02  0.45594000000E+02  0.51100000000E-03 0. -1.
    9900012    2    1    2    0    0  0.21427745900E+02  0.81561899053E+01 -0.22159597770E+02  0.59301960712E+02  0.50000030428E+02 0.  0.
        -12    1    1    2    0    0 -0.21427745900E+02 -0.81561899053E+01  0.22159597770E+02  0.31886039288E+02  0.00000000000E+00 0.  1.
         11    1    3    3    0    0  0.39940108076E+01  0.16115393734E+02 -0.22052306927E+00  0.16604417129E+02  0.51100000000E-03 0. -1.
        -11    1    3    3    0    0  0.20240604647E+02 -0.44892450688E+01 -0.43691110001E+00  0.20737075236E+02  0.51100000000E-03 0.  1.
         12    1    3    3    0    0 -0.28068695547E+01 -0.34699587596E+01 -0.21502163601E+02  0.21960468347E+02  0.00000000000E+00 0. -1.
</event>
<event>
 7    1  0.1096439E-011  0.5930196E+02  0.7816164E-02  0.1266605E+00
        -11   -1    0    0    0    0  0.00000000000E+00  0.00000000000E+00  0.45593999997E+02  0.45594000000E+02  0.51100000000E-03 0.  1.
         11   -1    0    0    0    0 -0.00000000000E+00 -0.00000000000E+00 -0.45593999997E+02  0.45594000000E+02  0.51100000000E-03 0. -1.
    9900012    2    1    2    0    0  0.17763551347E+02 -0.52881108007E+01 -0.25946328150E+02  0.59301955768E+02  0.50000021411E+02 0.  0.
        -12    1    1    2    0    0 -0.17763551347E+02  0.52881108007E+01  0.25946328150E+02  0.31886044232E+02  0.00000000000E+00 0.  1.
         11    1    3    3    0    0  0.20325648972E+02 -0.72679675235E+01  0.85694442477E+01  0.23224787039E+02  0.51100000000E-03 0. -1.
        -11    1    3    3    0    0 -0.20502099629E+01  0.60243583404E+01 -0.19143322892E+02  0.20173325603E+02  0.51100000000E-03 0.  1.
         12    1    3    3    0    0 -0.51188766155E+00 -0.40445016176E+01 -0.15372449506E+02  0.15903843125E+02  0.00000000000E+00 0. -1.
</event>
<event>
 7    1  0.1096439E-011  0.5930188E+02  0.7816164E-02  0.1266605E+00
        -11   -1    0    0    0    0  0.00000000000E+00  0.00000000000E+00  0.45593999997E+02  0.45594000000E+02  0.51100000000E-03 0.  1.
         11   -1    0    0    0    0 -0.00000000000E+00 -0.00000000000E+00 -0.45593999997E+02  0.45594000000E+02  0.51100000000E-03 0. -1.
    9900012    2    1    2    0    0  0.16152085187E+02 -0.16189117599E+02 -0.22220428926E+02  0.59301876903E+02  0.49999877580E+02 0.  0.
        -12    1    1    2    0    0 -0.16152085187E+02  0.16189117599E+02  0.22220428926E+02  0.31886123097E+02  0.00000000000E+00 0.  1.
         11    1    3    3    0    0  0.14899919263E+02 -0.92495669983E+01  0.19212046938E+01  0.17642366945E+02  0.51100000000E-03 0.  1.
        -11    1    3    3    0    0 -0.15607954610E+02 -0.20830408239E+00 -0.89888954987E+01  0.18012547855E+02  0.51100000000E-03 0. -1.
        -12    1    3    3    0    0  0.16860120534E+02 -0.67312465179E+01 -0.15152738121E+02  0.23646962102E+02  0.00000000000E+00 0.  1.
</event>
<event>
 7    1  0.1096439E-011  0.5930196E+02  0.7816164E-02  0.1266605E+00
        -11   -1    0    0    0    0  0.00000000000E+00  0.00000000000E+00  0.45593999997E+02  0.45594000000E+02  0.51100000000E-03 0.  1.
         11   -1    0    0    0    0 -0.00000000000E+00 -0.00000000000E+00 -0.45593999997E+02  0.45594000000E+02  0.51100000000E-03 0. -1.
    9900012    2    1    2    0    0 -0.18323882767E+02 -0.43674725337E+01 -0.25727033208E+02  0.59301957071E+02  0.50000023787E+02 0.  0.
        -12    1    1    2    0    0  0.18323882767E+02  0.43674725337E+01  0.25727033208E+02  0.31886042929E+02  0.00000000000E+00 0.  1.
         11    1    3    3    0    0 -0.63035464033E+01 -0.18911097342E+02 -0.71916923981E+01  0.21191619564E+02  0.51100000000E-03 0. -1.
        -11    1    3    3    0    0 -0.48274080404E+01  0.21832540965E+02 -0.16187156871E+02  0.27604125801E+02  0.51100000000E-03 0.  1.
        -12    1    3    3    0    0 -0.71929283235E+01 -0.72889161569E+01 -0.23481839385E+01  0.10506211706E+02  0.00000000000E+00 0.  1.
</event>
<event>
 7    1  0.1096439E-011  0.5930195E+02  0.7816164E-02  0.1266605E+00
        -11   -1    0    0    0    0  0.00000000000E+00  0.00000000000E+00  0.45593999997E+02  0.45594000000E+02  0.51100000000E-03 0. -1.
         11   -1    0    0    0    0 -0.00000000000E+00 -0.00000000000E+00 -0.45593999997E+02  0.45594000000E+02  0.51100000000E-03 0.  1.
    9900012    2    1    2    0    0  0.14368102228E+02  0.28051910394E+02 -0.48340628044E+01  0.59301949734E+02  0.50000010407E+02 0.  0.
        -12    1    1    2    0    0 -0.14368102228E+02 -0.28051910394E+02  0.48340628044E+01  0.31886050266E+02  0.00000000000E+00 0.  1.
         11    1    3    3    0    0 -0.10529953822E+02 -0.18888337067E+01 -0.54142751526E+01  0.11990079064E+02  0.51100000000E-03 0.  1.
        -11    1    3    3    0    0  0.24796601198E+02  0.25373976927E+02  0.99848611606E+01  0.36856581349E+02  0.51100000000E-03 0. -1.
         12    1    3    3    0    0  0.10145485188E+00  0.45667671738E+01 -0.94046488125E+01  0.10455289321E+02  0.00000000000E+00 0. -1.
</event>
<event>
 7    1  0.1096439E-011  0.5930205E+02  0.7816164E-02  0.1266604E+00
        -11   -1    0    0    0    0  0.00000000000E+00  0.00000000000E+00  0.45593999997E+02  0.45594000000E+02  0.51100000000E-03 0.  1.
         11   -1    0    0    0    0 -0.00000000000E+00 -0.00000000000E+00 -0.45593999997E+02  0.45594000000E+02  0.51100000000E-03 0. -1.
    9900012    2    1    2    0    0  0.19124049815E+02 -0.23615157359E+02 -0.96596581882E+01  0.59302048003E+02  0.50000189626E+02 0.  0.
        -12    1    1    2    0    0 -0.19124049815E+02  0.23615157359E+02  0.96596581882E+01  0.31885951997E+02  0.00000000000E+00 0.  1.
         11    1    3    3    0    0 -0.66119953704E+01 -0.16070451779E+02 -0.20701542550E+02  0.27028351177E+02  0.51100000000E-03 0. -1.
        -11    1    3    3    0    0  0.10245721203E+02 -0.42888822101E+01  0.12080837910E+02  0.16410848803E+02  0.51100000000E-03 0.  1.
        -12    1    3    3    0    0  0.15490323983E+02 -0.32558233702E+01 -0.10389535487E+01  0.15862848023E+02  0.00000000000E+00 0.  1.
</event>
<event>
 7    1  0.1096439E-011  0.5930193E+02  0.7816164E-02  0.1266605E+00
        -11   -1    0    0    0    0  0.00000000000E+00  0.00000000000E+00  0.45593999997E+02  0.45594000000E+02  0.51100000000E-03 0.  1.
         11   -1    0    0    0    0 -0.00000000000E+00 -0.00000000000E+00 -0.45593999997E+02  0.45594000000E+02  0.51100000000E-03 0. -1.
    9900012    2    1    2    0    0 -0.86658309574E+01  0.27311476150E+02 -0.13989566368E+02  0.59301932151E+02  0.49999978340E+02 0.  0.
        -12    1    1    2    0    0  0.86658309574E+01 -0.27311476150E+02  0.13989566368E+02  0.31886067849E+02  0.00000000000E+00 0.  1.
         11    1    3    3    0    0 -0.22335770326E+02  0.23019001176E+02 -0.18837447424E+02  0.37196914884E+02  0.51100000000E-03 0. -1.
        -11    1    3    3    0    0  0.13714971672E+02  0.10005773835E+01 -0.25698773932E+01  0.13989491525E+02  0.51100000000E-03 0.  1.
         12    1    3    3    0    0 -0.45032303479E-01  0.32918975912E+01  0.74177584495E+01  0.81155257423E+01  0.00000000000E+00 0. -1.
</event>
<event>
 7    1  0.1096439E-011  0.5930194E+02  0.7816164E-02  0.1266605E+00
        -11   -1    0    0    0    0  0.00000000000E+00  0.00000000000E+00  0.45593999997E+02  0.45594000000E+02  0.51100000000E-03 0.  1.
         11   -1    0    0    0    0 -0.00000000000E+00 -0.00000000000E+00 -0.45593999997E+02  0.45594000000E+02  0.51100000000E-03 0. -1.
    9900012    2    1    2    0    0  0.75679273050E+01 -0.18869983283E+02 -0.24563606272E+02  0.59301944335E+02  0.50000000560E+02 0.  0.
        -12    1    1    2    0    0 -0.75679273050E+01  0.18869983283E+02  0.24563606272E+02  0.31886055665E+02  0.00000000000E+00 0.  1.
         11    1    3    3    0    0 -0.92338010638E+01 -0.40363892098E+01 -0.49733030555E+01  0.11237849593E+02  0.51100000000E-03 0. -1.
        -11    1    3    3    0    0  0.12029253855E+02  0.74653861174E+01  0.45358035030E+01  0.14866353012E+02  0.51100000000E-03 0.  1.
        -12    1    3    3    0    0  0.47724745139E+01 -0.22298980190E+02 -0.24126106720E+02  0.33197741730E+02  0.00000000000E+00 0.  1.
</event>
<event>
 7    1  0.1096439E-011  0.5930189E+02  0.7816164E-02  0.1266605E+00
        -11   -1    0    0    0    0  0.00000000000E+00  0.00000000000E+00  0.45593999997E+02  0.45594000000E+02  0.51100000000E-03 0.  1.
         11   -1    0    0    0    0 -0.00000000000E+00 -0.00000000000E+00 -0.45593999997E+02  0.45594000000E+02  0.51100000000E-03 0. -1.
    9900012    2    1    2    0    0  0.25050191191E+02  0.19151774845E+02  0.47351348716E+01  0.59301889220E+02  0.49999900043E+02 0.  0.
        -12    1    1    2    0    0 -0.25050191191E+02 -0.19151774845E+02 -0.47351348716E+01  0.31886110780E+02  0.00000000000E+00 0.  1.
         11    1    3    3    0    0  0.82415979058E+01  0.23176162040E+02  0.19682607307E+02  0.31503387970E+02  0.51100000000E-03 0. -1.
        -11    1    3    3    0    0  0.68843869184E+01 -0.79708082816E+01 -0.13342411932E+02  0.16998485942E+02  0.51100000000E-03 0.  1.
        -12    1    3    3    0    0  0.99242063674E+01  0.39464210866E+01 -0.16050605033E+01  0.10800015307E+02  0.00000000000E+00 0.  1.
</event>
<event>
 7    1  0.1096439E-011  0.5930199E+02  0.7816164E-02  0.1266605E+00
        -11   -1    0    0    0    0  0.00000000000E+00  0.00000000000E+00  0.45593999997E+02  0.45594000000E+02  0.51100000000E-03 0. -1.
         11   -1    0    0    0    0 -0.00000000000E+00 -0.00000000000E+00 -0.45593999997E+02  0.45594000000E+02  0.51100000000E-03 0.  1.
    9900012    2    1    2    0    0 -0.15241044936E+02 -0.26831645678E+02  0.80306269116E+01  0.59301990072E+02  0.50000083974E+02 0.  0.
        -12    1    1    2    0    0  0.15241044936E+02  0.26831645678E+02 -0.80306269116E+01  0.31886009928E+02  0.00000000000E+00 0.  1.
         11    1    3    3    0    0 -0.37994545182E+01  0.39296414692E+01  0.19808943782E+02  0.20549262535E+02  0.51100000000E-03 0. -1.
        -11    1    3    3    0    0 -0.49139243790E+01  0.30304491707E+00 -0.31979746799E+01  0.58707351618E+01  0.51100000000E-03 0.  1.
         12    1    3    3    0    0 -0.65276660385E+01 -0.31064332064E+02 -0.85803421900E+01  0.32881992376E+02  0.00000000000E+00 0. -1.
</event>
<event>
 7    1  0.1096439E-011  0.5930192E+02  0.7816164E-02  0.1266605E+00
        -11   -1    0    0    0    0  0.00000000000E+00  0.00000000000E+00  0.45593999997E+02  0.45594000000E+02  0.51100000000E-03 0. -1.
         11   -1    0    0    0    0 -0.00000000000E+00 -0.00000000000E+00 -0.45593999997E+02  0.45594000000E+02  0.51100000000E-03 0.  1.
    9900012    2    1    2    0    0  0.23528955578E+02 -0.20551254822E+02  0.63840624338E+01  0.59301920302E+02  0.49999956730E+02 0.  0.
        -12    1    1    2    0    0 -0.23528955578E+02  0.20551254822E+02 -0.63840624338E+01  0.31886079698E+02  0.00000000000E+00 0.  1.
         11    1    3    3    0    0 -0.61270786868E+01 -0.20526434660E+01  0.87026207027E+01  0.10839282531E+02  0.51100000000E-03 0. -1.
        -11    1    3    3    0    0  0.12569355007E+02  0.13011676819E+01 -0.14819333590E+02  0.19475481276E+02  0.51100000000E-03 0.  1.
         12    1    3    3    0    0  0.17086679258E+02 -0.19799779038E+02  0.12500775321E+02  0.28987156494E+02  0.00000000000E+00 0. -1.
</event>
<event>
 7    1  0.1096439E-011  0.5930195E+02  0.7816164E-02  0.1266605E+00
        -11   -1    0    0    0    0  0.00000000000E+00  0.00000000000E+00  0.45593999997E+02  0.45594000000E+02  0.51100000000E-03 0.  1.
         11   -1    0    0    0    0 -0.00000000000E+00 -0.00000000000E+00 -0.45593999997E+02  0.45594000000E+02  0.51100000000E-03 0. -1.
    9900012    2    1    2    0    0  0.21936614223E+02 -0.15110271731E+02 -0.17526695252E+02  0.59301946594E+02  0.50000004681E+02 0.  0.
        -12    1    1    2    0    0 -0.21936614223E+02  0.15110271731E+02  0.17526695252E+02  0.31886053406E+02  0.00000000000E+00 0.  1.
         11    1    3    3    0    0 -0.27328154020E+01 -0.53534403830E+00 -0.66944828975E+01  0.72505844445E+01  0.51100000000E-03 0. -1.
        -11    1    3    3    0    0  0.77498819236E+01  0.93955740232E+01  0.10252987106E+02  0.15920465631E+02  0.51100000000E-03 0.  1.
        -12    1    3    3    0    0  0.16919547701E+02 -0.23970501716E+02 -0.21085199460E+02  0.36130896518E+02  0.00000000000E+00 0.  1.
</event>
<event>
 7    1  0.1285397E-011  0.5930192E+02  0.7816164E-02  0.1266605E+00
        -11   -1    0    0    0    0  0.00000000000E+00  0.00000000000E+00  0.45593999997E+02  0.45594000000E+02  0.51100000000E-03 0.  1.
         11   -1    0    0    0    0 -0.00000000000E+00 -0.00000000000E+00 -0.45593999997E+02  0.45594000000E+02  0.51100000000E-03 0. -1.
    9900012    2    1    2    0    0 -0.28292909632E+02  0.48399496308E+01 -0.13885544346E+02  0.59301918559E+02  0.49999953552E+02 0.  0.
        -12    1    1    2    0    0  0.28292909632E+02 -0.48399496308E+01  0.13885544346E+02  0.31886081441E+02  0.00000000000E+00 0.  1.
         11    1    3    3    0    0 -0.22095367263E+02 -0.71154449722E+00 -0.19512097695E+02  0.29486157885E+02  0.51100000000E-03 0. -1.
        -11    1    3    3    0    0  0.61496399808E+01  0.12272883042E+02 -0.19186165329E+01  0.13860837627E+02  0.51100000000E-03 0.  1.
        -12    1    3    3    0    0 -0.12347182350E+02 -0.67213889139E+01  0.75451698825E+01  0.15954923048E+02  0.00000000000E+00 0.  1.
</event>
<event>
 7    1  0.1096439E-011  0.5930194E+02  0.7816164E-02  0.1266605E+00
        -11   -1    0    0    0    0  0.00000000000E+00  0.00000000000E+00  0.45593999997E+02  0.45594000000E+02  0.51100000000E-03 0.  1.
         11   -1    0    0    0    0 -0.00000000000E+00 -0.00000000000E+00 -0.45593999997E+02  0.45594000000E+02  0.51100000000E-03 0. -1.
    9900012    2    1    2    0    0 -0.28929867943E+02  0.74734313867E+01 -0.11132435050E+02  0.59301944333E+02  0.50000000556E+02 0.  0.
        -12    1    1    2    0    0  0.28929867943E+02 -0.74734313867E+01  0.11132435050E+02  0.31886055667E+02  0.00000000000E+00 0.  1.
         11    1    3    3    0    0 -0.48938226284E+01  0.44943986371E+01 -0.10584654867E+02  0.12497361239E+02  0.51100000000E-03 0. -1.
        -11    1    3    3    0    0 -0.13680801979E+02  0.12062766755E+02  0.16700984948E+02  0.24730499046E+02  0.51100000000E-03 0.  1.
        -12    1    3    3    0    0 -0.10355243336E+02 -0.90837340054E+01 -0.17248765131E+02  0.22074084048E+02  0.00000000000E+00 0.  1.
</event>
<event>
 7    1  0.1096439E-011  0.5930191E+02  0.7816164E-02  0.1266605E+00
        -11   -1    0    0    0    0  0.00000000000E+00  0.00000000000E+00  0.45593999997E+02  0.45594000000E+02  0.51100000000E-03 0.  1.
         11   -1    0    0    0    0 -0.00000000000E+00 -0.00000000000E+00 -0.45593999997E+02  0.45594000000E+02  0.51100000000E-03 0. -1.
    9900012    2    1    2    0    0  0.22735972145E+02  0.15672888337E+02 -0.15942361675E+02  0.59301909710E+02  0.49999937413E+02 0.  0.
        -12    1    1    2    0    0 -0.22735972145E+02 -0.15672888337E+02  0.15942361675E+02  0.31886090290E+02  0.00000000000E+00 0.  1.
         11    1    3    3    0    0  0.89731507406E+01  0.86936442581E+01 -0.16922419463E+02  0.21034855964E+02  0.51100000000E-03 0. -1.
        -11    1    3    3    0    0 -0.49861138721E+01 -0.11042046457E+02  0.17998184305E+01  0.12248570045E+02  0.51100000000E-03 0.  1.
        -12    1    3    3    0    0  0.18748935276E+02  0.18021290536E+02 -0.81976064305E+00  0.26018483701E+02  0.00000000000E+00 0.  1.
</event>
<event>
 7    1  0.1096439E-011  0.5930194E+02  0.7816164E-02  0.1266605E+00
        -11   -1    0    0    0    0  0.00000000000E+00  0.00000000000E+00  0.45593999997E+02  0.45594000000E+02  0.51100000000E-03 0. -1.
         11   -1    0    0    0    0 -0.00000000000E+00 -0.00000000000E+00 -0.45593999997E+02  0.45594000000E+02  0.51100000000E-03 0.  1.
    9900012    2    1    2    0    0  0.14437639045E+02  0.26108111632E+02  0.11253537148E+02  0.59301937017E+02  0.49999987215E+02 0.  0.
        -12    1    1    2    0    0 -0.14437639045E+02 -0.26108111632E+02 -0.11253537148E+02  0.31886062983E+02  0.00000000000E+00 0.  1.
         11    1    3    3    0    0 -0.91847268719E+01  0.29337971830E+02  0.62147762328E+01  0.31363980020E+02  0.51100000000E-03 0. -1.
        -11    1    3    3    0    0  0.22177728480E+02  0.12409822608E+01  0.19127792195E+01  0.22294627203E+02  0.51100000000E-03 0.  1.
         12    1    3    3    0    0  0.14446374372E+01 -0.44708424586E+01  0.31259816956E+01  0.56433297950E+01  0.00000000000E+00 0. -1.
</event>
<event>
 7    1  0.1096439E-011  0.5930195E+02  0.7816164E-02  0.1266605E+00
        -11   -1    0    0    0    0  0.00000000000E+00  0.00000000000E+00  0.45593999997E+02  0.45594000000E+02  0.51100000000E-03 0.  1.
         11   -1    0    0    0    0 -0.00000000000E+00 -0.00000000000E+00 -0.45593999997E+02  0.45594000000E+02  0.51100000000E-03 0. -1.
    9900012    2    1    2    0    0 -0.14310052592E+02  0.28457479363E+02 -0.14541605013E+01  0.59301947883E+02  0.50000007031E+02 0.  0.
        -12    1    1    2    0    0  0.14310052592E+02 -0.28457479363E+02  0.14541605013E+01  0.31886052117E+02  0.00000000000E+00 0.  1.
         11    1    3    3    0    0  0.12326888957E+02  0.17451616560E+02 -0.32408229287E+01  0.21610507755E+02  0.51100000000E-03 0. -1.
        -11    1    3    3    0    0 -0.62629466851E+01 -0.76405162119E+01 -0.10136491344E+01  0.99312372842E+01  0.51100000000E-03 0.  1.
         12    1    3    3    0    0 -0.20373994864E+02  0.18646379014E+02  0.28003115618E+01  0.27760202843E+02  0.00000000000E+00 0. -1.
</event>
<event>
 7    1  0.1096439E-011  0.5930198E+02  0.7816164E-02  0.1266605E+00
        -11   -1    0    0    0    0  0.00000000000E+00  0.00000000000E+00  0.45593999997E+02  0.45594000000E+02  0.51100000000E-03 0.  1.
         11   -1    0    0    0    0 -0.00000000000E+00 -0.00000000000E+00 -0.45593999997E+02  0.45594000000E+02  0.51100000000E-03 0. -1.
    9900012    2    1    2    0    0 -0.10555661612E+01 -0.84645966319E+01 -0.30723849250E+02  0.59301975965E+02  0.50000058245E+02 0.  0.
        -12    1    1    2    0    0  0.10555661612E+01  0.84645966319E+01  0.30723849250E+02  0.31886024035E+02  0.00000000000E+00 0.  1.
         11    1    3    3    0    0  0.42614553424E+01  0.18785305445E+02 -0.18658135283E+02  0.26817414395E+02  0.51100000000E-03 0. -1.
        -11    1    3    3    0    0  0.69528959715E+00 -0.87567092572E+01 -0.93850760370E+01  0.12854689305E+02  0.51100000000E-03 0.  1.
         12    1    3    3    0    0 -0.60123111008E+01 -0.18493192820E+02 -0.26806379295E+01  0.19629872265E+02  0.00000000000E+00 0. -1.
</event>
<event>
 7    1  0.1096439E-011  0.5930195E+02  0.7816164E-02  0.1266605E+00
        -11   -1    0    0    0    0  0.00000000000E+00  0.00000000000E+00  0.45593999997E+02  0.45594000000E+02  0.51100000000E-03 0. -1.
         11   -1    0    0    0    0 -0.00000000000E+00 -0.00000000000E+00 -0.45593999997E+02  0.45594000000E+02  0.51100000000E-03 0.  1.
    9900012    2    1    2    0    0  0.20641646939E+01 -0.30185661804E+02 -0.10064044493E+02  0.59301953742E+02  0.50000017716E+02 0.  0.
        -12    1    1    2    0    0 -0.20641646939E+01  0.30185661804E+02  0.10064044493E+02  0.31886046258E+02  0.00000000000E+00 0.  1.
         11    1    3    3    0    0  0.30983766418E+01 -0.34178342584E+02 -0.60040771114E+01  0.34839747155E+02  0.51100000000E-03 0. -1.
        -11    1    3    3    0    0 -0.69380627688E+01  0.93981040376E+01 -0.92687058707E+01  0.14912075082E+02  0.51100000000E-03 0.  1.
         12    1    3    3    0    0  0.59038508208E+01 -0.54054232575E+01  0.52087384891E+01  0.95501315046E+01  0.00000000000E+00 0. -1.
</event>
<event>
 7    1  0.1096439E-011  0.5930195E+02  0.7816164E-02  0.1266605E+00
        -11   -1    0    0    0    0  0.00000000000E+00  0.00000000000E+00  0.45593999997E+02  0.45594000000E+02  0.51100000000E-03 0. -1.
         11   -1    0    0    0    0 -0.00000000000E+00 -0.00000000000E+00 -0.45593999997E+02  0.45594000000E+02  0.51100000000E-03 0.  1.
    9900012    2    1    2    0    0  0.16685435247E+02  0.19662285016E+02  0.18753951436E+02  0.59301954527E+02  0.50000019148E+02 0.  0.
        -12    1    1    2    0    0 -0.16685435247E+02 -0.19662285016E+02 -0.18753951436E+02  0.31886045473E+02  0.00000000000E+00 0.  1.
         11    1    3    3    0    0 -0.65558122118E+00  0.24266858880E+02 -0.56800458757E+01  0.24931368756E+02  0.51100000000E-03 0.  1.
        -11    1    3    3    0    0  0.34597988075E+01 -0.10437138936E+01  0.18517151102E+02  0.18866489649E+02  0.51100000000E-03 0. -1.
         12    1    3    3    0    0  0.13881217661E+02 -0.35608599706E+01  0.59168462102E+01  0.15504096122E+02  0.00000000000E+00 0. -1.
</event>
<event>
 7    1  0.1096439E-011  0.5930192E+02  0.7816164E-02  0.1266605E+00
        -11   -1    0    0    0    0  0.00000000000E+00  0.00000000000E+00  0.45593999997E+02  0.45594000000E+02  0.51100000000E-03 0.  1.
         11   -1    0    0    0    0 -0.00000000000E+00 -0.00000000000E+00 -0.45593999997E+02  0.45594000000E+02  0.51100000000E-03 0. -1.
    9900012    2    1    2    0    0 -0.70090248973E+01 -0.30686877201E+02 -0.50902819998E+01  0.59301924149E+02  0.49999963746E+02 0.  0.
        -12    1    1    2    0    0  0.70090248973E+01  0.30686877201E+02  0.50902819998E+01  0.31886075851E+02  0.00000000000E+00 0.  1.
         11    1    3    3    0    0 -0.69666272027E+01 -0.13628154602E+02 -0.10199423551E+02  0.18392627150E+02  0.51100000000E-03 0. -1.
        -11    1    3    3    0    0  0.14170214826E+02 -0.21366621471E+02  0.18521876370E+01  0.25705215436E+02  0.51100000000E-03 0.  1.
        -12    1    3    3    0    0 -0.14212612521E+02  0.43078988722E+01  0.32569539145E+01  0.15204081563E+02  0.00000000000E+00 0.  1.
</event>
<event>
 7    1  0.1096439E-011  0.5930189E+02  0.7816164E-02  0.1266605E+00
        -11   -1    0    0    0    0  0.00000000000E+00  0.00000000000E+00  0.45593999997E+02  0.45594000000E+02  0.51100000000E-03 0.  1.
         11   -1    0    0    0    0 -0.00000000000E+00 -0.00000000000E+00 -0.45593999997E+02  0.45594000000E+02  0.51100000000E-03 0. -1.
    9900012    2    1    2    0    0  0.40571059180E+01  0.29277934147E+02  0.11961040851E+02  0.59301889629E+02  0.49999900789E+02 0.  0.
        -12    1    1    2    0    0 -0.40571059180E+01 -0.29277934147E+02 -0.11961040851E+02  0.31886110371E+02  0.00000000000E+00 0.  1.
         11    1    3    3    0    0  0.60923705087E+01  0.27795833535E+02  0.17002904188E+02  0.33148515674E+02  0.51100000000E-03 0. -1.
        -11    1    3    3    0    0  0.10905262020E+02  0.30510644401E+01  0.17440364202E+01  0.11457547610E+02  0.51100000000E-03 0.  1.
         12    1    3    3    0    0 -0.12940526610E+02 -0.15689638278E+01 -0.67858997569E+01  0.14695826345E+02  0.00000000000E+00 0. -1.
</event>
<event>
 7    1  0.1096439E-011  0.5930194E+02  0.7816164E-02  0.1266605E+00
        -11   -1    0    0    0    0  0.00000000000E+00  0.00000000000E+00  0.45593999997E+02  0.45594000000E+02  0.51100000000E-03 0.  1.
         11   -1    0    0    0    0 -0.00000000000E+00 -0.00000000000E+00 -0.45593999997E+02  0.45594000000E+02  0.51100000000E-03 0. -1.
    9900012    2    1    2    0    0 -0.11105062744E+02 -0.13815838441E+02 -0.26505115471E+02  0.59301937896E+02  0.49999988817E+02 0.  0.
        -12    1    1    2    0    0  0.11105062744E+02  0.13815838441E+02  0.26505115471E+02  0.31886062104E+02  0.00000000000E+00 0.  1.
         11    1    3    3    0    0 -0.14910427989E+02 -0.26373332456E+02 -0.83394516090E+01  0.31423239506E+02  0.51100000000E-03 0. -1.
        -11    1    3    3    0    0  0.73795065046E+01  0.21138485561E+01 -0.13959984996E+01  0.78021973855E+01  0.51100000000E-03 0.  1.
         12    1    3    3    0    0 -0.35741412590E+01  0.10443645459E+02 -0.16769665362E+02  0.20076501004E+02  0.00000000000E+00 0. -1.
</event>
<event>
 7    1  0.1096439E-011  0.5930195E+02  0.7816164E-02  0.1266605E+00
        -11   -1    0    0    0    0  0.00000000000E+00  0.00000000000E+00  0.45593999997E+02  0.45594000000E+02  0.51100000000E-03 0.  1.
         11   -1    0    0    0    0 -0.00000000000E+00 -0.00000000000E+00 -0.45593999997E+02  0.45594000000E+02  0.51100000000E-03 0. -1.
    9900012    2    1    2    0    0 -0.27522679652E+02  0.10251221992E+02 -0.12415100531E+02  0.59301950249E+02  0.50000011345E+02 0.  0.
        -12    1    1    2    0    0  0.27522679652E+02 -0.10251221992E+02  0.12415100531E+02  0.31886049751E+02  0.00000000000E+00 0.  1.
         11    1    3    3    0    0  0.82333173187E+01  0.10946692114E+02 -0.89813470184E+01  0.16379321623E+02  0.51100000000E-03 0.  1.
        -11    1    3    3    0    0 -0.19842651212E+02  0.28287511271E+01 -0.13126799562E+02  0.23959246797E+02  0.51100000000E-03 0. -1.
         12    1    3    3    0    0 -0.15913345759E+02 -0.35242212494E+01  0.96930460496E+01  0.18963381829E+02  0.00000000000E+00 0. -1.
</event>
<event>
 7    1  0.1096439E-011  0.5930196E+02  0.7816164E-02  0.1266605E+00
        -11   -1    0    0    0    0  0.00000000000E+00  0.00000000000E+00  0.45593999997E+02  0.45594000000E+02  0.51100000000E-03 0.  1.
         11   -1    0    0    0    0 -0.00000000000E+00 -0.00000000000E+00 -0.45593999997E+02  0.45594000000E+02  0.51100000000E-03 0. -1.
    9900012    2    1    2    0    0  0.20888492924E+02  0.10241474825E+02 -0.21806027887E+02  0.59301956102E+02  0.50000022020E+02 0.  0.
        -12    1    1    2    0    0 -0.20888492924E+02 -0.10241474825E+02  0.21806027887E+02  0.31886043898E+02  0.00000000000E+00 0.  1.
         11    1    3    3    0    0  0.11835863970E+02  0.15759390915E+02 -0.22226149339E+02  0.29706022834E+02  0.51100000000E-03 0. -1.
        -11    1    3    3    0    0 -0.67039848097E+01  0.55783993602E+01  0.46235514938E+01  0.98711286299E+01  0.51100000000E-03 0.  1.
        -12    1    3    3    0    0  0.15756613765E+02 -0.11096315450E+02 -0.42034300416E+01  0.19724804638E+02  0.00000000000E+00 0.  1.
</event>
<event>
 7    1  0.1096439E-011  0.5930195E+02  0.7816164E-02  0.1266605E+00
        -11   -1    0    0    0    0  0.00000000000E+00  0.00000000000E+00  0.45593999997E+02  0.45594000000E+02  0.51100000000E-03 0. -1.
         11   -1    0    0    0    0 -0.00000000000E+00 -0.00000000000E+00 -0.45593999997E+02  0.45594000000E+02  0.51100000000E-03 0.  1.
    9900012    2    1    2    0    0  0.21283491819E+01  0.22137813095E+02  0.22849672843E+02  0.59301949948E+02  0.50000010798E+02 0.  0.
        -12    1    1    2    0    0 -0.21283491819E+01 -0.22137813095E+02 -0.22849672843E+02  0.31886050052E+02  0.00000000000E+00 0.  1.
         11    1    3    3    0    0  0.41283456304E+01  0.19979231042E+02  0.33131775405E+02  0.38909220661E+02  0.51100000000E-03 0. -1.
        -11    1    3    3    0    0  0.19868044624E+01  0.21435299276E+01 -0.14380834921E+02  0.14674826261E+02  0.51100000000E-03 0.  1.
        -12    1    3    3    0    0 -0.39868009109E+01  0.15052125266E-01  0.40987323590E+01  0.57179030265E+01  0.00000000000E+00 0.  1.
</event>
<event>
 7    1  0.1096439E-011  0.5930196E+02  0.7816164E-02  0.1266605E+00
        -11   -1    0    0    0    0  0.00000000000E+00  0.00000000000E+00  0.45593999997E+02  0.45594000000E+02  0.51100000000E-03 0. -1.
         11   -1    0    0    0    0 -0.00000000000E+00 -0.00000000000E+00 -0.45593999997E+02  0.45594000000E+02  0.51100000000E-03 0.  1.
    9900012    2    1    2    0    0 -0.20175423901E+02 -0.22456663587E+02  0.10265007120E+02  0.59301955400E+02  0.50000020740E+02 0.  0.
        -12    1    1    2    0    0  0.20175423901E+02  0.22456663587E+02 -0.10265007120E+02  0.31886044600E+02  0.00000000000E+00 0.  1.
         11    1    3    3    0    0 -0.26012868208E+02  0.53974227381E+01  0.13150766992E+02  0.29643619168E+02  0.51100000000E-03 0. -1.
        -11    1    3    3    0    0  0.71978378988E+01 -0.25082208438E+02 -0.11583238730E+01  0.26120255837E+02  0.51100000000E-03 0.  1.
        -12    1    3    3    0    0 -0.13603935916E+01 -0.27718778872E+01 -0.17274359998E+01  0.35380803946E+01  0.00000000000E+00 0.  1.
</event>
<event>
 7    1  0.1096439E-011  0.5930157E+02  0.7816164E-02  0.1266606E+00
        -11   -1    0    0    0    0  0.00000000000E+00  0.00000000000E+00  0.45593999997E+02  0.45594000000E+02  0.51100000000E-03 0. -1.
         11   -1    0    0    0    0 -0.00000000000E+00 -0.00000000000E+00 -0.45593999997E+02  0.45594000000E+02  0.51100000000E-03 0.  1.
    9900012    2    1    2    0    0  0.19905604592E+02 -0.16698708170E+02  0.18484164218E+02  0.59301572235E+02  0.49999321935E+02 0.  0.
        -12    1    1    2    0    0 -0.19905604592E+02  0.16698708170E+02 -0.18484164218E+02  0.31886427765E+02  0.00000000000E+00 0.  1.
         11    1    3    3    0    0 -0.44207346520E+01 -0.46413854489E+01  0.22078604883E+02  0.22990218520E+02  0.51100000000E-03 0. -1.
        -11    1    3    3    0    0  0.19782840088E+02  0.27033920568E+01 -0.56009411123E+01  0.20737396947E+02  0.51100000000E-03 0.  1.
         12    1    3    3    0    0  0.45434991566E+01 -0.14760714778E+02  0.20065004473E+01  0.15573956768E+02  0.00000000000E+00 0. -1.
</event>
<event>
 7    1  0.1096439E-011  0.5930197E+02  0.7816164E-02  0.1266605E+00
        -11   -1    0    0    0    0  0.00000000000E+00  0.00000000000E+00  0.45593999997E+02  0.45594000000E+02  0.51100000000E-03 0.  1.
         11   -1    0    0    0    0 -0.00000000000E+00 -0.00000000000E+00 -0.45593999997E+02  0.45594000000E+02  0.51100000000E-03 0. -1.
    9900012    2    1    2    0    0  0.12177672976E+02 -0.57051323525E+01 -0.28911497063E+02  0.59301969882E+02  0.50000047152E+02 0.  0.
        -12    1    1    2    0    0 -0.12177672976E+02  0.57051323525E+01  0.28911497063E+02  0.31886030118E+02  0.00000000000E+00 0.  1.
         11    1    3    3    0    0  0.11204553323E+02 -0.16378793269E+01 -0.18708006669E+02  0.21868108689E+02  0.51100000000E-03 0. -1.
        -11    1    3    3    0    0  0.49866800135E+01 -0.88294223362E+01  0.11220111427E+02  0.15123378493E+02  0.51100000000E-03 0.  1.
        -12    1    3    3    0    0 -0.40135603600E+01  0.47621693107E+01 -0.21423601821E+02  0.22310482699E+02  0.00000000000E+00 0.  1.
</event>
<event>
 7    1  0.1096439E-011  0.5930194E+02  0.7816164E-02  0.1266605E+00
        -11   -1    0    0    0    0  0.00000000000E+00  0.00000000000E+00  0.45593999997E+02  0.45594000000E+02  0.51100000000E-03 0. -1.
         11   -1    0    0    0    0 -0.00000000000E+00 -0.00000000000E+00 -0.45593999997E+02  0.45594000000E+02  0.51100000000E-03 0.  1.
    9900012    2    1    2    0    0 -0.26465087115E+02 -0.66001221236E+01  0.16515391482E+02  0.59301943426E+02  0.49999998903E+02 0.  0.
        -12    1    1    2    0    0  0.26465087115E+02  0.66001221236E+01 -0.16515391482E+02  0.31886056574E+02  0.00000000000E+00 0.  1.
         11    1    3    3    0    0 -0.32392972098E+01  0.31500205713E+01  0.10775374716E+02  0.11684364619E+02  0.51100000000E-03 0. -1.
        -11    1    3    3    0    0 -0.19585483494E+01 -0.20306759723E+02 -0.58127832765E+01  0.21212940668E+02  0.51100000000E-03 0.  1.
        -12    1    3    3    0    0 -0.21267241556E+02  0.10556617028E+02  0.11552800042E+02  0.26404638139E+02  0.00000000000E+00 0.  1.
</event>
<event>
 7    1  0.1096439E-011  0.5930190E+02  0.7816164E-02  0.1266605E+00
        -11   -1    0    0    0    0  0.00000000000E+00  0.00000000000E+00  0.45593999997E+02  0.45594000000E+02  0.51100000000E-03 0. -1.
         11   -1    0    0    0    0 -0.00000000000E+00 -0.00000000000E+00 -0.45593999997E+02  0.45594000000E+02  0.51100000000E-03 0.  1.
    9900012    2    1    2    0    0 -0.31689862194E+02 -0.35281770304E+01  0.16675709554E+00  0.59301902607E+02  0.49999924459E+02 0.  0.
        -12    1    1    2    0    0  0.31689862194E+02  0.35281770304E+01 -0.16675709554E+00  0.31886097393E+02  0.00000000000E+00 0.  1.
         11    1    3    3    0    0 -0.38901620465E+02  0.10233756757E+02  0.65955090518E+01  0.40762318287E+02  0.51100000000E-03 0. -1.
        -11    1    3    3    0    0  0.66360266941E+01 -0.44631279238E+01 -0.38313931132E+01  0.88676904884E+01  0.51100000000E-03 0.  1.
         12    1    3    3    0    0  0.57573157746E+00 -0.92988058639E+01 -0.25973588430E+01  0.96718938323E+01  0.00000000000E+00 0. -1.
</event>
<event>
 7    1  0.1096439E-011  0.5930197E+02  0.7816164E-02  0.1266605E+00
        -11   -1    0    0    0    0  0.00000000000E+00  0.00000000000E+00  0.45593999997E+02  0.45594000000E+02  0.51100000000E-03 0.  1.
         11   -1    0    0    0    0 -0.00000000000E+00 -0.00000000000E+00 -0.45593999997E+02  0.45594000000E+02  0.51100000000E-03 0. -1.
    9900012    2    1    2    0    0 -0.30423278670E+02 -0.77149186069E-01  0.95465587546E+01  0.59301974517E+02  0.50000055606E+02 0.  0.
        -12    1    1    2    0    0  0.30423278670E+02  0.77149186069E-01 -0.95465587546E+01  0.31886025483E+02  0.00000000000E+00 0.  1.
         11    1    3    3    0    0 -0.21451837075E+02 -0.12849394395E+02 -0.10606573337E+02  0.27162246748E+02  0.51100000000E-03 0. -1.
        -11    1    3    3    0    0 -0.11001393071E+02  0.14865182581E+02  0.21959926086E+02  0.28709626550E+02  0.51100000000E-03 0.  1.
        -12    1    3    3    0    0  0.20299514758E+01 -0.20929373721E+01 -0.18067939943E+01  0.34301012194E+01  0.00000000000E+00 0.  1.
</event>
<event>
 7    1  0.1096439E-011  0.5930194E+02  0.7816164E-02  0.1266605E+00
        -11   -1    0    0    0    0  0.00000000000E+00  0.00000000000E+00  0.45593999997E+02  0.45594000000E+02  0.51100000000E-03 0. -1.
         11   -1    0    0    0    0 -0.00000000000E+00 -0.00000000000E+00 -0.45593999997E+02  0.45594000000E+02  0.51100000000E-03 0.  1.
    9900012    2    1    2    0    0  0.80531321630E+01  0.63495440875E+01  0.30191904901E+02  0.59301940831E+02  0.49999994170E+02 0.  0.
        -12    1    1    2    0    0 -0.80531321630E+01 -0.63495440875E+01 -0.30191904901E+02  0.31886059169E+02  0.00000000000E+00 0.  1.
         11    1    3    3    0    0  0.18053690015E+02 -0.11268641602E+02  0.50204885949E+00  0.21287791338E+02  0.51100000000E-03 0.  1.
        -11    1    3    3    0    0 -0.59068596798E+01  0.12352252927E+02  0.27946141133E+02  0.31120024874E+02  0.51100000000E-03 0. -1.
        -12    1    3    3    0    0 -0.40936981725E+01  0.52659327627E+01  0.17437149085E+01  0.68941246197E+01  0.00000000000E+00 0.  1.
</event>
<event>
 7    1  0.1096439E-011  0.5930195E+02  0.7816164E-02  0.1266605E+00
        -11   -1    0    0    0    0  0.00000000000E+00  0.00000000000E+00  0.45593999997E+02  0.45594000000E+02  0.51100000000E-03 0.  1.
         11   -1    0    0    0    0 -0.00000000000E+00 -0.00000000000E+00 -0.45593999997E+02  0.45594000000E+02  0.51100000000E-03 0. -1.
    9900012    2    1    2    0    0 -0.21094254422E+02  0.18499722240E+02  0.15149683747E+02  0.59301949599E+02  0.50000010160E+02 0.  0.
        -12    1    1    2    0    0  0.21094254422E+02 -0.18499722240E+02 -0.15149683747E+02  0.31886050401E+02  0.00000000000E+00 0.  1.
         11    1    3    3    0    0 -0.59084734109E+00 -0.51913569220E+01 -0.40891512050E+01  0.66347905099E+01  0.51100000000E-03 0. -1.
        -11    1    3    3    0    0 -0.17892290214E+01  0.22327722772E+01  0.23678436083E+02  0.23850680245E+02  0.51100000000E-03 0.  1.
        -12    1    3    3    0    0 -0.18714178059E+02  0.21458306885E+02 -0.44396011311E+01  0.28816478844E+02  0.00000000000E+00 0.  1.
</event>
<event>
 7    1  0.1096439E-011  0.5930193E+02  0.7816164E-02  0.1266605E+00
        -11   -1    0    0    0    0  0.00000000000E+00  0.00000000000E+00  0.45593999997E+02  0.45594000000E+02  0.51100000000E-03 0.  1.
         11   -1    0    0    0    0 -0.00000000000E+00 -0.00000000000E+00 -0.45593999997E+02  0.45594000000E+02  0.51100000000E-03 0. -1.
    9900012    2    1    2    0    0 -0.26289688092E+02  0.16959352302E+02 -0.61606789162E+01  0.59301932586E+02  0.49999979132E+02 0.  0.
        -12    1    1    2    0    0  0.26289688092E+02 -0.16959352302E+02  0.61606789162E+01  0.31886067414E+02  0.00000000000E+00 0.  1.
         11    1    3    3    0    0 -0.20755202732E+02 -0.13526749402E+02  0.54322403955E+01  0.25362583185E+02  0.51100000000E-03 0.  1.
        -11    1    3    3    0    0 -0.32166088083E+01  0.23572157591E+02 -0.11980508884E+02  0.26636925106E+02  0.51100000000E-03 0. -1.
         12    1    3    3    0    0 -0.23178765511E+01  0.69139441124E+01  0.38758957253E+00  0.73024242942E+01  0.00000000000E+00 0. -1.
</event>
<event>
 7    1  0.1096439E-011  0.5930195E+02  0.7816164E-02  0.1266605E+00
        -11   -1    0    0    0    0  0.00000000000E+00  0.00000000000E+00  0.45593999997E+02  0.45594000000E+02  0.51100000000E-03 0.  1.
         11   -1    0    0    0    0 -0.00000000000E+00 -0.00000000000E+00 -0.45593999997E+02  0.45594000000E+02  0.51100000000E-03 0. -1.
    9900012    2    1    2    0    0  0.29452997154E+02 -0.70233447937E+01  0.99956751764E+01  0.59301953903E+02  0.50000018011E+02 0.  0.
        -12    1    1    2    0    0 -0.29452997154E+02  0.70233447937E+01 -0.99956751764E+01  0.31886046097E+02  0.00000000000E+00 0.  1.
         11    1    3    3    0    0  0.21676457245E+02 -0.18468198696E+02  0.17919850204E+02  0.33646161644E+02  0.51100000000E-03 0. -1.
        -11    1    3    3    0    0 -0.27478589525E+01  0.12462513716E+02 -0.80369672974E+01  0.15081704829E+02  0.51100000000E-03 0.  1.
        -12    1    3    3    0    0  0.10524398862E+02 -0.10176598138E+01  0.11279227005E+00  0.10574087431E+02  0.00000000000E+00 0.  1.
</event>
<event>
 7    1  0.1096439E-011  0.5930195E+02  0.7816164E-02  0.1266605E+00
        -11   -1    0    0    0    0  0.00000000000E+00  0.00000000000E+00  0.45593999997E+02  0.45594000000E+02  0.51100000000E-03 0. -1.
         11   -1    0    0    0    0 -0.00000000000E+00 -0.00000000000E+00 -0.45593999997E+02  0.45594000000E+02  0.51100000000E-03 0.  1.
    9900012    2    1    2    0    0 -0.31690422893E+01  0.31297469547E+02 -0.52101666818E+01  0.59301948725E+02  0.50000008566E+02 0.  0.
        -12    1    1    2    0    0  0.31690422893E+01 -0.31297469547E+02  0.52101666818E+01  0.31886051275E+02  0.00000000000E+00 0.  1.
         11    1    3    3    0    0  0.48409296160E+01  0.18938866230E+02  0.12496432693E+02  0.23200777658E+02  0.51100000000E-03 0. -1.
        -11    1    3    3    0    0 -0.37653616145E+01  0.18440309673E+02 -0.20812739773E+02  0.28060525762E+02  0.51100000000E-03 0.  1.
         12    1    3    3    0    0 -0.42446102908E+01 -0.60817063566E+01  0.31061403984E+01  0.80406453039E+01  0.00000000000E+00 0. -1.
</event>
<event>
 7    1  0.1096439E-011  0.5930194E+02  0.7816164E-02  0.1266605E+00
        -11   -1    0    0    0    0  0.00000000000E+00  0.00000000000E+00  0.45593999997E+02  0.45594000000E+02  0.51100000000E-03 0. -1.
         11   -1    0    0    0    0 -0.00000000000E+00 -0.00000000000E+00 -0.45593999997E+02  0.45594000000E+02  0.51100000000E-03 0.  1.
    9900012    2    1    2    0    0 -0.14517164203E+02  0.28257496648E+02 -0.27362270914E+01  0.59301935457E+02  0.49999984370E+02 0.  0.
        -12    1    1    2    0    0  0.14517164203E+02 -0.28257496648E+02  0.27362270914E+01  0.31886064543E+02  0.00000000000E+00 0.  1.
         11    1    3    3    0    0  0.88731911067E+01 -0.80678862567E+00  0.78369788254E+01  0.11866029904E+02  0.51100000000E-03 0. -1.
        -11    1    3    3    0    0 -0.70266961583E+01  0.26987297855E+02 -0.12991351083E+02  0.30764653544E+02  0.51100000000E-03 0.  1.
         12    1    3    3    0    0 -0.16363659151E+02  0.20769874188E+01  0.24181451664E+01  0.16671252010E+02  0.00000000000E+00 0. -1.
</event>
<event>
 7    1  0.1096439E-011  0.5930193E+02  0.7816164E-02  0.1266605E+00
        -11   -1    0    0    0    0  0.00000000000E+00  0.00000000000E+00  0.45593999997E+02  0.45594000000E+02  0.51100000000E-03 0.  1.
         11   -1    0    0    0    0 -0.00000000000E+00 -0.00000000000E+00 -0.45593999997E+02  0.45594000000E+02  0.51100000000E-03 0. -1.
    9900012    2    1    2    0    0 -0.20579839120E+02  0.19064785772E+02 -0.15156705634E+02  0.59301928427E+02  0.49999971548E+02 0.  0.
        -12    1    1    2    0    0  0.20579839120E+02 -0.19064785772E+02  0.15156705634E+02  0.31886071573E+02  0.00000000000E+00 0.  1.
         11    1    3    3    0    0  0.45143228537E+01  0.16000007162E+02 -0.13361845390E+02  0.21328812731E+02  0.51100000000E-03 0. -1.
        -11    1    3    3    0    0 -0.30776804473E+02  0.26021594518E+01 -0.52160905557E+01  0.31323960929E+02  0.51100000000E-03 0.  1.
        -12    1    3    3    0    0  0.56826424993E+01  0.46261915748E+00  0.34212303120E+01  0.66491547664E+01  0.00000000000E+00 0.  1.
</event>
<event>
 7    1  0.1096439E-011  0.5930185E+02  0.7816164E-02  0.1266605E+00
        -11   -1    0    0    0    0  0.00000000000E+00  0.00000000000E+00  0.45593999997E+02  0.45594000000E+02  0.51100000000E-03 0.  1.
         11   -1    0    0    0    0 -0.00000000000E+00 -0.00000000000E+00 -0.45593999997E+02  0.45594000000E+02  0.51100000000E-03 0. -1.
    9900012    2    1    2    0    0  0.16916801173E+01 -0.29936009696E+02  0.10848968016E+02  0.59301849948E+02  0.49999828421E+02 0.  0.
        -12    1    1    2    0    0 -0.16916801173E+01  0.29936009696E+02 -0.10848968016E+02  0.31886150052E+02  0.00000000000E+00 0.  1.
         11    1    3    3    0    0  0.31676718573E+01  0.99517508109E+01 -0.56426134818E+01  0.11870576075E+02  0.51100000000E-03 0. -1.
        -11    1    3    3    0    0  0.53437161224E+01 -0.86589734122E+01  0.11024384860E+02  0.15002339296E+02  0.51100000000E-03 0.  1.
         12    1    3    3    0    0 -0.68197078623E+01 -0.31228787094E+02  0.54671966384E+01  0.32428934577E+02  0.00000000000E+00 0. -1.
</event>
<event>
 7    1  0.1096439E-011  0.5930195E+02  0.7816164E-02  0.1266605E+00
        -11   -1    0    0    0    0  0.00000000000E+00  0.00000000000E+00  0.45593999997E+02  0.45594000000E+02  0.51100000000E-03 0.  1.
         11   -1    0    0    0    0 -0.00000000000E+00 -0.00000000000E+00 -0.45593999997E+02  0.45594000000E+02  0.51100000000E-03 0. -1.
    9900012    2    1    2    0    0 -0.93179920666E+00 -0.34783236101E+01 -0.31682059434E+02  0.59301954857E+02  0.50000019750E+02 0.  0.
        -12    1    1    2    0    0  0.93179920666E+00  0.34783236101E+01  0.31682059434E+02  0.31886045143E+02  0.00000000000E+00 0.  1.
         11    1    3    3    0    0 -0.19886007526E+02 -0.16186271536E+01 -0.19143575455E+02  0.27650492413E+02  0.51100000000E-03 0. -1.
        -11    1    3    3    0    0  0.22053286099E+02 -0.66443413628E+01 -0.11871615996E+02  0.25911965701E+02  0.51100000000E-03 0.  1.
        -12    1    3    3    0    0 -0.30990777788E+01  0.47846449063E+01 -0.66686798277E+00  0.57394967431E+01  0.00000000000E+00 0.  1.
</event>
<event>
 7    1  0.1096439E-011  0.5930196E+02  0.7816164E-02  0.1266605E+00
        -11   -1    0    0    0    0  0.00000000000E+00  0.00000000000E+00  0.45593999997E+02  0.45594000000E+02  0.51100000000E-03 0.  1.
         11   -1    0    0    0    0 -0.00000000000E+00 -0.00000000000E+00 -0.45593999997E+02  0.45594000000E+02  0.51100000000E-03 0. -1.
    9900012    2    1    2    0    0  0.11010968970E+02  0.12294832261E+02 -0.27282146165E+02  0.59301955445E+02  0.50000020822E+02 0.  0.
        -12    1    1    2    0    0 -0.11010968970E+02 -0.12294832261E+02  0.27282146165E+02  0.31886044555E+02  0.00000000000E+00 0.  1.
         11    1    3    3    0    0  0.19331837058E+02  0.16309984000E+02 -0.16524154458E+02  0.30212301848E+02  0.51100000000E-03 0. -1.
        -11    1    3    3    0    0 -0.12316287112E+02 -0.82660265113E+01 -0.15586780783E+02  0.21516641419E+02  0.51100000000E-03 0.  1.
        -12    1    3    3    0    0  0.39954190240E+01  0.42508747731E+01  0.48287890762E+01  0.75730121785E+01  0.00000000000E+00 0.  1.
</event>
<event>
 7    1  0.1096439E-011  0.5930193E+02  0.7816164E-02  0.1266605E+00
        -11   -1    0    0    0    0  0.00000000000E+00  0.00000000000E+00  0.45593999997E+02  0.45594000000E+02  0.51100000000E-03 0.  1.
         11   -1    0    0    0    0 -0.00000000000E+00 -0.00000000000E+00 -0.45593999997E+02  0.45594000000E+02  0.51100000000E-03 0. -1.
    9900012    2    1    2    0    0 -0.20210558365E+02  0.24436381186E+02  0.33343575116E+01  0.59301931962E+02  0.49999977996E+02 0.  0.
        -12    1    1    2    0    0  0.20210558365E+02 -0.24436381186E+02 -0.33343575116E+01  0.31886068038E+02  0.00000000000E+00 0.  1.
         11    1    3    3    0    0  0.60381497331E+01  0.27111503645E+02 -0.26821289957E+00  0.27777055649E+02  0.51100000000E-03 0. -1.
        -11    1    3    3    0    0 -0.28696160581E+02 -0.22410818845E+01  0.28319495511E+01  0.28922517501E+02  0.51100000000E-03 0.  1.
         12    1    3    3    0    0  0.24474524831E+01 -0.43404057461E+00  0.77062086005E+00  0.26023588121E+01  0.00000000000E+00 0. -1.
</event>
<event>
 7    1  0.1096439E-011  0.5930202E+02  0.7816164E-02  0.1266604E+00
        -11   -1    0    0    0    0  0.00000000000E+00  0.00000000000E+00  0.45593999997E+02  0.45594000000E+02  0.51100000000E-03 0. -1.
         11   -1    0    0    0    0 -0.00000000000E+00 -0.00000000000E+00 -0.45593999997E+02  0.45594000000E+02  0.51100000000E-03 0.  1.
    9900012    2    1    2    0    0  0.30556645011E+01  0.31578980856E+02 -0.31853604212E+01  0.59302021287E+02  0.50000140903E+02 0.  0.
        -12    1    1    2    0    0 -0.30556645011E+01 -0.31578980856E+02  0.31853604212E+01  0.31885978713E+02  0.00000000000E+00 0.  1.
         11    1    3    3    0    0  0.21501817533E+02  0.15693807315E+02 -0.77205843467E+01  0.27716983389E+02  0.51100000000E-03 0.  1.
        -11    1    3    3    0    0 -0.10086228711E+02  0.96648203740E+01  0.12281932444E+02  0.18600715774E+02  0.51100000000E-03 0. -1.
        -12    1    3    3    0    0 -0.83599243203E+01  0.62203531672E+01 -0.77467085189E+01  0.12984322125E+02  0.00000000000E+00 0.  1.
</event>
<event>
 7    1  0.1096439E-011  0.5930198E+02  0.7816164E-02  0.1266605E+00
        -11   -1    0    0    0    0  0.00000000000E+00  0.00000000000E+00  0.45593999997E+02  0.45594000000E+02  0.51100000000E-03 0.  1.
         11   -1    0    0    0    0 -0.00000000000E+00 -0.00000000000E+00 -0.45593999997E+02  0.45594000000E+02  0.51100000000E-03 0. -1.
    9900012    2    1    2    0    0 -0.78516538699E+01 -0.23729407888E+02 -0.19798617067E+02  0.59301976338E+02  0.50000058927E+02 0.  0.
        -12    1    1    2    0    0  0.78516538699E+01  0.23729407888E+02  0.19798617067E+02  0.31886023662E+02  0.00000000000E+00 0.  1.
         11    1    3    3    0    0 -0.16415700447E+01  0.68479951191E+01 -0.13552624921E+02  0.15272964083E+02  0.51100000000E-03 0. -1.
        -11    1    3    3    0    0  0.12422123278E+02 -0.12532862649E+02 -0.25438871310E+01  0.17828436693E+02  0.51100000000E-03 0.  1.
        -12    1    3    3    0    0 -0.18632207103E+02 -0.18044540358E+02 -0.37021050145E+01  0.26200575562E+02  0.00000000000E+00 0.  1.
</event>
<event>
 7    1  0.1096439E-011  0.5930199E+02  0.7816164E-02  0.1266605E+00
        -11   -1    0    0    0    0  0.00000000000E+00  0.00000000000E+00  0.45593999997E+02  0.45594000000E+02  0.51100000000E-03 0. -1.
         11   -1    0    0    0    0 -0.00000000000E+00 -0.00000000000E+00 -0.45593999997E+02  0.45594000000E+02  0.51100000000E-03 0.  1.
    9900012    2    1    2    0    0 -0.23789014847E+02  0.31088944313E+01  0.21003220624E+02  0.59301988513E+02  0.50000081130E+02 0.  0.
        -12    1    1    2    0    0  0.23789014847E+02 -0.31088944313E+01 -0.21003220624E+02  0.31886011487E+02  0.00000000000E+00 0.  1.
         11    1    3    3    0    0 -0.95421775224E+01  0.14866832534E+02 -0.10165103551E+02  0.20381491406E+02  0.51100000000E-03 0. -1.
        -11    1    3    3    0    0  0.13623887922E+01 -0.32239020362E+01  0.59795340262E+00  0.35506613599E+01  0.51100000000E-03 0.  1.
         12    1    3    3    0    0 -0.15609226117E+02 -0.85340360665E+01  0.30570370773E+02  0.35369835747E+02  0.00000000000E+00 0. -1.
</event>
<event>
 7    1  0.1096439E-011  0.5930195E+02  0.7816164E-02  0.1266605E+00
        -11   -1    0    0    0    0  0.00000000000E+00  0.00000000000E+00  0.45593999997E+02  0.45594000000E+02  0.51100000000E-03 0. -1.
         11   -1    0    0    0    0 -0.00000000000E+00 -0.00000000000E+00 -0.45593999997E+02  0.45594000000E+02  0.51100000000E-03 0.  1.
    9900012    2    1    2    0    0  0.11814500840E+02 -0.12043218756E+02  0.27057316913E+02  0.59301953732E+02  0.50000017698E+02 0.  0.
        -12    1    1    2    0    0 -0.11814500840E+02  0.12043218756E+02 -0.27057316913E+02  0.31886046268E+02  0.00000000000E+00 0.  1.
         11    1    3    3    0    0  0.33635914189E+01  0.22106245783E+01  0.16986452994E+02  0.17456809383E+02  0.51100000000E-03 0. -1.
        -11    1    3    3    0    0  0.13344332741E+01 -0.26306542374E+02  0.42271960088E+01  0.26677407486E+02  0.51100000000E-03 0.  1.
        -12    1    3    3    0    0  0.71164761474E+01  0.12052699039E+02  0.58436679097E+01  0.15167736863E+02  0.00000000000E+00 0.  1.
</event>
<event>
 7    1  0.1096439E-011  0.5930193E+02  0.7816164E-02  0.1266605E+00
        -11   -1    0    0    0    0  0.00000000000E+00  0.00000000000E+00  0.45593999997E+02  0.45594000000E+02  0.51100000000E-03 0.  1.
         11   -1    0    0    0    0 -0.00000000000E+00 -0.00000000000E+00 -0.45593999997E+02  0.45594000000E+02  0.51100000000E-03 0. -1.
    9900012    2    1    2    0    0  0.32162542572E+01 -0.25445810520E+02 -0.18944338978E+02  0.59301928687E+02  0.49999972023E+02 0.  0.
        -12    1    1    2    0    0 -0.32162542572E+01  0.25445810520E+02  0.18944338978E+02  0.31886071313E+02  0.00000000000E+00 0.  1.
         11    1    3    3    0    0 -0.99694846705E+01 -0.51668793809E+01 -0.26254275890E+02  0.28554759146E+02  0.51100000000E-03 0. -1.
        -11    1    3    3    0    0  0.15758677648E+02 -0.18521104666E+02  0.17592068029E+01  0.24381592403E+02  0.51100000000E-03 0.  1.
         12    1    3    3    0    0 -0.25729387199E+01 -0.17578264723E+01  0.55507301088E+01  0.63655771384E+01  0.00000000000E+00 0. -1.
</event>
<event>
 7    1  0.1096439E-011  0.5930195E+02  0.7816164E-02  0.1266605E+00
        -11   -1    0    0    0    0  0.00000000000E+00  0.00000000000E+00  0.45593999997E+02  0.45594000000E+02  0.51100000000E-03 0. -1.
         11   -1    0    0    0    0 -0.00000000000E+00 -0.00000000000E+00 -0.45593999997E+02  0.45594000000E+02  0.51100000000E-03 0.  1.
    9900012    2    1    2    0    0  0.14686086348E+01 -0.19395870826E+00  0.31851623046E+02  0.59301947846E+02  0.50000006964E+02 0.  0.
        -12    1    1    2    0    0 -0.14686086348E+01  0.19395870826E+00 -0.31851623046E+02  0.31886052154E+02  0.00000000000E+00 0.  1.
         11    1    3    3    0    0  0.17403348125E+02 -0.52223240279E+01  0.28033009354E+01  0.18384985466E+02  0.51100000000E-03 0. -1.
        -11    1    3    3    0    0 -0.12037179112E+02 -0.82260391481E+01  0.11418532675E+02  0.18518755081E+02  0.51100000000E-03 0.  1.
        -12    1    3    3    0    0 -0.38975603781E+01  0.13254404468E+02  0.17629789435E+02  0.22398207299E+02  0.00000000000E+00 0.  1.
</event>
<event>
 7    1  0.1096439E-011  0.5930195E+02  0.7816164E-02  0.1266605E+00
        -11   -1    0    0    0    0  0.00000000000E+00  0.00000000000E+00  0.45593999997E+02  0.45594000000E+02  0.51100000000E-03 0. -1.
         11   -1    0    0    0    0 -0.00000000000E+00 -0.00000000000E+00 -0.45593999997E+02  0.45594000000E+02  0.51100000000E-03 0.  1.
    9900012    2    1    2    0    0 -0.14738513559E+02 -0.24148694171E+02 -0.14708401719E+02  0.59301948297E+02  0.50000007786E+02 0.  0.
        -12    1    1    2    0    0  0.14738513559E+02  0.24148694171E+02  0.14708401719E+02  0.31886051703E+02  0.00000000000E+00 0.  1.
         11    1    3    3    0    0 -0.97884274027E+01  0.10151690883E+02 -0.42683101716E+01  0.14733927201E+02  0.51100000000E-03 0.  1.
        -11    1    3    3    0    0 -0.13412833961E+02 -0.31757939545E+02 -0.77991786473E+01  0.35345410266E+02  0.51100000000E-03 0. -1.
         12    1    3    3    0    0  0.84627478050E+01 -0.25424455084E+01 -0.26409128999E+01  0.92226108298E+01  0.00000000000E+00 0. -1.
</event>
<event>
 7    1  0.1096439E-011  0.5930199E+02  0.7816164E-02  0.1266605E+00
        -11   -1    0    0    0    0  0.00000000000E+00  0.00000000000E+00  0.45593999997E+02  0.45594000000E+02  0.51100000000E-03 0. -1.
         11   -1    0    0    0    0 -0.00000000000E+00 -0.00000000000E+00 -0.45593999997E+02  0.45594000000E+02  0.51100000000E-03 0.  1.
    9900012    2    1    2    0    0 -0.27410759839E+02 -0.14652095842E+02 -0.71192752515E+01  0.59301988214E+02  0.50000080585E+02 0.  0.
        -12    1    1    2    0    0  0.27410759839E+02  0.14652095842E+02  0.71192752515E+01  0.31886011786E+02  0.00000000000E+00 0.  1.
         11    1    3    3    0    0 -0.13946404352E+02  0.12029218068E+01  0.11318077689E+02  0.18001336007E+02  0.51100000000E-03 0.  1.
        -11    1    3    3    0    0  0.81753698236E+01 -0.10972742043E+02 -0.23166865856E+01  0.13878212302E+02  0.51100000000E-03 0. -1.
        -12    1    3    3    0    0 -0.21639725311E+02 -0.48822756055E+01 -0.16120666355E+02  0.27422439905E+02  0.00000000000E+00 0.  1.
</event>
<event>
 7    1  0.1096439E-011  0.5930195E+02  0.7816164E-02  0.1266605E+00
        -11   -1    0    0    0    0  0.00000000000E+00  0.00000000000E+00  0.45593999997E+02  0.45594000000E+02  0.51100000000E-03 0.  1.
         11   -1    0    0    0    0 -0.00000000000E+00 -0.00000000000E+00 -0.45593999997E+02  0.45594000000E+02  0.51100000000E-03 0. -1.
    9900012    2    1    2    0    0  0.30102357065E+02  0.10141077791E+01 -0.10466124531E+02  0.59301951669E+02  0.50000013937E+02 0.  0.
        -12    1    1    2    0    0 -0.30102357065E+02 -0.10141077791E+01  0.10466124531E+02  0.31886048331E+02  0.00000000000E+00 0.  1.
         11    1    3    3    0    0  0.10500391571E+02 -0.76352925212E+00 -0.72865711440E+01  0.12803722871E+02  0.51100000000E-03 0. -1.
        -11    1    3    3    0    0 -0.22682966044E+01  0.14554823103E+02  0.10137400985E+02  0.17881692986E+02  0.51100000000E-03 0.  1.
        -12    1    3    3    0    0  0.21870262098E+02 -0.12777186072E+02 -0.13316954373E+02  0.28616535813E+02  0.00000000000E+00 0.  1.
</event>
<event>
 7    1  0.1096439E-011  0.5930195E+02  0.7816164E-02  0.1266605E+00
        -11   -1    0    0    0    0  0.00000000000E+00  0.00000000000E+00  0.45593999997E+02  0.45594000000E+02  0.51100000000E-03 0.  1.
         11   -1    0    0    0    0 -0.00000000000E+00 -0.00000000000E+00 -0.45593999997E+02  0.45594000000E+02  0.51100000000E-03 0. -1.
    9900012    2    1    2    0    0  0.94592523680E+01 -0.29717564723E+02 -0.66414871897E+01  0.59301945673E+02  0.50000003001E+02 0.  0.
        -12    1    1    2    0    0 -0.94592523680E+01  0.29717564723E+02  0.66414871897E+01  0.31886054327E+02  0.00000000000E+00 0.  1.
         11    1    3    3    0    0 -0.12983549158E+01 -0.30231246515E+02 -0.46283654031E+01  0.30611039804E+02  0.51100000000E-03 0. -1.
        -11    1    3    3    0    0 -0.87392217398E+00  0.89347745682E+01  0.73038706252E+01  0.11573265007E+02  0.51100000000E-03 0.  1.
        -12    1    3    3    0    0  0.11631529458E+02 -0.84210927765E+01 -0.93169924118E+01  0.17117640862E+02  0.00000000000E+00 0.  1.
</event>
<event>
 7    1  0.1096439E-011  0.5930196E+02  0.7816164E-02  0.1266605E+00
        -11   -1    0    0    0    0  0.00000000000E+00  0.00000000000E+00  0.45593999997E+02  0.45594000000E+02  0.51100000000E-03 0. -1.
         11   -1    0    0    0    0 -0.00000000000E+00 -0.00000000000E+00 -0.45593999997E+02  0.45594000000E+02  0.51100000000E-03 0.  1.
    9900012    2    1    2    0    0 -0.28785720819E+01  0.31245419271E+02  0.56707358113E+01  0.59301958426E+02  0.50000026259E+02 0.  0.
        -12    1    1    2    0    0  0.28785720819E+01 -0.31245419271E+02 -0.56707358113E+01  0.31886041574E+02  0.00000000000E+00 0.  1.
         11    1    3    3    0    0 -0.14304439356E+02  0.16621823907E+02  0.14232208742E+02  0.26143025480E+02  0.51100000000E-03 0. -1.
        -11    1    3    3    0    0  0.17140540606E+01  0.16360769456E+01 -0.15383793502E+02  0.15565212234E+02  0.51100000000E-03 0.  1.
        -12    1    3    3    0    0  0.97118132132E+01  0.12987518418E+02  0.68223205710E+01  0.17593720713E+02  0.00000000000E+00 0.  1.
</event>
<event>
 7    1  0.1096439E-011  0.5930195E+02  0.7816164E-02  0.1266605E+00
        -11   -1    0    0    0    0  0.00000000000E+00  0.00000000000E+00  0.45593999997E+02  0.45594000000E+02  0.51100000000E-03 0.  1.
         11   -1    0    0    0    0 -0.00000000000E+00 -0.00000000000E+00 -0.45593999997E+02  0.45594000000E+02  0.51100000000E-03 0. -1.
    9900012    2    1    2    0    0  0.28280730408E+02  0.78833457306E+01 -0.12440790221E+02  0.59301951113E+02  0.50000012921E+02 0.  0.
        -12    1    1    2    0    0 -0.28280730408E+02 -0.78833457306E+01  0.12440790221E+02  0.31886048887E+02  0.00000000000E+00 0.  1.
         11    1    3    3    0    0  0.10049508138E+02  0.18459759663E+02 -0.24681563424E+02  0.32418126318E+02  0.51100000000E-03 0. -1.
        -11    1    3    3    0    0  0.13811893591E+02 -0.88744460810E+01  0.14250414307E+02  0.21739330855E+02  0.51100000000E-03 0.  1.
        -12    1    3    3    0    0  0.44193286781E+01 -0.17019678518E+01 -0.20096411046E+01  0.51444939404E+01  0.00000000000E+00 0.  1.
</event>
<event>
 7    1  0.1096439E-011  0.5930194E+02  0.7816164E-02  0.1266605E+00
        -11   -1    0    0    0    0  0.00000000000E+00  0.00000000000E+00  0.45593999997E+02  0.45594000000E+02  0.51100000000E-03 0.  1.
         11   -1    0    0    0    0 -0.00000000000E+00 -0.00000000000E+00 -0.45593999997E+02  0.45594000000E+02  0.51100000000E-03 0. -1.
    9900012    2    1    2    0    0 -0.29804063664E+02  0.22500404093E+00 -0.11330833854E+02  0.59301942960E+02  0.49999998053E+02 0.  0.
        -12    1    1    2    0    0  0.29804063664E+02 -0.22500404093E+00  0.11330833854E+02  0.31886057040E+02  0.00000000000E+00 0.  1.
         11    1    3    3    0    0  0.14922832257E+01  0.48257627747E+01 -0.11563672260E+02  0.12618772205E+02  0.51100000000E-03 0. -1.
        -11    1    3    3    0    0 -0.12173907068E+02 -0.62976237727E+01  0.16549465046E+02  0.21488342702E+02  0.51100000000E-03 0.  1.
        -12    1    3    3    0    0 -0.19122439822E+02  0.16968650390E+01 -0.16316626640E+02  0.25194828053E+02  0.00000000000E+00 0.  1.
</event>
<event>
 7    1  0.1096439E-011  0.5930198E+02  0.7816164E-02  0.1266605E+00
        -11   -1    0    0    0    0  0.00000000000E+00  0.00000000000E+00  0.45593999997E+02  0.45594000000E+02  0.51100000000E-03 0.  1.
         11   -1    0    0    0    0 -0.00000000000E+00 -0.00000000000E+00 -0.45593999997E+02  0.45594000000E+02  0.51100000000E-03 0. -1.
    9900012    2    1    2    0    0 -0.59111455140E+01  0.11724637266E+02 -0.29057000194E+02  0.59301983934E+02  0.50000072780E+02 0.  0.
        -12    1    1    2    0    0  0.59111455140E+01 -0.11724637266E+02  0.29057000194E+02  0.31886016066E+02  0.00000000000E+00 0.  1.
         11    1    3    3    0    0  0.15295599400E+02 -0.52320704915E+00 -0.12600831679E+02  0.19824481478E+02  0.51100000000E-03 0. -1.
        -11    1    3    3    0    0 -0.63783912333E+01  0.72409428387E+01  0.65426533693E+01  0.11658535126E+02  0.51100000000E-03 0.  1.
         12    1    3    3    0    0 -0.14828353680E+02  0.50069014763E+01 -0.22998821884E+02  0.27818967330E+02  0.00000000000E+00 0. -1.
</event>
<event>
 7    1  0.1096439E-011  0.5930197E+02  0.7816164E-02  0.1266605E+00
        -11   -1    0    0    0    0  0.00000000000E+00  0.00000000000E+00  0.45593999997E+02  0.45594000000E+02  0.51100000000E-03 0. -1.
         11   -1    0    0    0    0 -0.00000000000E+00 -0.00000000000E+00 -0.45593999997E+02  0.45594000000E+02  0.51100000000E-03 0.  1.
    9900012    2    1    2    0    0  0.29767803046E+02 -0.27697137904E+01  0.11087179541E+02  0.59301969159E+02  0.50000045833E+02 0.  0.
        -12    1    1    2    0    0 -0.29767803046E+02  0.27697137904E+01 -0.11087179541E+02  0.31886030841E+02  0.00000000000E+00 0.  1.
         11    1    3    3    0    0  0.76887902020E+01  0.37899323257E+01  0.20413954233E+02  0.22140700293E+02  0.51100000000E-03 0. -1.
        -11    1    3    3    0    0  0.54615220470E+00 -0.11813984762E+02 -0.92207454444E+01  0.14996355057E+02  0.51100000000E-03 0.  1.
         12    1    3    3    0    0  0.21532860639E+02  0.52543386464E+01 -0.10602924751E+00  0.22164913808E+02  0.00000000000E+00 0. -1.
</event>
<event>
 7    1  0.1096439E-011  0.5930194E+02  0.7816164E-02  0.1266605E+00
        -11   -1    0    0    0    0  0.00000000000E+00  0.00000000000E+00  0.45593999997E+02  0.45594000000E+02  0.51100000000E-03 0.  1.
         11   -1    0    0    0    0 -0.00000000000E+00 -0.00000000000E+00 -0.45593999997E+02  0.45594000000E+02  0.51100000000E-03 0. -1.
    9900012    2    1    2    0    0  0.13650356034E+02 -0.26800153273E+01 -0.28691564175E+02  0.59301944163E+02  0.50000000247E+02 0.  0.
        -12    1    1    2    0    0 -0.13650356034E+02  0.26800153273E+01  0.28691564175E+02  0.31886055837E+02  0.00000000000E+00 0.  1.
         11    1    3    3    0    0  0.84760800898E+01  0.48158979337E+01 -0.36066650091E+02  0.37360942917E+02  0.51100000000E-03 0. -1.
        -11    1    3    3    0    0  0.49289635013E+00 -0.11069611063E+02 -0.16107870408E+01  0.11197047426E+02  0.51100000000E-03 0.  1.
         12    1    3    3    0    0  0.46813795944E+01  0.35736978025E+01  0.89858729568E+01  0.10743953820E+02  0.00000000000E+00 0. -1.
</event>
<event>
 7    1  0.1096439E-011  0.5930195E+02  0.7816164E-02  0.1266605E+00
        -11   -1    0    0    0    0  0.00000000000E+00  0.00000000000E+00  0.45593999997E+02  0.45594000000E+02  0.51100000000E-03 0. -1.
         11   -1    0    0    0    0 -0.00000000000E+00 -0.00000000000E+00 -0.45593999997E+02  0.45594000000E+02  0.51100000000E-03 0.  1.
    9900012    2    1    2    0    0 -0.29903004844E+02  0.96231129080E+00  0.11027434434E+02  0.59301952080E+02  0.50000014686E+02 0.  0.
        -12    1    1    2    0    0  0.29903004844E+02 -0.96231129080E+00 -0.11027434434E+02  0.31886047920E+02  0.00000000000E+00 0.  1.
         11    1    3    3    0    0 -0.54845743827E+01  0.99886326915E+01 -0.14194205175E+02  0.18202439398E+02  0.51100000000E-03 0. -1.
        -11    1    3    3    0    0  0.29407621236E+01  0.93294903440E+00  0.40926748989E+01  0.51252769542E+01  0.51100000000E-03 0.  1.
         12    1    3    3    0    0 -0.27359192585E+02 -0.99592704351E+01  0.21128964710E+02  0.35974235728E+02  0.00000000000E+00 0. -1.
</event>
<event>
 7    1  0.1096439E-011  0.5930192E+02  0.7816164E-02  0.1266605E+00
        -11   -1    0    0    0    0  0.00000000000E+00  0.00000000000E+00  0.45593999997E+02  0.45594000000E+02  0.51100000000E-03 0.  1.
         11   -1    0    0    0    0 -0.00000000000E+00 -0.00000000000E+00 -0.45593999997E+02  0.45594000000E+02  0.51100000000E-03 0. -1.
    9900012    2    1    2    0    0 -0.19208970078E+02 -0.24993295162E+02 -0.48034416634E+01  0.59301915475E+02  0.49999947927E+02 0.  0.
        -12    1    1    2    0    0  0.19208970078E+02  0.24993295162E+02  0.48034416634E+01  0.31886084525E+02  0.00000000000E+00 0.  1.
         11    1    3    3    0    0 -0.24551151586E+02  0.51172590105E+01  0.36043440093E+01  0.25336469367E+02  0.51100000000E-03 0. -1.
        -11    1    3    3    0    0 -0.15484078213E+01 -0.15606952225E+02  0.32541020507E+00  0.15686950520E+02  0.51100000000E-03 0.  1.
         12    1    3    3    0    0  0.68905893291E+01 -0.14503601947E+02 -0.87331958778E+01  0.18278495588E+02  0.00000000000E+00 0. -1.
</event>
<event>
 7    1  0.1096439E-011  0.5930192E+02  0.7816164E-02  0.1266605E+00
        -11   -1    0    0    0    0  0.00000000000E+00  0.00000000000E+00  0.45593999997E+02  0.45594000000E+02  0.51100000000E-03 0. -1.
         11   -1    0    0    0    0 -0.00000000000E+00 -0.00000000000E+00 -0.45593999997E+02  0.45594000000E+02  0.51100000000E-03 0.  1.
    9900012    2    1    2    0    0 -0.61365828316E+01 -0.31271045499E+02  0.10890817392E+01  0.59301920993E+02  0.49999957989E+02 0.  0.
        -12    1    1    2    0    0  0.61365828316E+01  0.31271045499E+02 -0.10890817392E+01  0.31886079007E+02  0.00000000000E+00 0.  1.
         11    1    3    3    0    0 -0.16931525038E+02 -0.20740010186E+02 -0.84038719213E+01  0.28061532855E+02  0.51100000000E-03 0. -1.
        -11    1    3    3    0    0  0.12542703632E+02 -0.27436225552E+01  0.16300892082E+02  0.20750083423E+02  0.51100000000E-03 0.  1.
        -12    1    3    3    0    0 -0.17477614257E+01 -0.77874127572E+01 -0.68079384213E+01  0.10490304714E+02  0.00000000000E+00 0.  1.
</event>
<event>
 7    1  0.1096439E-011  0.5930194E+02  0.7816164E-02  0.1266605E+00
        -11   -1    0    0    0    0  0.00000000000E+00  0.00000000000E+00  0.45593999997E+02  0.45594000000E+02  0.51100000000E-03 0.  1.
         11   -1    0    0    0    0 -0.00000000000E+00 -0.00000000000E+00 -0.45593999997E+02  0.45594000000E+02  0.51100000000E-03 0. -1.
    9900012    2    1    2    0    0 -0.10295922280E+02 -0.17563159057E+02 -0.24540782980E+02  0.59301943472E+02  0.49999998987E+02 0.  0.
        -12    1    1    2    0    0  0.10295922280E+02  0.17563159057E+02  0.24540782980E+02  0.31886056528E+02  0.00000000000E+00 0.  1.
         11    1    3    3    0    0 -0.72213120848E+01  0.15933416846E+02 -0.13268901992E+02  0.21956431425E+02  0.51100000000E-03 0. -1.
        -11    1    3    3    0    0  0.17635672399E+01 -0.24918957062E+02 -0.44730879060E+01  0.25378595433E+02  0.51100000000E-03 0.  1.
         12    1    3    3    0    0 -0.48381774347E+01 -0.85776188410E+01 -0.67987930820E+01  0.11966916614E+02  0.00000000000E+00 0. -1.
</event>
<event>
 7    1  0.1096439E-011  0.5930195E+02  0.7816164E-02  0.1266605E+00
        -11   -1    0    0    0    0  0.00000000000E+00  0.00000000000E+00  0.45593999997E+02  0.45594000000E+02  0.51100000000E-03 0. -1.
         11   -1    0    0    0    0 -0.00000000000E+00 -0.00000000000E+00 -0.45593999997E+02  0.45594000000E+02  0.51100000000E-03 0.  1.
    9900012    2    1    2    0    0  0.16879873615E+01 -0.22276028434E+02  0.22751909657E+02  0.59301950743E+02  0.50000012248E+02 0.  0.
        -12    1    1    2    0    0 -0.16879873615E+01  0.22276028434E+02 -0.22751909657E+02  0.31886049257E+02  0.00000000000E+00 0.  1.
         11    1    3    3    0    0 -0.30193044928E+01 -0.19617689277E+02 -0.51609943842E+01  0.20508676102E+02  0.51100000000E-03 0.  1.
        -11    1    3    3    0    0 -0.17063409060E+01 -0.21255878793E+01  0.31369726161E+02  0.31487925349E+02  0.51100000000E-03 0. -1.
         12    1    3    3    0    0  0.64136327603E+01 -0.53275127842E+00 -0.34568221194E+01  0.73053492917E+01  0.00000000000E+00 0. -1.
</event>
<event>
 7    1  0.1096439E-011  0.5930193E+02  0.7816164E-02  0.1266605E+00
        -11   -1    0    0    0    0  0.00000000000E+00  0.00000000000E+00  0.45593999997E+02  0.45594000000E+02  0.51100000000E-03 0.  1.
         11   -1    0    0    0    0 -0.00000000000E+00 -0.00000000000E+00 -0.45593999997E+02  0.45594000000E+02  0.51100000000E-03 0. -1.
    9900012    2    1    2    0    0  0.88607891494E+01  0.28899942080E+02 -0.10148939929E+02  0.59301933791E+02  0.49999981331E+02 0.  0.
        -12    1    1    2    0    0 -0.88607891494E+01 -0.28899942080E+02  0.10148939929E+02  0.31886066209E+02  0.00000000000E+00 0.  1.
         11    1    3    3    0    0 -0.12966095926E+02  0.24882849244E+02 -0.41583081706E+01  0.28364896566E+02  0.51100000000E-03 0. -1.
        -11    1    3    3    0    0  0.18983037221E+02 -0.48069978959E+01  0.55181382451E+00  0.19589982891E+02  0.51100000000E-03 0.  1.
         12    1    3    3    0    0  0.28438478541E+01  0.88240907318E+01 -0.65424455830E+01  0.11347054334E+02  0.00000000000E+00 0. -1.
</event>
<event>
 7    1  0.1096439E-011  0.5930194E+02  0.7816164E-02  0.1266605E+00
        -11   -1    0    0    0    0  0.00000000000E+00  0.00000000000E+00  0.45593999997E+02  0.45594000000E+02  0.51100000000E-03 0.  1.
         11   -1    0    0    0    0 -0.00000000000E+00 -0.00000000000E+00 -0.45593999997E+02  0.45594000000E+02  0.51100000000E-03 0. -1.
    9900012    2    1    2    0    0 -0.14690336563E+02  0.45912719202E+01 -0.27925523459E+02  0.59301943069E+02  0.49999998251E+02 0.  0.
        -12    1    1    2    0    0  0.14690336563E+02 -0.45912719202E+01  0.27925523459E+02  0.31886056931E+02  0.00000000000E+00 0.  1.
         11    1    3    3    0    0 -0.15977320396E+02 -0.76728198499E+01 -0.20400263080E+02  0.27024390196E+02  0.51100000000E-03 0. -1.
        -11    1    3    3    0    0 -0.14386721486E+01  0.19953774709E+02  0.15606104108E+01  0.20066350137E+02  0.51100000000E-03 0.  1.
        -12    1    3    3    0    0  0.27256559820E+01 -0.76896829393E+01 -0.90858707898E+01  0.12211202735E+02  0.00000000000E+00 0.  1.
</event>
<event>
 7    1  0.1096439E-011  0.5930197E+02  0.7816164E-02  0.1266605E+00
        -11   -1    0    0    0    0  0.00000000000E+00  0.00000000000E+00  0.45593999997E+02  0.45594000000E+02  0.51100000000E-03 0. -1.
         11   -1    0    0    0    0 -0.00000000000E+00 -0.00000000000E+00 -0.45593999997E+02  0.45594000000E+02  0.51100000000E-03 0.  1.
    9900012    2    1    2    0    0 -0.40303105345E+01  0.16668953853E+02  0.26881620289E+02  0.59301969596E+02  0.50000046630E+02 0.  0.
        -12    1    1    2    0    0  0.40303105345E+01 -0.16668953853E+02 -0.26881620289E+02  0.31886030404E+02  0.00000000000E+00 0.  1.
         11    1    3    3    0    0 -0.44238025780E+01  0.20268661182E+02  0.27214254587E+02  0.34219940215E+02  0.51100000000E-03 0. -1.
        -11    1    3    3    0    0  0.18633078648E+01  0.70797046911E+01 -0.87473509616E+01  0.11406589491E+02  0.51100000000E-03 0.  1.
         12    1    3    3    0    0 -0.14698158214E+01 -0.10679412020E+02  0.84147166639E+01  0.13675439890E+02  0.00000000000E+00 0. -1.
</event>
<event>
 7    1  0.1096439E-011  0.5930197E+02  0.7816164E-02  0.1266605E+00
        -11   -1    0    0    0    0  0.00000000000E+00  0.00000000000E+00  0.45593999997E+02  0.45594000000E+02  0.51100000000E-03 0.  1.
         11   -1    0    0    0    0 -0.00000000000E+00 -0.00000000000E+00 -0.45593999997E+02  0.45594000000E+02  0.51100000000E-03 0. -1.
    9900012    2    1    2    0    0 -0.23164925822E+02 -0.16868218957E+02 -0.13984578583E+02  0.59301967991E+02  0.50000043704E+02 0.  0.
        -12    1    1    2    0    0  0.23164925822E+02  0.16868218957E+02  0.13984578583E+02  0.31886032009E+02  0.00000000000E+00 0.  1.
         11    1    3    3    0    0  0.89877043425E+01 -0.29359301641E+01 -0.34526203070E+01  0.10065739045E+02  0.51100000000E-03 0. -1.
        -11    1    3    3    0    0 -0.77725520755E+01 -0.19442946419E+02 -0.12114720602E+02  0.24191055925E+02  0.51100000000E-03 0.  1.
        -12    1    3    3    0    0 -0.24380078089E+02  0.55106576265E+01  0.15827623259E+01  0.25045173022E+02  0.00000000000E+00 0.  1.
</event>
<event>
 7    1  0.1096439E-011  0.5930195E+02  0.7816164E-02  0.1266605E+00
        -11   -1    0    0    0    0  0.00000000000E+00  0.00000000000E+00  0.45593999997E+02  0.45594000000E+02  0.51100000000E-03 0.  1.
         11   -1    0    0    0    0 -0.00000000000E+00 -0.00000000000E+00 -0.45593999997E+02  0.45594000000E+02  0.51100000000E-03 0. -1.
    9900012    2    1    2    0    0  0.91049380719E+01 -0.25158854144E+02 -0.17345093202E+02  0.59301951369E+02  0.50000013388E+02 0.  0.
        -12    1    1    2    0    0 -0.91049380719E+01  0.25158854144E+02  0.17345093202E+02  0.31886048631E+02  0.00000000000E+00 0.  1.
         11    1    3    3    0    0 -0.57104993731E+01 -0.20342810996E+02 -0.60829322297E+01  0.21987310592E+02  0.51100000000E-03 0. -1.
        -11    1    3    3    0    0 -0.20755357446E+01  0.81654952356E+01  0.56247607156E+01  0.10130207028E+02  0.51100000000E-03 0.  1.
        -12    1    3    3    0    0  0.16890973190E+02 -0.12981538384E+02 -0.16886921688E+02  0.27184433748E+02  0.00000000000E+00 0.  1.
</event>
<event>
 7    1  0.1096439E-011  0.5930194E+02  0.7816164E-02  0.1266605E+00
        -11   -1    0    0    0    0  0.00000000000E+00  0.00000000000E+00  0.45593999997E+02  0.45594000000E+02  0.51100000000E-03 0. -1.
         11   -1    0    0    0    0 -0.00000000000E+00 -0.00000000000E+00 -0.45593999997E+02  0.45594000000E+02  0.51100000000E-03 0.  1.
    9900012    2    1    2    0    0 -0.98449693273E+01  0.18258380017E+02  0.24216296174E+02  0.59301939374E+02  0.49999991512E+02 0.  0.
        -12    1    1    2    0    0  0.98449693273E+01 -0.18258380017E+02 -0.24216296174E+02  0.31886060626E+02  0.00000000000E+00 0.  1.
         11    1    3    3    0    0 -0.36201961915E+01 -0.16196576997E+02  0.46924449001E+01  0.17246853808E+02  0.51100000000E-03 0.  1.
        -11    1    3    3    0    0 -0.84530705887E+01  0.22768716628E+02  0.82095236330E+01  0.25637182719E+02  0.51100000000E-03 0. -1.
        -12    1    3    3    0    0  0.22282974529E+01  0.11686240386E+02  0.11314327641E+02  0.16417902846E+02  0.00000000000E+00 0.  1.
</event>
<event>
 7    1  0.1096439E-011  0.5930194E+02  0.7816164E-02  0.1266605E+00
        -11   -1    0    0    0    0  0.00000000000E+00  0.00000000000E+00  0.45593999997E+02  0.45594000000E+02  0.51100000000E-03 0. -1.
         11   -1    0    0    0    0 -0.00000000000E+00 -0.00000000000E+00 -0.45593999997E+02  0.45594000000E+02  0.51100000000E-03 0.  1.
    9900012    2    1    2    0    0  0.11845554674E+02 -0.23799164884E+02  0.17606911029E+02  0.59301941437E+02  0.49999995275E+02 0.  0.
        -12    1    1    2    0    0 -0.11845554674E+02  0.23799164884E+02 -0.17606911029E+02  0.31886058563E+02  0.00000000000E+00 0.  1.
         11    1    3    3    0    0 -0.92188446738E+01  0.95640264538E+01  0.51961196810E+00  0.13293896945E+02  0.51100000000E-03 0. -1.
        -11    1    3    3    0    0  0.14486075629E+02 -0.13648457553E+02  0.13685075181E+01  0.19949927163E+02  0.51100000000E-03 0.  1.
         12    1    3    3    0    0  0.65783237184E+01 -0.19714733784E+02  0.15718791543E+02  0.26058117329E+02  0.00000000000E+00 0. -1.
</event>
<event>
 7    1  0.1096439E-011  0.5930183E+02  0.7816164E-02  0.1266605E+00
        -11   -1    0    0    0    0  0.00000000000E+00  0.00000000000E+00  0.45593999997E+02  0.45594000000E+02  0.51100000000E-03 0. -1.
         11   -1    0    0    0    0 -0.00000000000E+00 -0.00000000000E+00 -0.45593999997E+02  0.45594000000E+02  0.51100000000E-03 0.  1.
    9900012    2    1    2    0    0  0.29452536849E+02 -0.10671134804E+02 -0.59500051467E+01  0.59301833625E+02  0.49999798652E+02 0.  0.
        -12    1    1    2    0    0 -0.29452536849E+02  0.10671134804E+02  0.59500051467E+01  0.31886166375E+02  0.00000000000E+00 0.  1.
         11    1    3    3    0    0  0.38712959357E+02 -0.10324513847E+02 -0.61170280153E+00  0.40070724837E+02  0.51100000000E-03 0. -1.
        -11    1    3    3    0    0 -0.14968613242E+00 -0.92857982729E-01 -0.92938381519E+01  0.92955073233E+01  0.51100000000E-03 0.  1.
         12    1    3    3    0    0 -0.91107363759E+01 -0.25376297486E+00  0.39555358067E+01  0.99356014653E+01  0.00000000000E+00 0. -1.
</event>
<event>
 7    1  0.1096439E-011  0.5930195E+02  0.7816164E-02  0.1266605E+00
        -11   -1    0    0    0    0  0.00000000000E+00  0.00000000000E+00  0.45593999997E+02  0.45594000000E+02  0.51100000000E-03 0. -1.
         11   -1    0    0    0    0 -0.00000000000E+00 -0.00000000000E+00 -0.45593999997E+02  0.45594000000E+02  0.51100000000E-03 0.  1.
    9900012    2    1    2    0    0  0.19656861803E+01 -0.86452517878E+01  0.30628677829E+02  0.59301949662E+02  0.50000010276E+02 0.  0.
        -12    1    1    2    0    0 -0.19656861803E+01  0.86452517878E+01 -0.30628677829E+02  0.31886050338E+02  0.00000000000E+00 0.  1.
         11    1    3    3    0    0 -0.22230480684E+02  0.16264193999E+01  0.14457893190E+02  0.26568217615E+02  0.51100000000E-03 0. -1.
        -11    1    3    3    0    0  0.17607026456E+02 -0.93878100188E+01  0.64751631846E+01  0.20977752409E+02  0.51100000000E-03 0.  1.
         12    1    3    3    0    0  0.65891404077E+01 -0.88386116889E+00  0.96956214537E+01  0.11755979638E+02  0.00000000000E+00 0. -1.
</event>
<event>
 7    1  0.1096439E-011  0.5930195E+02  0.7816164E-02  0.1266605E+00
        -11   -1    0    0    0    0  0.00000000000E+00  0.00000000000E+00  0.45593999997E+02  0.45594000000E+02  0.51100000000E-03 0.  1.
         11   -1    0    0    0    0 -0.00000000000E+00 -0.00000000000E+00 -0.45593999997E+02  0.45594000000E+02  0.51100000000E-03 0. -1.
    9900012    2    1    2    0    0 -0.16830875704E+02 -0.27081367573E+02 -0.20383449470E+00  0.59301946699E+02  0.50000004872E+02 0.  0.
        -12    1    1    2    0    0  0.16830875704E+02  0.27081367573E+02  0.20383449470E+00  0.31886053301E+02  0.00000000000E+00 0.  1.
         11    1    3    3    0    0 -0.27828365566E+02 -0.22880011096E+02  0.80018439381E+01  0.36904503039E+02  0.51100000000E-03 0. -1.
        -11    1    3    3    0    0  0.62422987460E-01  0.70304006552E-01 -0.10445474342E+02  0.10445897461E+02  0.51100000000E-03 0.  1.
         12    1    3    3    0    0  0.10935066875E+02 -0.42716604836E+01  0.22397959092E+01  0.11951546199E+02  0.00000000000E+00 0. -1.
</event>
<event>
 7    1  0.1096439E-011  0.5930195E+02  0.7816164E-02  0.1266605E+00
        -11   -1    0    0    0    0  0.00000000000E+00  0.00000000000E+00  0.45593999997E+02  0.45594000000E+02  0.51100000000E-03 0.  1.
         11   -1    0    0    0    0 -0.00000000000E+00 -0.00000000000E+00 -0.45593999997E+02  0.45594000000E+02  0.51100000000E-03 0. -1.
    9900012    2    1    2    0    0 -0.28498308480E+02 -0.13698307353E+02 -0.41137573818E+01  0.59301949597E+02  0.50000010156E+02 0.  0.
        -12    1    1    2    0    0  0.28498308480E+02  0.13698307353E+02  0.41137573818E+01  0.31886050403E+02  0.00000000000E+00 0.  1.
         11    1    3    3    0    0 -0.48289876114E+01  0.10037460411E+02 -0.14423369442E+01  0.11231654775E+02  0.51100000000E-03 0. -1.
        -11    1    3    3    0    0 -0.34502620334E+00 -0.16609612448E+02  0.11178065704E+02  0.20023671539E+02  0.51100000000E-03 0.  1.
        -12    1    3    3    0    0 -0.23324294665E+02 -0.71261553157E+01 -0.13849486141E+02  0.28046623283E+02  0.00000000000E+00 0.  1.
</event>
<event>
 7    1  0.1096439E-011  0.5930194E+02  0.7816164E-02  0.1266605E+00
        -11   -1    0    0    0    0  0.00000000000E+00  0.00000000000E+00  0.45593999997E+02  0.45594000000E+02  0.51100000000E-03 0.  1.
         11   -1    0    0    0    0 -0.00000000000E+00 -0.00000000000E+00 -0.45593999997E+02  0.45594000000E+02  0.51100000000E-03 0. -1.
    9900012    2    1    2    0    0  0.11631405495E+02  0.22720616572E+02  0.19110330413E+02  0.59301941295E+02  0.49999995017E+02 0.  0.
        -12    1    1    2    0    0 -0.11631405495E+02 -0.22720616572E+02 -0.19110330413E+02  0.31886058705E+02  0.00000000000E+00 0.  1.
         11    1    3    3    0    0 -0.13870446203E+02  0.89009008882E+01 -0.75609083964E+01  0.18132364725E+02  0.51100000000E-03 0. -1.
        -11    1    3    3    0    0  0.33872968667E+01  0.62753637150E+01  0.10730210460E+02  0.12883764458E+02  0.51100000000E-03 0.  1.
         12    1    3    3    0    0  0.22114554831E+02  0.75443519689E+01  0.15941028349E+02  0.28285812112E+02  0.00000000000E+00 0. -1.
</event>
<event>
 7    1  0.1096439E-011  0.5930190E+02  0.7816164E-02  0.1266605E+00
        -11   -1    0    0    0    0  0.00000000000E+00  0.00000000000E+00  0.45593999997E+02  0.45594000000E+02  0.51100000000E-03 0.  1.
         11   -1    0    0    0    0 -0.00000000000E+00 -0.00000000000E+00 -0.45593999997E+02  0.45594000000E+02  0.51100000000E-03 0. -1.
    9900012    2    1    2    0    0 -0.41576826053E+01 -0.19023264603E+02 -0.25249802523E+02  0.59301898824E+02  0.49999917558E+02 0.  0.
        -12    1    1    2    0    0  0.41576826053E+01  0.19023264603E+02  0.25249802523E+02  0.31886101176E+02  0.00000000000E+00 0.  1.
         11    1    3    3    0    0 -0.36916810231E+01 -0.27004412949E+02 -0.30769787154E+02  0.41105311448E+02  0.51100000000E-03 0. -1.
        -11    1    3    3    0    0  0.27643865349E+01 -0.34367873382E+01  0.44771134963E+01  0.62847343335E+01  0.51100000000E-03 0.  1.
         12    1    3    3    0    0 -0.32303881170E+01  0.11417935685E+02  0.10428711349E+01  0.11911853042E+02  0.00000000000E+00 0. -1.
</event>
<event>
 7    1  0.1096439E-011  0.5930196E+02  0.7816164E-02  0.1266605E+00
        -11   -1    0    0    0    0  0.00000000000E+00  0.00000000000E+00  0.45593999997E+02  0.45594000000E+02  0.51100000000E-03 0. -1.
         11   -1    0    0    0    0 -0.00000000000E+00 -0.00000000000E+00 -0.45593999997E+02  0.45594000000E+02  0.51100000000E-03 0.  1.
    9900012    2    1    2    0    0  0.10830487706E+02 -0.67803332881E+00  0.29982667272E+02  0.59301960266E+02  0.50000029615E+02 0.  0.
        -12    1    1    2    0    0 -0.10830487706E+02  0.67803332881E+00 -0.29982667272E+02  0.31886039734E+02  0.00000000000E+00 0.  1.
         11    1    3    3    0    0  0.21040441779E+02 -0.87055750087E+01  0.32424205862E+02  0.39620908022E+02  0.51100000000E-03 0. -1.
        -11    1    3    3    0    0 -0.35490050264E+01 -0.17475569012E+01 -0.61254948248E+01  0.72918501706E+01  0.51100000000E-03 0.  1.
         12    1    3    3    0    0 -0.66609490462E+01  0.97750985810E+01  0.36839562356E+01  0.12389202073E+02  0.00000000000E+00 0. -1.
</event>
<event>
 7    1  0.1096439E-011  0.5930194E+02  0.7816164E-02  0.1266605E+00
        -11   -1    0    0    0    0  0.00000000000E+00  0.00000000000E+00  0.45593999997E+02  0.45594000000E+02  0.51100000000E-03 0.  1.
         11   -1    0    0    0    0 -0.00000000000E+00 -0.00000000000E+00 -0.45593999997E+02  0.45594000000E+02  0.51100000000E-03 0. -1.
    9900012    2    1    2    0    0 -0.14862248152E+02 -0.27030992424E+02 -0.80721833053E+01  0.59301935412E+02  0.49999984288E+02 0.  0.
        -12    1    1    2    0    0  0.14862248152E+02  0.27030992424E+02  0.80721833053E+01  0.31886064588E+02  0.00000000000E+00 0.  1.
         11    1    3    3    0    0 -0.12403962315E+02 -0.16835453249E+02 -0.47824499819E+01  0.21451400777E+02  0.51100000000E-03 0. -1.
        -11    1    3    3    0    0 -0.10465540424E+02  0.96746031737E+01 -0.73662248221E+01  0.16043277450E+02  0.51100000000E-03 0.  1.
        -12    1    3    3    0    0  0.80072545877E+01 -0.19870142350E+02  0.40764914987E+01  0.21807257186E+02  0.00000000000E+00 0.  1.
</event>
<event>
 7    1  0.1096439E-011  0.5930191E+02  0.7816164E-02  0.1266605E+00
        -11   -1    0    0    0    0  0.00000000000E+00  0.00000000000E+00  0.45593999997E+02  0.45594000000E+02  0.51100000000E-03 0. -1.
         11   -1    0    0    0    0 -0.00000000000E+00 -0.00000000000E+00 -0.45593999997E+02  0.45594000000E+02  0.51100000000E-03 0.  1.
    9900012    2    1    2    0    0  0.16135863417E+02 -0.17325087931E+02  0.21358795681E+02  0.59301907217E+02  0.49999932866E+02 0.  0.
        -12    1    1    2    0    0 -0.16135863417E+02  0.17325087931E+02 -0.21358795681E+02  0.31886092783E+02  0.00000000000E+00 0.  1.
         11    1    3    3    0    0 -0.21063817871E+01  0.40223666732E+01  0.14822568340E+00  0.45429339639E+01  0.51100000000E-03 0. -1.
        -11    1    3    3    0    0  0.29792813665E+02 -0.60399693178E+01  0.17962977819E+02  0.35309510728E+02  0.51100000000E-03 0.  1.
        -12    1    3    3    0    0 -0.11550568461E+02 -0.15307485287E+02  0.32475921786E+01  0.19449462525E+02  0.00000000000E+00 0.  1.
</event>
<event>
 7    1  0.1096439E-011  0.5930194E+02  0.7816164E-02  0.1266605E+00
        -11   -1    0    0    0    0  0.00000000000E+00  0.00000000000E+00  0.45593999997E+02  0.45594000000E+02  0.51100000000E-03 0.  1.
         11   -1    0    0    0    0 -0.00000000000E+00 -0.00000000000E+00 -0.45593999997E+02  0.45594000000E+02  0.51100000000E-03 0. -1.
    9900012    2    1    2    0    0 -0.22958818126E+01 -0.82345234941E+01 -0.30718764832E+02  0.59301937790E+02  0.49999988624E+02 0.  0.
        -12    1    1    2    0    0  0.22958818126E+01  0.82345234941E+01  0.30718764832E+02  0.31886062210E+02  0.00000000000E+00 0.  1.
         11    1    3    3    0    0  0.12069245660E+02 -0.12776335892E+02 -0.24269019517E+02  0.29964758604E+02  0.51100000000E-03 0. -1.
        -11    1    3    3    0    0 -0.18230744510E+02 -0.36635629160E+01 -0.78037750501E+01  0.20166324502E+02  0.51100000000E-03 0.  1.
         12    1    3    3    0    0  0.38656170370E+01  0.82053753138E+01  0.13540297354E+01  0.91708546843E+01  0.00000000000E+00 0. -1.
</event>
<event>
 7    1  0.1096439E-011  0.5930194E+02  0.7816164E-02  0.1266605E+00
        -11   -1    0    0    0    0  0.00000000000E+00  0.00000000000E+00  0.45593999997E+02  0.45594000000E+02  0.51100000000E-03 0.  1.
         11   -1    0    0    0    0 -0.00000000000E+00 -0.00000000000E+00 -0.45593999997E+02  0.45594000000E+02  0.51100000000E-03 0. -1.
    9900012    2    1    2    0    0 -0.82326849978E+01  0.29446752639E+02 -0.90461190215E+01  0.59301943289E+02  0.49999998652E+02 0.  0.
        -12    1    1    2    0    0  0.82326849978E+01 -0.29446752639E+02  0.90461190215E+01  0.31886056711E+02  0.00000000000E+00 0.  1.
         11    1    3    3    0    0 -0.26578928983E+02  0.26438242320E+02 -0.54590718047E+00  0.37492907833E+02  0.51100000000E-03 0. -1.
        -11    1    3    3    0    0  0.11457120543E+02  0.49013866968E+01 -0.30670665439E+01  0.12833397841E+02  0.51100000000E-03 0.  1.
         12    1    3    3    0    0  0.68891234414E+01 -0.18928763779E+01 -0.54331452971E+01  0.89756376148E+01  0.00000000000E+00 0. -1.
</event>
<event>
 7    1  0.1096439E-011  0.5930194E+02  0.7816164E-02  0.1266605E+00
        -11   -1    0    0    0    0  0.00000000000E+00  0.00000000000E+00  0.45593999997E+02  0.45594000000E+02  0.51100000000E-03 0. -1.
         11   -1    0    0    0    0 -0.00000000000E+00 -0.00000000000E+00 -0.45593999997E+02  0.45594000000E+02  0.51100000000E-03 0.  1.
    9900012    2    1    2    0    0 -0.15165809528E+02  0.27913643498E+02 -0.27472470642E+01  0.59301942884E+02  0.49999997914E+02 0.  0.
        -12    1    1    2    0    0  0.15165809528E+02 -0.27913643498E+02  0.27472470642E+01  0.31886057116E+02  0.00000000000E+00 0.  1.
         11    1    3    3    0    0 -0.13975272188E+02  0.18495417265E+02 -0.42705447019E+01  0.23571725538E+02  0.51100000000E-03 0. -1.
        -11    1    3    3    0    0  0.15502229032E+02  0.78597294077E+01 -0.44346344011E+01  0.17937681953E+02  0.51100000000E-03 0.  1.
        -12    1    3    3    0    0 -0.16692766372E+02  0.15584968253E+01  0.59579320389E+01  0.17792535393E+02  0.00000000000E+00 0.  1.
</event>
<event>
 7    1  0.1096439E-011  0.5930194E+02  0.7816164E-02  0.1266605E+00
        -11   -1    0    0    0    0  0.00000000000E+00  0.00000000000E+00  0.45593999997E+02  0.45594000000E+02  0.51100000000E-03 0.  1.
         11   -1    0    0    0    0 -0.00000000000E+00 -0.00000000000E+00 -0.45593999997E+02  0.45594000000E+02  0.51100000000E-03 0. -1.
    9900012    2    1    2    0    0 -0.13364734318E+02  0.21929095567E+02 -0.18900245158E+02  0.59301943129E+02  0.49999998360E+02 0.  0.
        -12    1    1    2    0    0  0.13364734318E+02 -0.21929095567E+02  0.18900245158E+02  0.31886056871E+02  0.00000000000E+00 0.  1.
         11    1    3    3    0    0 -0.15161491344E+02  0.14005082036E+02  0.46788276683E+01  0.21163756075E+02  0.51100000000E-03 0.  1.
        -11    1    3    3    0    0  0.93411204203E+00  0.14172747410E+02 -0.27329121806E+02  0.30799679112E+02  0.51100000000E-03 0. -1.
        -12    1    3    3    0    0  0.86264498399E+00 -0.62487338787E+01  0.37500489800E+01  0.73385079415E+01  0.00000000000E+00 0.  1.
</event>
<event>
 7    1  0.1096439E-011  0.5930194E+02  0.7816164E-02  0.1266605E+00
        -11   -1    0    0    0    0  0.00000000000E+00  0.00000000000E+00  0.45593999997E+02  0.45594000000E+02  0.51100000000E-03 0. -1.
         11   -1    0    0    0    0 -0.00000000000E+00 -0.00000000000E+00 -0.45593999997E+02  0.45594000000E+02  0.51100000000E-03 0.  1.
    9900012    2    1    2    0    0 -0.24345534939E+02 -0.17376066161E+02  0.11049353771E+02  0.59301937755E+02  0.49999988560E+02 0.  0.
        -12    1    1    2    0    0  0.24345534939E+02  0.17376066161E+02 -0.11049353771E+02  0.31886062245E+02  0.00000000000E+00 0.  1.
         11    1    3    3    0    0 -0.82749027130E+01  0.72979093195E+01  0.22956335520E+02  0.25470116531E+02  0.51100000000E-03 0. -1.
        -11    1    3    3    0    0 -0.16846736751E+02 -0.18658689625E+02 -0.71854771088E+01  0.26145560220E+02  0.51100000000E-03 0.  1.
         12    1    3    3    0    0  0.77610452433E+00 -0.60152858554E+01 -0.47215046401E+01  0.76862610040E+01  0.00000000000E+00 0. -1.
</event>
<event>
 7    1  0.1096439E-011  0.5930195E+02  0.7816164E-02  0.1266605E+00
        -11   -1    0    0    0    0  0.00000000000E+00  0.00000000000E+00  0.45593999997E+02  0.45594000000E+02  0.51100000000E-03 0.  1.
         11   -1    0    0    0    0 -0.00000000000E+00 -0.00000000000E+00 -0.45593999997E+02  0.45594000000E+02  0.51100000000E-03 0. -1.
    9900012    2    1    2    0    0 -0.10679957616E+02  0.27580628681E+02 -0.11915025338E+02  0.59301946592E+02  0.50000004677E+02 0.  0.
        -12    1    1    2    0    0  0.10679957616E+02 -0.27580628681E+02  0.11915025338E+02  0.31886053408E+02  0.00000000000E+00 0.  1.
         11    1    3    3    0    0 -0.17865902398E+02  0.68765388192E+01 -0.95975006653E+01  0.21414697615E+02  0.51100000000E-03 0. -1.
        -11    1    3    3    0    0  0.72135294134E+01  0.13778496260E+02 -0.16148010803E+02  0.22419639135E+02  0.51100000000E-03 0.  1.
        -12    1    3    3    0    0 -0.27584630758E-01  0.69255936014E+01  0.13830486130E+02  0.15467609842E+02  0.00000000000E+00 0.  1.
</event>
<event>
 7    1  0.1096439E-011  0.5930189E+02  0.7816164E-02  0.1266605E+00
        -11   -1    0    0    0    0  0.00000000000E+00  0.00000000000E+00  0.45593999997E+02  0.45594000000E+02  0.51100000000E-03 0.  1.
         11   -1    0    0    0    0 -0.00000000000E+00 -0.00000000000E+00 -0.45593999997E+02  0.45594000000E+02  0.51100000000E-03 0. -1.
    9900012    2    1    2    0    0 -0.42037638008E+01 -0.11720999061E+02 -0.29354228822E+02  0.59301887054E+02  0.49999896093E+02 0.  0.
        -12    1    1    2    0    0  0.42037638008E+01  0.11720999061E+02  0.29354228822E+02  0.31886112946E+02  0.00000000000E+00 0.  1.
         11    1    3    3    0    0 -0.83642278249E+00  0.48158170030E+01 -0.26934324820E+02  0.27374249766E+02  0.51100000000E-03 0. -1.
        -11    1    3    3    0    0  0.55167442615E+01 -0.18787478236E+02  0.49161040226E+01  0.20188409663E+02  0.51100000000E-03 0.  1.
        -12    1    3    3    0    0 -0.88840852797E+01  0.22506621723E+01 -0.73360080249E+01  0.11739227624E+02  0.00000000000E+00 0.  1.
</event>
<event>
 7    1  0.1096439E-011  0.5930196E+02  0.7816164E-02  0.1266605E+00
        -11   -1    0    0    0    0  0.00000000000E+00  0.00000000000E+00  0.45593999997E+02  0.45594000000E+02  0.51100000000E-03 0. -1.
         11   -1    0    0    0    0 -0.00000000000E+00 -0.00000000000E+00 -0.45593999997E+02  0.45594000000E+02  0.51100000000E-03 0.  1.
    9900012    2    1    2    0    0 -0.10799919609E+02  0.24711111584E+02  0.17013003567E+02  0.59301959329E+02  0.50000027906E+02 0.  0.
        -12    1    1    2    0    0  0.10799919609E+02 -0.24711111584E+02 -0.17013003567E+02  0.31886040671E+02  0.00000000000E+00 0.  1.
         11    1    3    3    0    0 -0.18278668783E+02  0.14271124345E+02  0.99496038640E+01  0.25234288971E+02  0.51100000000E-03 0. -1.
        -11    1    3    3    0    0  0.10239132928E+02 -0.44921650447E+01 -0.71471806937E+01  0.13270327126E+02  0.51100000000E-03 0.  1.
         12    1    3    3    0    0 -0.27603837543E+01  0.14932152284E+02  0.14210580397E+02  0.20797343232E+02  0.00000000000E+00 0. -1.
</event>
<event>
 7    1  0.1096439E-011  0.5930196E+02  0.7816164E-02  0.1266605E+00
        -11   -1    0    0    0    0  0.00000000000E+00  0.00000000000E+00  0.45593999997E+02  0.45594000000E+02  0.51100000000E-03 0.  1.
         11   -1    0    0    0    0 -0.00000000000E+00 -0.00000000000E+00 -0.45593999997E+02  0.45594000000E+02  0.51100000000E-03 0. -1.
    9900012    2    1    2    0    0  0.72379793497E+01  0.14850452373E+02 -0.27272614601E+02  0.59301956220E+02  0.50000022236E+02 0.  0.
        -12    1    1    2    0    0 -0.72379793497E+01 -0.14850452373E+02  0.27272614601E+02  0.31886043780E+02  0.00000000000E+00 0.  1.
         11    1    3    3    0    0 -0.17874617400E+02  0.65189239912E+01 -0.22012936225E+02  0.29095836106E+02  0.51100000000E-03 0. -1.
        -11    1    3    3    0    0  0.20660912978E+02  0.12065761802E+02 -0.39512982215E+01  0.24250127646E+02  0.51100000000E-03 0.  1.
         12    1    3    3    0    0  0.44516837716E+01 -0.37342334209E+01 -0.13083801550E+01  0.59559924676E+01  0.00000000000E+00 0. -1.
</event>
<event>
 7    1  0.1096439E-011  0.5930194E+02  0.7816164E-02  0.1266605E+00
        -11   -1    0    0    0    0  0.00000000000E+00  0.00000000000E+00  0.45593999997E+02  0.45594000000E+02  0.51100000000E-03 0.  1.
         11   -1    0    0    0    0 -0.00000000000E+00 -0.00000000000E+00 -0.45593999997E+02  0.45594000000E+02  0.51100000000E-03 0. -1.
    9900012    2    1    2    0    0 -0.26455978602E+02  0.27205128029E+01 -0.17589785089E+02  0.59301944534E+02  0.50000000923E+02 0.  0.
        -12    1    1    2    0    0  0.26455978602E+02 -0.27205128029E+01  0.17589785089E+02  0.31886055466E+02  0.00000000000E+00 0.  1.
         11    1    3    3    0    0 -0.18404706601E+02 -0.89824746071E+01 -0.31831765334E+02  0.37850751111E+02  0.51100000000E-03 0. -1.
        -11    1    3    3    0    0 -0.15391682897E+01  0.76607982684E+00  0.61080901355E+01  0.63454458228E+01  0.51100000000E-03 0.  1.
         12    1    3    3    0    0 -0.65121037114E+01  0.10936907583E+02  0.81338901095E+01  0.15105747600E+02  0.00000000000E+00 0. -1.
</event>
<event>
 7    1  0.1096439E-011  0.5930195E+02  0.7816164E-02  0.1266605E+00
        -11   -1    0    0    0    0  0.00000000000E+00  0.00000000000E+00  0.45593999997E+02  0.45594000000E+02  0.51100000000E-03 0.  1.
         11   -1    0    0    0    0 -0.00000000000E+00 -0.00000000000E+00 -0.45593999997E+02  0.45594000000E+02  0.51100000000E-03 0. -1.
    9900012    2    1    2    0    0 -0.16230160948E+02  0.99713870827E+01 -0.25570950838E+02  0.59301949578E+02  0.50000010123E+02 0.  0.
        -12    1    1    2    0    0  0.16230160948E+02 -0.99713870827E+01  0.25570950838E+02  0.31886050422E+02  0.00000000000E+00 0.  1.
         11    1    3    3    0    0 -0.26718586730E+02  0.57370291123E+01 -0.18698228308E+02  0.33112235232E+02  0.51100000000E-03 0. -1.
        -11    1    3    3    0    0 -0.22009101045E+01 -0.36319449239E+01  0.53952457193E+01  0.68661274275E+01  0.51100000000E-03 0.  1.
         12    1    3    3    0    0  0.12689335887E+02  0.78663028944E+01 -0.12267968248E+02  0.19323586919E+02  0.00000000000E+00 0. -1.
</event>
<event>
 7    1  0.1096439E-011  0.5930226E+02  0.7816164E-02  0.1266604E+00
        -11   -1    0    0    0    0  0.00000000000E+00  0.00000000000E+00  0.45593999997E+02  0.45594000000E+02  0.51100000000E-03 0.  1.
         11   -1    0    0    0    0 -0.00000000000E+00 -0.00000000000E+00 -0.45593999997E+02  0.45594000000E+02  0.51100000000E-03 0. -1.
    9900012    2    1    2    0    0 -0.30578902743E+02 -0.88952365418E+01 -0.15829663118E+01  0.59302261676E+02  0.50000579312E+02 0.  0.
        -12    1    1    2    0    0  0.30578902743E+02  0.88952365418E+01  0.15829663118E+01  0.31885738324E+02  0.00000000000E+00 0.  1.
         11    1    3    3    0    0 -0.27800708067E+02 -0.78750542924E+01 -0.76008193242E+01  0.29877555185E+02  0.51100000000E-03 0. -1.
        -11    1    3    3    0    0 -0.21766413365E+01 -0.13183610772E+02  0.99140684917E+01  0.16638332694E+02  0.51100000000E-03 0.  1.
         12    1    3    3    0    0 -0.60155333929E+00  0.12163428523E+02 -0.38962154793E+01  0.12786373798E+02  0.00000000000E+00 0. -1.
</event>
<event>
 7    1  0.1096439E-011  0.5930190E+02  0.7816164E-02  0.1266605E+00
        -11   -1    0    0    0    0  0.00000000000E+00  0.00000000000E+00  0.45593999997E+02  0.45594000000E+02  0.51100000000E-03 0.  1.
         11   -1    0    0    0    0 -0.00000000000E+00 -0.00000000000E+00 -0.45593999997E+02  0.45594000000E+02  0.51100000000E-03 0. -1.
    9900012    2    1    2    0    0 -0.11224436919E+02 -0.15055202487E+02 -0.25769671464E+02  0.59301904700E+02  0.49999928276E+02 0.  0.
        -12    1    1    2    0    0  0.11224436919E+02  0.15055202487E+02  0.25769671464E+02  0.31886095300E+02  0.00000000000E+00 0.  1.
         11    1    3    3    0    0 -0.45949538428E+01 -0.12396243528E+02 -0.20265723582E+02  0.24196694134E+02  0.51100000000E-03 0. -1.
        -11    1    3    3    0    0 -0.14434196368E+02 -0.12609591674E+02  0.36277226470E+01  0.19506619359E+02  0.51100000000E-03 0.  1.
        -12    1    3    3    0    0  0.78047132920E+01  0.99506327146E+01 -0.91316705294E+01  0.15598591207E+02  0.00000000000E+00 0.  1.
</event>
<event>
 7    1  0.1096439E-011  0.5930200E+02  0.7816164E-02  0.1266605E+00
        -11   -1    0    0    0    0  0.00000000000E+00  0.00000000000E+00  0.45593999997E+02  0.45594000000E+02  0.51100000000E-03 0.  1.
         11   -1    0    0    0    0 -0.00000000000E+00 -0.00000000000E+00 -0.45593999997E+02  0.45594000000E+02  0.51100000000E-03 0. -1.
    9900012    2    1    2    0    0  0.24682899776E+02 -0.18554675123E+02 -0.79495685909E+01  0.59301997569E+02  0.50000097647E+02 0.  0.
        -12    1    1    2    0    0 -0.24682899776E+02  0.18554675123E+02  0.79495685909E+01  0.31886002431E+02  0.00000000000E+00 0.  1.
         11    1    3    3    0    0  0.21320898843E+02 -0.14051325152E+02 -0.25300663134E+02  0.35946404844E+02  0.51100000000E-03 0. -1.
        -11    1    3    3    0    0 -0.36689665213E+01 -0.70193966791E+01  0.10985507427E+02  0.13543065338E+02  0.51100000000E-03 0.  1.
         12    1    3    3    0    0  0.70309674541E+01  0.25160467080E+01  0.63655871160E+01  0.98125273864E+01  0.00000000000E+00 0. -1.
</event>
<event>
 7    1  0.1096439E-011  0.5930194E+02  0.7816164E-02  0.1266605E+00
        -11   -1    0    0    0    0  0.00000000000E+00  0.00000000000E+00  0.45593999997E+02  0.45594000000E+02  0.51100000000E-03 0.  1.
         11   -1    0    0    0    0 -0.00000000000E+00 -0.00000000000E+00 -0.45593999997E+02  0.45594000000E+02  0.51100000000E-03 0. -1.
    9900012    2    1    2    0    0  0.12671185408E+02 -0.35641193526E+01 -0.29042362567E+02  0.59301941763E+02  0.49999995870E+02 0.  0.
        -12    1    1    2    0    0 -0.12671185408E+02  0.35641193526E+01  0.29042362567E+02  0.31886058237E+02  0.00000000000E+00 0.  1.
         11    1    3    3    0    0  0.89108353940E+01  0.17485851167E+02 -0.65567978759E+01  0.20691775591E+02  0.51100000000E-03 0.  1.
        -11    1    3    3    0    0 -0.30480361516E+01 -0.52128384043E+01 -0.20365277796E+02  0.21241674806E+02  0.51100000000E-03 0. -1.
        -12    1    3    3    0    0  0.68083861651E+01 -0.15837132115E+02 -0.21202868956E+01  0.17368491366E+02  0.00000000000E+00 0.  1.
</event>
<event>
 7    1  0.1096439E-011  0.5930194E+02  0.7816164E-02  0.1266605E+00
        -11   -1    0    0    0    0  0.00000000000E+00  0.00000000000E+00  0.45593999997E+02  0.45594000000E+02  0.51100000000E-03 0. -1.
         11   -1    0    0    0    0 -0.00000000000E+00 -0.00000000000E+00 -0.45593999997E+02  0.45594000000E+02  0.51100000000E-03 0.  1.
    9900012    2    1    2    0    0 -0.19246211543E+02 -0.19132956840E+02  0.16740195124E+02  0.59301939896E+02  0.49999992464E+02 0.  0.
        -12    1    1    2    0    0  0.19246211543E+02  0.19132956840E+02 -0.16740195124E+02  0.31886060104E+02  0.00000000000E+00 0.  1.
         11    1    3    3    0    0 -0.30007541937E+00  0.98557106517E+01 -0.26080272865E+01  0.10199357053E+02  0.51100000000E-03 0.  1.
        -11    1    3    3    0    0 -0.12474300170E+02 -0.15343452010E+02  0.25945679349E+02  0.32622200438E+02  0.51100000000E-03 0. -1.
         12    1    3    3    0    0 -0.64718359535E+01 -0.13645215481E+02 -0.65974569378E+01  0.16480382404E+02  0.00000000000E+00 0. -1.
</event>
<event>
 7    1  0.1096439E-011  0.5930191E+02  0.7816164E-02  0.1266605E+00
        -11   -1    0    0    0    0  0.00000000000E+00  0.00000000000E+00  0.45593999997E+02  0.45594000000E+02  0.51100000000E-03 0. -1.
         11   -1    0    0    0    0 -0.00000000000E+00 -0.00000000000E+00 -0.45593999997E+02  0.45594000000E+02  0.51100000000E-03 0.  1.
    9900012    2    1    2    0    0 -0.16619841697E+02 -0.23208037919E+02  0.14208827041E+02  0.59301906982E+02  0.49999932438E+02 0.  0.
        -12    1    1    2    0    0  0.16619841697E+02  0.23208037919E+02 -0.14208827041E+02  0.31886093018E+02  0.00000000000E+00 0.  1.
         11    1    3    3    0    0 -0.27685065432E+02 -0.12582879362E+02  0.89857265141E+00  0.30423660761E+02  0.51100000000E-03 0. -1.
        -11    1    3    3    0    0  0.84384139137E+01 -0.28737176024E+01  0.17532715034E+02  0.19668786921E+02  0.51100000000E-03 0.  1.
         12    1    3    3    0    0  0.26268098216E+01 -0.77514409541E+01 -0.42224606443E+01  0.92094592999E+01  0.00000000000E+00 0. -1.
</event>
<event>
 7    1  0.1096439E-011  0.5930193E+02  0.7816164E-02  0.1266605E+00
        -11   -1    0    0    0    0  0.00000000000E+00  0.00000000000E+00  0.45593999997E+02  0.45594000000E+02  0.51100000000E-03 0.  1.
         11   -1    0    0    0    0 -0.00000000000E+00 -0.00000000000E+00 -0.45593999997E+02  0.45594000000E+02  0.51100000000E-03 0. -1.
    9900012    2    1    2    0    0  0.71577405541E+00 -0.20348692615E+02 -0.24538539996E+02  0.59301928295E+02  0.49999971308E+02 0.  0.
        -12    1    1    2    0    0 -0.71577405541E+00  0.20348692615E+02  0.24538539996E+02  0.31886071705E+02  0.00000000000E+00 0.  1.
         11    1    3    3    0    0 -0.12815121615E+02  0.54910631148E+01 -0.11566933623E+01  0.13989891205E+02  0.51100000000E-03 0. -1.
        -11    1    3    3    0    0  0.74206869827E+01 -0.29952706788E+02 -0.15528440246E+02  0.34545096554E+02  0.51100000000E-03 0.  1.
        -12    1    3    3    0    0  0.61102086876E+01  0.41129510581E+01 -0.78534063877E+01  0.10766940536E+02  0.00000000000E+00 0.  1.
</event>
<event>
 7    1  0.1096439E-011  0.5930195E+02  0.7816164E-02  0.1266605E+00
        -11   -1    0    0    0    0  0.00000000000E+00  0.00000000000E+00  0.45593999997E+02  0.45594000000E+02  0.51100000000E-03 0. -1.
         11   -1    0    0    0    0 -0.00000000000E+00 -0.00000000000E+00 -0.45593999997E+02  0.45594000000E+02  0.51100000000E-03 0.  1.
    9900012    2    1    2    0    0  0.18297177808E+02 -0.96080446615E-02  0.26113853526E+02  0.59301950480E+02  0.50000011767E+02 0.  0.
        -12    1    1    2    0    0 -0.18297177808E+02  0.96080446615E-02 -0.26113853526E+02  0.31886049520E+02  0.00000000000E+00 0.  1.
         11    1    3    3    0    0  0.15985511821E+02  0.29080452383E+01 -0.49778836367E+01  0.16993311656E+02  0.51100000000E-03 0. -1.
        -11    1    3    3    0    0  0.11350852769E+02 -0.91641376385E+01  0.26798751600E+02  0.30512233036E+02  0.51100000000E-03 0.  1.
         12    1    3    3    0    0 -0.90391867812E+01  0.62464843555E+01  0.42929855621E+01  0.11796405788E+02  0.00000000000E+00 0. -1.
</event>
<event>
 7    1  0.1096439E-011  0.5930194E+02  0.7816164E-02  0.1266605E+00
        -11   -1    0    0    0    0  0.00000000000E+00  0.00000000000E+00  0.45593999997E+02  0.45594000000E+02  0.51100000000E-03 0.  1.
         11   -1    0    0    0    0 -0.00000000000E+00 -0.00000000000E+00 -0.45593999997E+02  0.45594000000E+02  0.51100000000E-03 0. -1.
    9900012    2    1    2    0    0  0.15266865897E+02  0.16398923982E+02 -0.22687417466E+02  0.59301940140E+02  0.49999992910E+02 0.  0.
        -12    1    1    2    0    0 -0.15266865897E+02 -0.16398923982E+02  0.22687417466E+02  0.31886059860E+02  0.00000000000E+00 0.  1.
         11    1    3    3    0    0  0.20589284992E+02  0.21566478734E+02 -0.10867629096E+02  0.31735422227E+02  0.51100000000E-03 0. -1.
        -11    1    3    3    0    0 -0.31629621291E+01 -0.11773794134E+02 -0.15485725366E+02  0.19708735325E+02  0.51100000000E-03 0.  1.
        -12    1    3    3    0    0 -0.21594569657E+01  0.66062393814E+01  0.36659369955E+01  0.78577825884E+01  0.00000000000E+00 0.  1.
</event>
<event>
 7    1  0.1096439E-011  0.5930194E+02  0.7816164E-02  0.1266605E+00
        -11   -1    0    0    0    0  0.00000000000E+00  0.00000000000E+00  0.45593999997E+02  0.45594000000E+02  0.51100000000E-03 0. -1.
         11   -1    0    0    0    0 -0.00000000000E+00 -0.00000000000E+00 -0.45593999997E+02  0.45594000000E+02  0.51100000000E-03 0.  1.
    9900012    2    1    2    0    0 -0.16215442457E+02  0.21822947501E+02  0.16659515843E+02  0.59301935962E+02  0.49999985290E+02 0.  0.
        -12    1    1    2    0    0  0.16215442457E+02 -0.21822947501E+02 -0.16659515843E+02  0.31886064038E+02  0.00000000000E+00 0.  1.
         11    1    3    3    0    0 -0.95569491382E+01 -0.58337613681E+00  0.48679568882E+00  0.95871046125E+01  0.51100000000E-03 0. -1.
        -11    1    3    3    0    0 -0.43985737578E+01  0.28969280860E+02  0.24977894125E+02  0.38502751588E+02  0.51100000000E-03 0.  1.
        -12    1    3    3    0    0 -0.22599195608E+01 -0.65629572219E+01 -0.88051739712E+01  0.11212079762E+02  0.00000000000E+00 0.  1.
</event>
<event>
 7    1  0.1096439E-011  0.5930193E+02  0.7816164E-02  0.1266605E+00
        -11   -1    0    0    0    0  0.00000000000E+00  0.00000000000E+00  0.45593999997E+02  0.45594000000E+02  0.51100000000E-03 0. -1.
         11   -1    0    0    0    0 -0.00000000000E+00 -0.00000000000E+00 -0.45593999997E+02  0.45594000000E+02  0.51100000000E-03 0.  1.
    9900012    2    1    2    0    0 -0.90446263376E+01  0.17592751568E+02  0.25008219596E+02  0.59301933753E+02  0.49999981262E+02 0.  0.
        -12    1    1    2    0    0  0.90446263376E+01 -0.17592751568E+02 -0.25008219596E+02  0.31886066247E+02  0.00000000000E+00 0.  1.
         11    1    3    3    0    0  0.95312725849E+01  0.12310696366E+02  0.40303771471E+01  0.16082361217E+02  0.51100000000E-03 0. -1.
        -11    1    3    3    0    0 -0.27872464217E+02  0.35273712727E+01  0.17707738464E+02  0.33209646361E+02  0.51100000000E-03 0.  1.
        -12    1    3    3    0    0  0.92965652944E+01  0.17546839290E+01  0.32701039852E+01  0.10009926175E+02  0.00000000000E+00 0.  1.
</event>
<event>
 7    1  0.1096439E-011  0.5930194E+02  0.7816164E-02  0.1266605E+00
        -11   -1    0    0    0    0  0.00000000000E+00  0.00000000000E+00  0.45593999997E+02  0.45594000000E+02  0.51100000000E-03 0. -1.
         11   -1    0    0    0    0 -0.00000000000E+00 -0.00000000000E+00 -0.45593999997E+02  0.45594000000E+02  0.51100000000E-03 0.  1.
    9900012    2    1    2    0    0 -0.17709931911E+02 -0.17417073162E+02  0.19993113273E+02  0.59301941852E+02  0.49999996033E+02 0.  0.
        -12    1    1    2    0    0  0.17709931911E+02  0.17417073162E+02 -0.19993113273E+02  0.31886058148E+02  0.00000000000E+00 0.  1.
         11    1    3    3    0    0 -0.37857260155E+01 -0.30120540943E+02  0.10477428201E+01  0.30375590092E+02  0.51100000000E-03 0. -1.
        -11    1    3    3    0    0 -0.88085171822E+01  0.13721583770E+02  0.16385070907E+02  0.23115847053E+02  0.51100000000E-03 0.  1.
         12    1    3    3    0    0 -0.51156887132E+01 -0.10181159892E+01  0.25602995469E+01  0.58105047068E+01  0.00000000000E+00 0. -1.
</event>
<event>
 7    1  0.1096439E-011  0.5930196E+02  0.7816164E-02  0.1266605E+00
        -11   -1    0    0    0    0  0.00000000000E+00  0.00000000000E+00  0.45593999997E+02  0.45594000000E+02  0.51100000000E-03 0.  1.
         11   -1    0    0    0    0 -0.00000000000E+00 -0.00000000000E+00 -0.45593999997E+02  0.45594000000E+02  0.51100000000E-03 0. -1.
    9900012    2    1    2    0    0 -0.38082002118E+01 -0.16006162302E+02 -0.27313362409E+02  0.59301962514E+02  0.50000033714E+02 0.  0.
        -12    1    1    2    0    0  0.38082002118E+01  0.16006162302E+02  0.27313362409E+02  0.31886037486E+02  0.00000000000E+00 0.  1.
         11    1    3    3    0    0  0.28861868681E+01 -0.32048256900E+02 -0.23060851724E+02  0.39588176612E+02  0.51100000000E-03 0. -1.
        -11    1    3    3    0    0  0.47177474313E+00  0.91536697600E+01 -0.32430134499E+01  0.97226219705E+01  0.51100000000E-03 0.  1.
         12    1    3    3    0    0 -0.71661618230E+01  0.68884248383E+01 -0.10094972354E+01  0.99911639309E+01  0.00000000000E+00 0. -1.
</event>
<event>
 7    1  0.1096439E-011  0.5930193E+02  0.7816164E-02  0.1266605E+00
        -11   -1    0    0    0    0  0.00000000000E+00  0.00000000000E+00  0.45593999997E+02  0.45594000000E+02  0.51100000000E-03 0.  1.
         11   -1    0    0    0    0 -0.00000000000E+00 -0.00000000000E+00 -0.45593999997E+02  0.45594000000E+02  0.51100000000E-03 0. -1.
    9900012    2    1    2    0    0  0.20868152396E+02 -0.21628515902E+02 -0.10651245953E+02  0.59301928983E+02  0.49999972562E+02 0.  0.
        -12    1    1    2    0    0 -0.20868152396E+02  0.21628515902E+02  0.10651245953E+02  0.31886071017E+02  0.00000000000E+00 0.  1.
         11    1    3    3    0    0  0.11179592506E+02 -0.16002894699E+02 -0.85045639337E+01  0.21293274415E+02  0.51100000000E-03 0. -1.
        -11    1    3    3    0    0  0.19507959651E+02  0.19738531926E+01  0.87662051596E+01  0.21477964040E+02  0.51100000000E-03 0.  1.
        -12    1    3    3    0    0 -0.98193997607E+01 -0.75994743953E+01 -0.10912887179E+02  0.16530690528E+02  0.00000000000E+00 0.  1.
</event>
<event>
 7    1  0.1096439E-011  0.5930195E+02  0.7816164E-02  0.1266605E+00
        -11   -1    0    0    0    0  0.00000000000E+00  0.00000000000E+00  0.45593999997E+02  0.45594000000E+02  0.51100000000E-03 0. -1.
         11   -1    0    0    0    0 -0.00000000000E+00 -0.00000000000E+00 -0.45593999997E+02  0.45594000000E+02  0.51100000000E-03 0.  1.
    9900012    2    1    2    0    0 -0.15611950645E+02 -0.17202716294E+02  0.21841566463E+02  0.59301945425E+02  0.50000002548E+02 0.  0.
        -12    1    1    2    0    0  0.15611950645E+02  0.17202716294E+02 -0.21841566463E+02  0.31886054575E+02  0.00000000000E+00 0.  1.
         11    1    3    3    0    0  0.34014712951E+01  0.56329264399E+01  0.18693193041E+01  0.68406302466E+01  0.51100000000E-03 0. -1.
        -11    1    3    3    0    0  0.11168202709E+00 -0.25489775788E+02  0.21142970738E+02  0.33117462984E+02  0.51100000000E-03 0.  1.
        -12    1    3    3    0    0 -0.19125103967E+02  0.26541330542E+01 -0.11707235790E+01  0.19343852194E+02  0.00000000000E+00 0.  1.
</event>
<event>
 7    1  0.1096439E-011  0.5930207E+02  0.7816164E-02  0.1266604E+00
        -11   -1    0    0    0    0  0.00000000000E+00  0.00000000000E+00  0.45593999997E+02  0.45594000000E+02  0.51100000000E-03 0. -1.
         11   -1    0    0    0    0 -0.00000000000E+00 -0.00000000000E+00 -0.45593999997E+02  0.45594000000E+02  0.51100000000E-03 0.  1.
    9900012    2    1    2    0    0 -0.54055935199E+01 -0.29923782524E+02  0.95947699192E+01  0.59302065614E+02  0.50000221744E+02 0.  0.
        -12    1    1    2    0    0  0.54055935199E+01  0.29923782524E+02 -0.95947699192E+01  0.31885934386E+02  0.00000000000E+00 0.  1.
         11    1    3    3    0    0 -0.52185292223E+01 -0.22202799335E+02  0.24613977260E+02  0.33556597300E+02  0.51100000000E-03 0. -1.
        -11    1    3    3    0    0 -0.76345090042E+01  0.10533284794E+01 -0.11247107332E+02  0.13634245568E+02  0.51100000000E-03 0.  1.
        -12    1    3    3    0    0  0.74474447066E+01 -0.87743116686E+01 -0.37721000084E+01  0.12111222745E+02  0.00000000000E+00 0.  1.
</event>
<event>
 7    1  0.1096439E-011  0.5930196E+02  0.7816164E-02  0.1266605E+00
        -11   -1    0    0    0    0  0.00000000000E+00  0.00000000000E+00  0.45593999997E+02  0.45594000000E+02  0.51100000000E-03 0.  1.
         11   -1    0    0    0    0 -0.00000000000E+00 -0.00000000000E+00 -0.45593999997E+02  0.45594000000E+02  0.51100000000E-03 0. -1.
    9900012    2    1    2    0    0 -0.64307016930E+01  0.29739049596E+02 -0.95370189622E+01  0.59301957194E+02  0.50000024012E+02 0.  0.
        -12    1    1    2    0    0  0.64307016930E+01 -0.29739049596E+02  0.95370189622E+01  0.31886042806E+02  0.00000000000E+00 0.  1.
         11    1    3    3    0    0  0.54235729508E+01  0.38319413941E+02 -0.80879255864E+01  0.39537414798E+02  0.51100000000E-03 0. -1.
        -11    1    3    3    0    0  0.95050727254E+00 -0.57868037738E+01  0.20281077150E+01  0.62051416710E+01  0.51100000000E-03 0.  1.
         12    1    3    3    0    0 -0.12804781916E+02 -0.27935605715E+01 -0.34772010908E+01  0.13559400725E+02  0.00000000000E+00 0. -1.
</event>
<event>
 7    1  0.1096439E-011  0.5930194E+02  0.7816164E-02  0.1266605E+00
        -11   -1    0    0    0    0  0.00000000000E+00  0.00000000000E+00  0.45593999997E+02  0.45594000000E+02  0.51100000000E-03 0.  1.
         11   -1    0    0    0    0 -0.00000000000E+00 -0.00000000000E+00 -0.45593999997E+02  0.45594000000E+02  0.51100000000E-03 0. -1.
    9900012    2    1    2    0    0 -0.12681952616E+02 -0.15672759591E+02 -0.24703309114E+02  0.59301940404E+02  0.49999993392E+02 0.  0.
        -12    1    1    2    0    0  0.12681952616E+02  0.15672759591E+02  0.24703309114E+02  0.31886059596E+02  0.00000000000E+00 0.  1.
         11    1    3    3    0    0 -0.11249541950E+02 -0.18024286635E+01 -0.13321345823E+02  0.17528810512E+02  0.51100000000E-03 0. -1.
        -11    1    3    3    0    0  0.99620308216E+01 -0.61705277341E+01  0.10628089939E+02  0.15820043193E+02  0.51100000000E-03 0.  1.
        -12    1    3    3    0    0 -0.11394441488E+02 -0.76998031938E+01 -0.22010053230E+02  0.25953086699E+02  0.00000000000E+00 0.  1.
</event>
<event>
 7    1  0.1096439E-011  0.5930188E+02  0.7816164E-02  0.1266605E+00
        -11   -1    0    0    0    0  0.00000000000E+00  0.00000000000E+00  0.45593999997E+02  0.45594000000E+02  0.51100000000E-03 0. -1.
         11   -1    0    0    0    0 -0.00000000000E+00 -0.00000000000E+00 -0.45593999997E+02  0.45594000000E+02  0.51100000000E-03 0.  1.
    9900012    2    1    2    0    0  0.17791286125E+02  0.13953847684E+02  0.22482990449E+02  0.59301880971E+02  0.49999885000E+02 0.  0.
        -12    1    1    2    0    0 -0.17791286125E+02 -0.13953847684E+02 -0.22482990449E+02  0.31886119029E+02  0.00000000000E+00 0.  1.
         11    1    3    3    0    0  0.26599335685E+01  0.23447643231E+02  0.19689863116E+02  0.30733661179E+02  0.51100000000E-03 0.  1.
        -11    1    3    3    0    0  0.10790120291E+02 -0.27619937635E+01 -0.89946377902E+01  0.14316382737E+02  0.51100000000E-03 0. -1.
         12    1    3    3    0    0  0.43412322656E+01 -0.67318017830E+01  0.11787765124E+02  0.14251837055E+02  0.00000000000E+00 0. -1.
</event>
<event>
 7    1  0.1096439E-011  0.5930197E+02  0.7816164E-02  0.1266605E+00
        -11   -1    0    0    0    0  0.00000000000E+00  0.00000000000E+00  0.45593999997E+02  0.45594000000E+02  0.51100000000E-03 0.  1.
         11   -1    0    0    0    0 -0.00000000000E+00 -0.00000000000E+00 -0.45593999997E+02  0.45594000000E+02  0.51100000000E-03 0. -1.
    9900012    2    1    2    0    0 -0.31169353483E+02 -0.16682241458E+01 -0.65120688002E+01  0.59301974716E+02  0.50000055968E+02 0.  0.
        -12    1    1    2    0    0  0.31169353483E+02  0.16682241458E+01  0.65120688002E+01  0.31886025284E+02  0.00000000000E+00 0.  1.
         11    1    3    3    0    0 -0.12424314663E+02 -0.57934003674E+01  0.24446739036E+01  0.13924924180E+02  0.51100000000E-03 0. -1.
        -11    1    3    3    0    0 -0.85056723714E+01 -0.50455224671E+01 -0.23420830575E+02  0.25423199337E+02  0.51100000000E-03 0.  1.
        -12    1    3    3    0    0 -0.10239366449E+02  0.91706986887E+01  0.14464087871E+02  0.19953851199E+02  0.00000000000E+00 0.  1.
</event>
<event>
 7    1  0.1096439E-011  0.5930190E+02  0.7816164E-02  0.1266605E+00
        -11   -1    0    0    0    0  0.00000000000E+00  0.00000000000E+00  0.45593999997E+02  0.45594000000E+02  0.51100000000E-03 0.  1.
         11   -1    0    0    0    0 -0.00000000000E+00 -0.00000000000E+00 -0.45593999997E+02  0.45594000000E+02  0.51100000000E-03 0. -1.
    9900012    2    1    2    0    0  0.24297466399E+02  0.77892141286E+01 -0.19122883629E+02  0.59301899448E+02  0.49999918697E+02 0.  0.
        -12    1    1    2    0    0 -0.24297466399E+02 -0.77892141286E+01  0.19122883629E+02  0.31886100552E+02  0.00000000000E+00 0.  1.
         11    1    3    3    0    0  0.31339301992E+02  0.82146060276E+01 -0.32400985958E+01  0.32559635144E+02  0.51100000000E-03 0. -1.
        -11    1    3    3    0    0 -0.11059795456E+02  0.45731110001E+01 -0.16406444301E+02  0.20307728445E+02  0.51100000000E-03 0.  1.
        -12    1    3    3    0    0  0.40179598622E+01 -0.49985028991E+01  0.52365926827E+00  0.64345358586E+01  0.00000000000E+00 0.  1.
</event>
<event>
 7    1  0.1096439E-011  0.5930194E+02  0.7816164E-02  0.1266605E+00
        -11   -1    0    0    0    0  0.00000000000E+00  0.00000000000E+00  0.45593999997E+02  0.45594000000E+02  0.51100000000E-03 0. -1.
         11   -1    0    0    0    0 -0.00000000000E+00 -0.00000000000E+00 -0.45593999997E+02  0.45594000000E+02  0.51100000000E-03 0.  1.
    9900012    2    1    2    0    0  0.16920666520E+02 -0.22063139848E+02  0.15608650904E+02  0.59301935984E+02  0.49999985330E+02 0.  0.
        -12    1    1    2    0    0 -0.16920666520E+02  0.22063139848E+02 -0.15608650904E+02  0.31886064016E+02  0.00000000000E+00 0.  1.
         11    1    3    3    0    0  0.18836347197E+02 -0.12611258530E+02  0.28197566699E+02  0.36179477407E+02  0.51100000000E-03 0. -1.
        -11    1    3    3    0    0 -0.57486248981E+01  0.28178066095E+01 -0.29147313236E+01  0.70343714188E+01  0.51100000000E-03 0.  1.
         12    1    3    3    0    0  0.38329442209E+01 -0.12269687927E+02 -0.96741844714E+01  0.16088087158E+02  0.00000000000E+00 0. -1.
</event>
<event>
 7    1  0.1096439E-011  0.5930194E+02  0.7816164E-02  0.1266605E+00
        -11   -1    0    0    0    0  0.00000000000E+00  0.00000000000E+00  0.45593999997E+02  0.45594000000E+02  0.51100000000E-03 0.  1.
         11   -1    0    0    0    0 -0.00000000000E+00 -0.00000000000E+00 -0.45593999997E+02  0.45594000000E+02  0.51100000000E-03 0. -1.
    9900012    2    1    2    0    0 -0.29571156866E+02 -0.19243419920E+01 -0.11771329300E+02  0.59301943423E+02  0.49999998898E+02 0.  0.
        -12    1    1    2    0    0  0.29571156866E+02  0.19243419920E+01  0.11771329300E+02  0.31886056577E+02  0.00000000000E+00 0.  1.
         11    1    3    3    0    0 -0.18469089972E+02  0.75897088183E+01 -0.11268386036E+02  0.22927875795E+02  0.51100000000E-03 0. -1.
        -11    1    3    3    0    0  0.36971987214E+01 -0.15352030927E+02 -0.91667904441E+01  0.18258811004E+02  0.51100000000E-03 0.  1.
        -12    1    3    3    0    0 -0.14799265616E+02  0.58379801165E+01  0.86638471806E+01  0.18115256625E+02  0.00000000000E+00 0.  1.
</event>
<event>
 7    1  0.1096439E-011  0.5930195E+02  0.7816164E-02  0.1266605E+00
        -11   -1    0    0    0    0  0.00000000000E+00  0.00000000000E+00  0.45593999997E+02  0.45594000000E+02  0.51100000000E-03 0.  1.
         11   -1    0    0    0    0 -0.00000000000E+00 -0.00000000000E+00 -0.45593999997E+02  0.45594000000E+02  0.51100000000E-03 0. -1.
    9900012    2    1    2    0    0  0.61082932949E+01 -0.30624114430E+02 -0.64476898949E+01  0.59301947617E+02  0.50000006545E+02 0.  0.
        -12    1    1    2    0    0 -0.61082932949E+01  0.30624114430E+02  0.64476898949E+01  0.31886052383E+02  0.00000000000E+00 0.  1.
         11    1    3    3    0    0  0.17661439703E+02 -0.29511155987E+02  0.93873296982E+01  0.35650480210E+02  0.51100000000E-03 0. -1.
        -11    1    3    3    0    0 -0.73983400816E+01 -0.25772808291E+00 -0.15145779844E+00  0.74043770469E+01  0.51100000000E-03 0.  1.
         12    1    3    3    0    0 -0.41548063270E+01 -0.85523036027E+00 -0.15683561795E+02  0.16247090360E+02  0.00000000000E+00 0. -1.
</event>
<event>
 7    1  0.1096439E-011  0.5930194E+02  0.7816164E-02  0.1266605E+00
        -11   -1    0    0    0    0  0.00000000000E+00  0.00000000000E+00  0.45593999997E+02  0.45594000000E+02  0.51100000000E-03 0. -1.
         11   -1    0    0    0    0 -0.00000000000E+00 -0.00000000000E+00 -0.45593999997E+02  0.45594000000E+02  0.51100000000E-03 0.  1.
    9900012    2    1    2    0    0 -0.18189216198E+02 -0.17311661795E+02  0.19651454918E+02  0.59301938776E+02  0.49999990422E+02 0.  0.
        -12    1    1    2    0    0  0.18189216198E+02  0.17311661795E+02 -0.19651454918E+02  0.31886061224E+02  0.00000000000E+00 0.  1.
         11    1    3    3    0    0 -0.30449193567E+02 -0.14520673740E+02  0.14622464629E+02  0.36767102508E+02  0.51100000000E-03 0. -1.
        -11    1    3    3    0    0  0.27380563950E+01  0.84965500990E-01 -0.66511959038E+01  0.71932314832E+01  0.51100000000E-03 0.  1.
         12    1    3    3    0    0  0.95219209737E+01 -0.28759535553E+01  0.11680186193E+02  0.15341604785E+02  0.00000000000E+00 0. -1.
</event>
<event>
 7    1  0.1096439E-011  0.5930207E+02  0.7816164E-02  0.1266604E+00
        -11   -1    0    0    0    0  0.00000000000E+00  0.00000000000E+00  0.45593999997E+02  0.45594000000E+02  0.51100000000E-03 0.  1.
         11   -1    0    0    0    0 -0.00000000000E+00 -0.00000000000E+00 -0.45593999997E+02  0.45594000000E+02  0.51100000000E-03 0. -1.
    9900012    2    1    2    0    0  0.28506697795E+02  0.10133445956E+02 -0.10069459833E+02  0.59302069444E+02  0.50000228729E+02 0.  0.
        -12    1    1    2    0    0 -0.28506697795E+02 -0.10133445956E+02  0.10069459833E+02  0.31885930556E+02  0.00000000000E+00 0.  1.
         11    1    3    3    0    0  0.24545531957E+01 -0.83625029842E+01 -0.87924030333E+01  0.12379928874E+02  0.51100000000E-03 0. -1.
        -11    1    3    3    0    0  0.92540796105E+01  0.25583931894E+02 -0.64697525460E+01  0.27964857569E+02  0.51100000000E-03 0.  1.
        -12    1    3    3    0    0  0.16798064988E+02 -0.70879829536E+01  0.51926957467E+01  0.18957283002E+02  0.00000000000E+00 0.  1.
</event>
<event>
 7    1  0.1985581E-011  0.5930193E+02  0.7816164E-02  0.1266605E+00
        -11   -1    0    0    0    0  0.00000000000E+00  0.00000000000E+00  0.45593999997E+02  0.45594000000E+02  0.51100000000E-03 0. -1.
         11   -1    0    0    0    0 -0.00000000000E+00 -0.00000000000E+00 -0.45593999997E+02  0.45594000000E+02  0.51100000000E-03 0.  1.
    9900012    2    1    2    0    0 -0.12896156538E+02  0.13176331889E+02  0.26015278818E+02  0.59301932393E+02  0.49999978780E+02 0.  0.
        -12    1    1    2    0    0  0.12896156538E+02 -0.13176331889E+02 -0.26015278818E+02  0.31886067607E+02  0.00000000000E+00 0.  1.
         11    1    3    3    0    0 -0.10276859317E+02  0.82114581699E+00  0.20519963325E+02  0.22964255115E+02  0.51100000000E-03 0. -1.
        -11    1    3    3    0    0  0.32412085536E+01  0.22941801882E+02  0.30666514598E+00  0.23171658340E+02  0.51100000000E-03 0.  1.
        -12    1    3    3    0    0 -0.58605057744E+01 -0.10586615810E+02  0.51886503473E+01  0.13166018938E+02  0.00000000000E+00 0.  1.
</event>
<event>
 7    1  0.1096439E-011  0.5930194E+02  0.7816164E-02  0.1266605E+00
        -11   -1    0    0    0    0  0.00000000000E+00  0.00000000000E+00  0.45593999997E+02  0.45594000000E+02  0.51100000000E-03 0.  1.
         11   -1    0    0    0    0 -0.00000000000E+00 -0.00000000000E+00 -0.45593999997E+02  0.45594000000E+02  0.51100000000E-03 0. -1.
    9900012    2    1    2    0    0 -0.15369613143E+02 -0.27937026462E+02  0.13608354080E+00  0.59301937615E+02  0.49999988304E+02 0.  0.
        -12    1    1    2    0    0  0.15369613143E+02  0.27937026462E+02 -0.13608354080E+00  0.31886062385E+02  0.00000000000E+00 0.  1.
         11    1    3    3    0    0 -0.18341076485E+02 -0.10849659219E+02  0.15004270703E+01  0.21362618600E+02  0.51100000000E-03 0. -1.
        -11    1    3    3    0    0  0.52431245891E+01 -0.18246473702E+02 -0.14919890048E+02  0.24145957784E+02  0.51100000000E-03 0.  1.
        -12    1    3    3    0    0 -0.22716612473E+01  0.11591064593E+01  0.13555546518E+02  0.13793361230E+02  0.00000000000E+00 0.  1.
</event>
<event>
 7    1  0.1096439E-011  0.5930197E+02  0.7816164E-02  0.1266605E+00
        -11   -1    0    0    0    0  0.00000000000E+00  0.00000000000E+00  0.45593999997E+02  0.45594000000E+02  0.51100000000E-03 0. -1.
         11   -1    0    0    0    0 -0.00000000000E+00 -0.00000000000E+00 -0.45593999997E+02  0.45594000000E+02  0.51100000000E-03 0.  1.
    9900012    2    1    2    0    0  0.19148500112E+01  0.28666829107E+02 -0.13829869171E+02  0.59301968217E+02  0.50000044115E+02 0.  0.
        -12    1    1    2    0    0 -0.19148500112E+01 -0.28666829107E+02  0.13829869171E+02  0.31886031783E+02  0.00000000000E+00 0.  1.
         11    1    3    3    0    0  0.14102411981E+02  0.25635150190E+02 -0.95499673175E+00  0.29273724873E+02  0.51100000000E-03 0. -1.
        -11    1    3    3    0    0 -0.16115691168E+02 -0.18700110205E+01 -0.16194774982E+02  0.22923419902E+02  0.51100000000E-03 0.  1.
        -12    1    3    3    0    0  0.39281291976E+01  0.49016899377E+01  0.33199025429E+01  0.71048234414E+01  0.00000000000E+00 0.  1.
</event>
<event>
 7    1  0.1096439E-011  0.5930194E+02  0.7816164E-02  0.1266605E+00
        -11   -1    0    0    0    0  0.00000000000E+00  0.00000000000E+00  0.45593999997E+02  0.45594000000E+02  0.51100000000E-03 0.  1.
         11   -1    0    0    0    0 -0.00000000000E+00 -0.00000000000E+00 -0.45593999997E+02  0.45594000000E+02  0.51100000000E-03 0. -1.
    9900012    2    1    2    0    0  0.12573777062E+02 -0.28165982763E+02 -0.80807266088E+01  0.59301943531E+02  0.49999999094E+02 0.  0.
        -12    1    1    2    0    0 -0.12573777062E+02  0.28165982763E+02  0.80807266088E+01  0.31886056469E+02  0.00000000000E+00 0.  1.
         11    1    3    3    0    0  0.92211417357E+01 -0.13457204851E+02 -0.21414264420E+02  0.26920188303E+02  0.51100000000E-03 0. -1.
        -11    1    3    3    0    0  0.85800035813E+01 -0.76767237137E+01  0.18806584000E+02  0.22050763035E+02  0.51100000000E-03 0.  1.
        -12    1    3    3    0    0 -0.52273682547E+01 -0.70320541981E+01 -0.54730461881E+01  0.10330992193E+02  0.00000000000E+00 0.  1.
</event>
<event>
 7    1  0.1096439E-011  0.5930198E+02  0.7816164E-02  0.1266605E+00
        -11   -1    0    0    0    0  0.00000000000E+00  0.00000000000E+00  0.45593999997E+02  0.45594000000E+02  0.51100000000E-03 0.  1.
         11   -1    0    0    0    0 -0.00000000000E+00 -0.00000000000E+00 -0.45593999997E+02  0.45594000000E+02  0.51100000000E-03 0. -1.
    9900012    2    1    2    0    0  0.32544655511E+01  0.78738387744E+00 -0.31709724158E+02  0.59301982287E+02  0.50000069776E+02 0.  0.
        -12    1    1    2    0    0 -0.32544655511E+01 -0.78738387744E+00  0.31709724158E+02  0.31886017713E+02  0.00000000000E+00 0.  1.
         11    1    3    3    0    0  0.23399860034E+01  0.85997083129E+01 -0.46170982173E+01  0.10037335990E+02  0.51100000000E-03 0. -1.
        -11    1    3    3    0    0 -0.61943713557E+01 -0.22041587854E+02 -0.23792944610E+02  0.33019782633E+02  0.51100000000E-03 0.  1.
        -12    1    3    3    0    0  0.71088509035E+01  0.14229263418E+02 -0.32996813307E+01  0.16244863665E+02  0.00000000000E+00 0.  1.
</event>
<event>
 7    1  0.1096439E-011  0.5930226E+02  0.7816164E-02  0.1266604E+00
        -11   -1    0    0    0    0  0.00000000000E+00  0.00000000000E+00  0.45593999997E+02  0.45594000000E+02  0.51100000000E-03 0.  1.
         11   -1    0    0    0    0 -0.00000000000E+00 -0.00000000000E+00 -0.45593999997E+02  0.45594000000E+02  0.51100000000E-03 0. -1.
    9900012    2    1    2    0    0 -0.26563338262E+02  0.16222564414E+02  0.69222830409E+01  0.59302258072E+02  0.50000572738E+02 0.  0.
        -12    1    1    2    0    0  0.26563338262E+02 -0.16222564414E+02 -0.69222830409E+01  0.31885741928E+02  0.00000000000E+00 0.  1.
         11    1    3    3    0    0 -0.26975611035E+00  0.10292391270E+02 -0.18280664524E+02  0.20980676398E+02  0.51100000000E-03 0. -1.
        -11    1    3    3    0    0 -0.19567310924E+02  0.81290078809E-03  0.14472277158E+02  0.24337757987E+02  0.51100000000E-03 0.  1.
         12    1    3    3    0    0 -0.67262712284E+01  0.59293602435E+01  0.10730670406E+02  0.13983823687E+02  0.00000000000E+00 0. -1.
</event>
<event>
 7    1  0.1096439E-011  0.5930194E+02  0.7816164E-02  0.1266605E+00
        -11   -1    0    0    0    0  0.00000000000E+00  0.00000000000E+00  0.45593999997E+02  0.45594000000E+02  0.51100000000E-03 0.  1.
         11   -1    0    0    0    0 -0.00000000000E+00 -0.00000000000E+00 -0.45593999997E+02  0.45594000000E+02  0.51100000000E-03 0. -1.
    9900012    2    1    2    0    0 -0.24522797773E+02  0.20366955486E+02  0.73509095188E+00  0.59301939643E+02  0.49999992003E+02 0.  0.
        -12    1    1    2    0    0  0.24522797773E+02 -0.20366955486E+02 -0.73509095188E+00  0.31886060357E+02  0.00000000000E+00 0.  1.
         11    1    3    3    0    0 -0.11558002357E+02  0.78320487378E+01 -0.67204835607E+01  0.15494944513E+02  0.51100000000E-03 0. -1.
        -11    1    3    3    0    0  0.48523471153E+01  0.15389417254E+02  0.16962278629E+02  0.23411500005E+02  0.51100000000E-03 0.  1.
        -12    1    3    3    0    0 -0.17817142532E+02 -0.28545105054E+01 -0.95067041165E+01  0.20395495125E+02  0.00000000000E+00 0.  1.
</event>
<event>
 7    1  0.1096439E-011  0.5930196E+02  0.7816164E-02  0.1266605E+00
        -11   -1    0    0    0    0  0.00000000000E+00  0.00000000000E+00  0.45593999997E+02  0.45594000000E+02  0.51100000000E-03 0. -1.
         11   -1    0    0    0    0 -0.00000000000E+00 -0.00000000000E+00 -0.45593999997E+02  0.45594000000E+02  0.51100000000E-03 0.  1.
    9900012    2    1    2    0    0  0.20643824425E+02 -0.23404851499E+02  0.65395084731E+01  0.59301957102E+02  0.50000023845E+02 0.  0.
        -12    1    1    2    0    0 -0.20643824425E+02  0.23404851499E+02 -0.65395084731E+01  0.31886042898E+02  0.00000000000E+00 0.  1.
         11    1    3    3    0    0  0.20269480210E+02  0.89056379972E+01  0.32574584346E+01  0.22377963532E+02  0.51100000000E-03 0. -1.
        -11    1    3    3    0    0 -0.98589612350E+00 -0.82645221964E+01  0.89079594152E+01  0.12191228794E+02  0.51100000000E-03 0.  1.
        -12    1    3    3    0    0  0.13602403390E+01 -0.24045967300E+02 -0.56259093767E+01  0.24732764777E+02  0.00000000000E+00 0.  1.
</event>
<event>
 7    1  0.1096439E-011  0.5930199E+02  0.7816164E-02  0.1266605E+00
        -11   -1    0    0    0    0  0.00000000000E+00  0.00000000000E+00  0.45593999997E+02  0.45594000000E+02  0.51100000000E-03 0. -1.
         11   -1    0    0    0    0 -0.00000000000E+00 -0.00000000000E+00 -0.45593999997E+02  0.45594000000E+02  0.51100000000E-03 0.  1.
    9900012    2    1    2    0    0  0.20432415657E+02 -0.16800739470E+02  0.17803627252E+02  0.59301990534E+02  0.50000084816E+02 0.  0.
        -12    1    1    2    0    0 -0.20432415657E+02  0.16800739470E+02 -0.17803627252E+02  0.31886009466E+02  0.00000000000E+00 0.  1.
         11    1    3    3    0    0 -0.28730461063E+01 -0.17719950975E+02  0.28127252504E+02  0.33367549958E+02  0.51100000000E-03 0. -1.
        -11    1    3    3    0    0  0.20588428869E+02  0.20929028634E+01 -0.80615509719E+01  0.22209282970E+02  0.51100000000E-03 0.  1.
         12    1    3    3    0    0  0.27170328939E+01 -0.11736913584E+01 -0.22620742795E+01  0.37251576070E+01  0.00000000000E+00 0. -1.
</event>
<event>
 7    1  0.1096439E-011  0.5930200E+02  0.7816164E-02  0.1266605E+00
        -11   -1    0    0    0    0  0.00000000000E+00  0.00000000000E+00  0.45593999997E+02  0.45594000000E+02  0.51100000000E-03 0.  1.
         11   -1    0    0    0    0 -0.00000000000E+00 -0.00000000000E+00 -0.45593999997E+02  0.45594000000E+02  0.51100000000E-03 0. -1.
    9900012    2    1    2    0    0 -0.30000569477E+02 -0.10722435016E+02 -0.13084523846E+01  0.59302002615E+02  0.50000106849E+02 0.  0.
        -12    1    1    2    0    0  0.30000569477E+02  0.10722435016E+02  0.13084523846E+01  0.31885997385E+02  0.00000000000E+00 0.  1.
         11    1    3    3    0    0  0.80314435457E+01 -0.37216938929E+01 -0.10139458614E+02  0.13459706985E+02  0.51100000000E-03 0. -1.
        -11    1    3    3    0    0 -0.27040086203E+02  0.56504926845E+01  0.18466219916E+01  0.27685814825E+02  0.51100000000E-03 0.  1.
         12    1    3    3    0    0 -0.10991926819E+02 -0.12651233808E+02  0.69843842380E+01  0.18156480805E+02  0.00000000000E+00 0. -1.
</event>
<event>
 7    1  0.1096439E-011  0.5930196E+02  0.7816164E-02  0.1266605E+00
        -11   -1    0    0    0    0  0.00000000000E+00  0.00000000000E+00  0.45593999997E+02  0.45594000000E+02  0.51100000000E-03 0. -1.
         11   -1    0    0    0    0 -0.00000000000E+00 -0.00000000000E+00 -0.45593999997E+02  0.45594000000E+02  0.51100000000E-03 0.  1.
    9900012    2    1    2    0    0 -0.19066954332E+02 -0.56494629257E+01  0.24924976438E+02  0.59301958708E+02  0.50000026774E+02 0.  0.
        -12    1    1    2    0    0  0.19066954332E+02  0.56494629257E+01 -0.24924976438E+02  0.31886041292E+02  0.00000000000E+00 0.  1.
         11    1    3    3    0    0 -0.10377370929E+02 -0.19773763955E+02  0.27392076753E+02  0.35341440795E+02  0.51100000000E-03 0. -1.
        -11    1    3    3    0    0  0.22466327220E+01  0.12549621980E+02 -0.67373502932E+00  0.12766921695E+02  0.51100000000E-03 0.  1.
         12    1    3    3    0    0 -0.10936216125E+02  0.15746790495E+01 -0.17933652861E+01  0.11193596218E+02  0.00000000000E+00 0. -1.
</event>
<event>
 7    1  0.1096439E-011  0.5930194E+02  0.7816164E-02  0.1266605E+00
        -11   -1    0    0    0    0  0.00000000000E+00  0.00000000000E+00  0.45593999997E+02  0.45594000000E+02  0.51100000000E-03 0. -1.
         11   -1    0    0    0    0 -0.00000000000E+00 -0.00000000000E+00 -0.45593999997E+02  0.45594000000E+02  0.51100000000E-03 0.  1.
    9900012    2    1    2    0    0  0.13424222264E+02  0.27466101168E+02  0.90622346298E+01  0.59301944219E+02  0.50000000349E+02 0.  0.
        -12    1    1    2    0    0 -0.13424222264E+02 -0.27466101168E+02 -0.90622346298E+01  0.31886055781E+02  0.00000000000E+00 0.  1.
         11    1    3    3    0    0  0.10150059397E+02  0.17111457394E+01  0.10957620318E+02  0.15034000426E+02  0.51100000000E-03 0. -1.
        -11    1    3    3    0    0 -0.98474806514E+01  0.18361605308E+02 -0.13867126317E+02  0.25028356263E+02  0.51100000000E-03 0.  1.
        -12    1    3    3    0    0  0.13121643518E+02  0.73933501204E+01  0.11971740629E+02  0.19239587530E+02  0.00000000000E+00 0.  1.
</event>
<event>
 7    1  0.1096439E-011  0.5930195E+02  0.7816164E-02  0.1266605E+00
        -11   -1    0    0    0    0  0.00000000000E+00  0.00000000000E+00  0.45593999997E+02  0.45594000000E+02  0.51100000000E-03 0. -1.
         11   -1    0    0    0    0 -0.00000000000E+00 -0.00000000000E+00 -0.45593999997E+02  0.45594000000E+02  0.51100000000E-03 0.  1.
    9900012    2    1    2    0    0  0.21576605900E+02  0.55340847664E+01 -0.22815440606E+02  0.59301947463E+02  0.50000006265E+02 0.  0.
        -12    1    1    2    0    0 -0.21576605900E+02 -0.55340847664E+01  0.22815440606E+02  0.31886052537E+02  0.00000000000E+00 0.  1.
         11    1    3    3    0    0  0.31481251937E+02  0.93878586244E+01 -0.19377348469E+01  0.32908295758E+02  0.51100000000E-03 0.  1.
        -11    1    3    3    0    0 -0.11624574887E+02 -0.59071383780E+01 -0.14638783869E+02  0.19604056175E+02  0.51100000000E-03 0. -1.
         12    1    3    3    0    0  0.17199288489E+01  0.20533645200E+01 -0.62389218905E+01  0.67895955295E+01  0.00000000000E+00 0. -1.
</event>
<event>
 7    1  0.1096439E-011  0.5930196E+02  0.7816164E-02  0.1266605E+00
        -11   -1    0    0    0    0  0.00000000000E+00  0.00000000000E+00  0.45593999997E+02  0.45594000000E+02  0.51100000000E-03 0.  1.
         11   -1    0    0    0    0 -0.00000000000E+00 -0.00000000000E+00 -0.45593999997E+02  0.45594000000E+02  0.51100000000E-03 0. -1.
    9900012    2    1    2    0    0 -0.12632718992E+02 -0.23106664020E+02 -0.17978207277E+02  0.59301961548E+02  0.50000031952E+02 0.  0.
        -12    1    1    2    0    0  0.12632718992E+02  0.23106664020E+02  0.17978207277E+02  0.31886038452E+02  0.00000000000E+00 0.  1.
         11    1    3    3    0    0 -0.67074983312E+01 -0.11765187451E+00 -0.30411854350E+02  0.31142980928E+02  0.51100000000E-03 0. -1.
        -11    1    3    3    0    0 -0.57786578731E+00 -0.14933471241E+02  0.10588878251E+02  0.18315753739E+02  0.51100000000E-03 0.  1.
        -12    1    3    3    0    0 -0.53473548733E+01 -0.80555409051E+01  0.18447688213E+01  0.98432268804E+01  0.00000000000E+00 0.  1.
</event>
<event>
 7    1  0.1096439E-011  0.5930191E+02  0.7816164E-02  0.1266605E+00
        -11   -1    0    0    0    0  0.00000000000E+00  0.00000000000E+00  0.45593999997E+02  0.45594000000E+02  0.51100000000E-03 0.  1.
         11   -1    0    0    0    0 -0.00000000000E+00 -0.00000000000E+00 -0.45593999997E+02  0.45594000000E+02  0.51100000000E-03 0. -1.
    9900012    2    1    2    0    0  0.28167591470E+02  0.14436522489E+02 -0.38595761858E+01  0.59301910256E+02  0.49999938409E+02 0.  0.
        -12    1    1    2    0    0 -0.28167591470E+02 -0.14436522489E+02  0.38595761858E+01  0.31886089744E+02  0.00000000000E+00 0.  1.
         11    1    3    3    0    0  0.14830418846E+01  0.17161781845E+02 -0.21179302135E+02  0.27299981841E+02  0.51100000000E-03 0. -1.
        -11    1    3    3    0    0  0.70372532271E+01 -0.33340825829E+00  0.35347268555E+01  0.78821563200E+01  0.51100000000E-03 0.  1.
         12    1    3    3    0    0  0.19647296359E+02 -0.23918510976E+01  0.13784999094E+02  0.24119772095E+02  0.00000000000E+00 0. -1.
</event>
<event>
 7    1  0.1096439E-011  0.5930195E+02  0.7816164E-02  0.1266605E+00
        -11   -1    0    0    0    0  0.00000000000E+00  0.00000000000E+00  0.45593999997E+02  0.45594000000E+02  0.51100000000E-03 0.  1.
         11   -1    0    0    0    0 -0.00000000000E+00 -0.00000000000E+00 -0.45593999997E+02  0.45594000000E+02  0.51100000000E-03 0. -1.
    9900012    2    1    2    0    0 -0.25711881372E+02  0.16366239339E+02 -0.93683115096E+01  0.59301954552E+02  0.50000019194E+02 0.  0.
        -12    1    1    2    0    0  0.25711881372E+02 -0.16366239339E+02  0.93683115096E+01  0.31886045448E+02  0.00000000000E+00 0.  1.
         11    1    3    3    0    0  0.57923043047E+01  0.48883858940E+01  0.40008053054E+01  0.85705046036E+01  0.51100000000E-03 0. -1.
        -11    1    3    3    0    0 -0.24591013812E+02  0.14399686053E+02  0.67265905914E+01  0.29279957991E+02  0.51100000000E-03 0.  1.
        -12    1    3    3    0    0 -0.69131718649E+01 -0.29218326082E+01 -0.20095707406E+02  0.21451491957E+02  0.00000000000E+00 0.  1.
</event>
<event>
 7    1  0.1096439E-011  0.5930193E+02  0.7816164E-02  0.1266605E+00
        -11   -1    0    0    0    0  0.00000000000E+00  0.00000000000E+00  0.45593999997E+02  0.45594000000E+02  0.51100000000E-03 0.  1.
         11   -1    0    0    0    0 -0.00000000000E+00 -0.00000000000E+00 -0.45593999997E+02  0.45594000000E+02  0.51100000000E-03 0. -1.
    9900012    2    1    2    0    0 -0.41276414479E+01 -0.15288096127E+02 -0.27675948644E+02  0.59301930307E+02  0.49999974976E+02 0.  0.
        -12    1    1    2    0    0  0.41276414479E+01  0.15288096127E+02  0.27675948644E+02  0.31886069693E+02  0.00000000000E+00 0.  1.
         11    1    3    3    0    0 -0.11858664323E+02 -0.11593283122E+02 -0.35017010253E+02  0.38745620919E+02  0.51100000000E-03 0. -1.
        -11    1    3    3    0    0  0.59912983873E+01 -0.95696355747E+01  0.87323647905E+01  0.14273323947E+02  0.51100000000E-03 0.  1.
         12    1    3    3    0    0  0.17397244873E+01  0.58748225690E+01 -0.13913031815E+01  0.62829854410E+01  0.00000000000E+00 0. -1.
</event>
<event>
 7    1  0.1096439E-011  0.5930192E+02  0.7816164E-02  0.1266605E+00
        -11   -1    0    0    0    0  0.00000000000E+00  0.00000000000E+00  0.45593999997E+02  0.45594000000E+02  0.51100000000E-03 0.  1.
         11   -1    0    0    0    0 -0.00000000000E+00 -0.00000000000E+00 -0.45593999997E+02  0.45594000000E+02  0.51100000000E-03 0. -1.
    9900012    2    1    2    0    0 -0.19067438645E+02 -0.62800235748E+01 -0.24773298173E+02  0.59301918162E+02  0.49999952828E+02 0.  0.
        -12    1    1    2    0    0  0.19067438645E+02  0.62800235748E+01  0.24773298173E+02  0.31886081838E+02  0.00000000000E+00 0.  1.
         11    1    3    3    0    0 -0.17768780381E+02  0.50741832786E+01 -0.11588499904E+02  0.21812157676E+02  0.51100000000E-03 0. -1.
        -11    1    3    3    0    0  0.34138881699E+01 -0.15912400870E+02 -0.21459380870E+02  0.26932585495E+02  0.51100000000E-03 0.  1.
        -12    1    3    3    0    0 -0.47125464334E+01  0.45581940167E+01  0.82745826006E+01  0.10557174991E+02  0.00000000000E+00 0.  1.
</event>
<event>
 7    1  0.1096439E-011  0.5930194E+02  0.7816164E-02  0.1266605E+00
        -11   -1    0    0    0    0  0.00000000000E+00  0.00000000000E+00  0.45593999997E+02  0.45594000000E+02  0.51100000000E-03 0.  1.
         11   -1    0    0    0    0 -0.00000000000E+00 -0.00000000000E+00 -0.45593999997E+02  0.45594000000E+02  0.51100000000E-03 0. -1.
    9900012    2    1    2    0    0 -0.30168034227E+02 -0.29215716326E+01 -0.99032942597E+01  0.59301935534E+02  0.49999984510E+02 0.  0.
        -12    1    1    2    0    0  0.30168034227E+02  0.29215716326E+01  0.99032942597E+01  0.31886064466E+02  0.00000000000E+00 0.  1.
         11    1    3    3    0    0  0.87274501734E+01 -0.31005987170E+00 -0.29115184573E+01  0.92055126767E+01  0.51100000000E-03 0. -1.
        -11    1    3    3    0    0 -0.12413570383E+02  0.62918110062E+01  0.10233608684E+02  0.17274558239E+02  0.51100000000E-03 0.  1.
         12    1    3    3    0    0 -0.26481914017E+02 -0.89033227672E+01 -0.17225384487E+02  0.32821864619E+02  0.00000000000E+00 0. -1.
</event>
<event>
 7    1  0.1096439E-011  0.5930198E+02  0.7816164E-02  0.1266605E+00
        -11   -1    0    0    0    0  0.00000000000E+00  0.00000000000E+00  0.45593999997E+02  0.45594000000E+02  0.51100000000E-03 0. -1.
         11   -1    0    0    0    0 -0.00000000000E+00 -0.00000000000E+00 -0.45593999997E+02  0.45594000000E+02  0.51100000000E-03 0.  1.
    9900012    2    1    2    0    0  0.12306724714E+02 -0.28723816510E+02  0.63407444896E+01  0.59301981924E+02  0.50000069114E+02 0.  0.
        -12    1    1    2    0    0 -0.12306724714E+02  0.28723816510E+02 -0.63407444896E+01  0.31886018076E+02  0.00000000000E+00 0.  1.
         11    1    3    3    0    0  0.11408475773E+02 -0.30258769339E+02  0.15833716645E+02  0.36006291456E+02  0.51100000000E-03 0. -1.
        -11    1    3    3    0    0 -0.69762449090E+01  0.17540004938E+01 -0.12854954988E+02  0.14730729064E+02  0.51100000000E-03 0.  1.
        -12    1    3    3    0    0  0.78744938502E+01 -0.21904766429E+00  0.33619828324E+01  0.85649614034E+01  0.00000000000E+00 0.  1.
</event>
<event>
 7    1  0.1096439E-011  0.5930193E+02  0.7816164E-02  0.1266605E+00
        -11   -1    0    0    0    0  0.00000000000E+00  0.00000000000E+00  0.45593999997E+02  0.45594000000E+02  0.51100000000E-03 0.  1.
         11   -1    0    0    0    0 -0.00000000000E+00 -0.00000000000E+00 -0.45593999997E+02  0.45594000000E+02  0.51100000000E-03 0. -1.
    9900012    2    1    2    0    0  0.30736320579E+02 -0.52161576910E+01 -0.66926423851E+01  0.59301934613E+02  0.49999982830E+02 0.  0.
        -12    1    1    2    0    0 -0.30736320579E+02  0.52161576910E+01  0.66926423851E+01  0.31886065387E+02  0.00000000000E+00 0.  1.
         11    1    3    3    0    0  0.12762264453E+02 -0.18637533810E+02  0.33548940829E+01  0.22836119965E+02  0.51100000000E-03 0. -1.
        -11    1    3    3    0    0  0.16706729941E+02  0.17920092594E+02  0.94793732053E+00  0.24518220354E+02  0.51100000000E-03 0.  1.
         12    1    3    3    0    0  0.12673261846E+01 -0.44987164749E+01 -0.10995473789E+02  0.11947594294E+02  0.00000000000E+00 0. -1.
</event>
<event>
 7    1  0.1096439E-011  0.5930192E+02  0.7816164E-02  0.1266605E+00
        -11   -1    0    0    0    0  0.00000000000E+00  0.00000000000E+00  0.45593999997E+02  0.45594000000E+02  0.51100000000E-03 0.  1.
         11   -1    0    0    0    0 -0.00000000000E+00 -0.00000000000E+00 -0.45593999997E+02  0.45594000000E+02  0.51100000000E-03 0. -1.
    9900012    2    1    2    0    0  0.18444767027E+02 -0.23648764973E+02 -0.10828127665E+02  0.59301923663E+02  0.49999962860E+02 0.  0.
        -12    1    1    2    0    0 -0.18444767027E+02  0.23648764973E+02  0.10828127665E+02  0.31886076337E+02  0.00000000000E+00 0.  1.
         11    1    3    3    0    0  0.17191710982E+02  0.16115025090E+01 -0.51857750695E+01  0.18028980286E+02  0.51100000000E-03 0. -1.
        -11    1    3    3    0    0 -0.50088597682E+01 -0.28158610515E+02  0.45543424483E+01  0.28960974737E+02  0.51100000000E-03 0.  1.
        -12    1    3    3    0    0  0.62619158133E+01  0.28983430330E+01 -0.10196695044E+02  0.12311968640E+02  0.00000000000E+00 0.  1.
</event>
<event>
 7    1  0.1096439E-011  0.5930194E+02  0.7816164E-02  0.1266605E+00
        -11   -1    0    0    0    0  0.00000000000E+00  0.00000000000E+00  0.45593999997E+02  0.45594000000E+02  0.51100000000E-03 0.  1.
         11   -1    0    0    0    0 -0.00000000000E+00 -0.00000000000E+00 -0.45593999997E+02  0.45594000000E+02  0.51100000000E-03 0. -1.
    9900012    2    1    2    0    0  0.36336022985E+00 -0.23009785035E+02 -0.22071212408E+02  0.59301942621E+02  0.49999997435E+02 0.  0.
        -12    1    1    2    0    0 -0.36336022985E+00  0.23009785035E+02  0.22071212408E+02  0.31886057379E+02  0.00000000000E+00 0.  1.
         11    1    3    3    0    0 -0.83148302104E+01  0.64115420897E+01 -0.12115076026E+02  0.16031822753E+02  0.51100000000E-03 0. -1.
        -11    1    3    3    0    0  0.13824002992E+01 -0.20279860747E+02  0.79968569758E+01  0.21843385824E+02  0.51100000000E-03 0.  1.
         12    1    3    3    0    0  0.72957901410E+01 -0.91414663782E+01 -0.17952993358E+02  0.21426734045E+02  0.00000000000E+00 0. -1.
</event>
<event>
 7    1  0.1096439E-011  0.5930194E+02  0.7816164E-02  0.1266605E+00
        -11   -1    0    0    0    0  0.00000000000E+00  0.00000000000E+00  0.45593999997E+02  0.45594000000E+02  0.51100000000E-03 0. -1.
         11   -1    0    0    0    0 -0.00000000000E+00 -0.00000000000E+00 -0.45593999997E+02  0.45594000000E+02  0.51100000000E-03 0.  1.
    9900012    2    1    2    0    0 -0.19653960057E+02  0.11388788223E+02  0.22377177093E+02  0.59301941953E+02  0.49999996216E+02 0.  0.
        -12    1    1    2    0    0  0.19653960057E+02 -0.11388788223E+02 -0.22377177093E+02  0.31886058047E+02  0.00000000000E+00 0.  1.
         11    1    3    3    0    0  0.82173699302E+01  0.18401672743E+02  0.66478069651E+01  0.21221217354E+02  0.51100000000E-03 0. -1.
        -11    1    3    3    0    0 -0.17971633750E+02  0.47181295863E+01  0.46607748148E+01  0.19156283266E+02  0.51100000000E-03 0.  1.
         12    1    3    3    0    0 -0.98996962368E+01 -0.11731014106E+02  0.11068595313E+02  0.18924441332E+02  0.00000000000E+00 0. -1.
</event>
<event>
 7    1  0.1096439E-011  0.5930194E+02  0.7816164E-02  0.1266605E+00
        -11   -1    0    0    0    0  0.00000000000E+00  0.00000000000E+00  0.45593999997E+02  0.45594000000E+02  0.51100000000E-03 0. -1.
         11   -1    0    0    0    0 -0.00000000000E+00 -0.00000000000E+00 -0.45593999997E+02  0.45594000000E+02  0.51100000000E-03 0.  1.
    9900012    2    1    2    0    0  0.23538488068E+02 -0.87437422026E+01  0.19652158664E+02  0.59301940532E+02  0.49999993624E+02 0.  0.
        -12    1    1    2    0    0 -0.23538488068E+02  0.87437422026E+01 -0.19652158664E+02  0.31886059468E+02  0.00000000000E+00 0.  1.
         11    1    3    3    0    0  0.95579072998E+01  0.94769701979E+00 -0.11478761559E+02  0.14967086850E+02  0.51100000000E-03 0. -1.
        -11    1    3    3    0    0  0.86704723718E+01 -0.13491226111E+02  0.41366179936E+01  0.16562061521E+02  0.51100000000E-03 0.  1.
         12    1    3    3    0    0  0.53101083969E+01  0.37997868885E+01  0.26994302229E+02  0.27772792161E+02  0.00000000000E+00 0. -1.
</event>
<event>
 7    1  0.1096439E-011  0.5930195E+02  0.7816164E-02  0.1266605E+00
        -11   -1    0    0    0    0  0.00000000000E+00  0.00000000000E+00  0.45593999997E+02  0.45594000000E+02  0.51100000000E-03 0. -1.
         11   -1    0    0    0    0 -0.00000000000E+00 -0.00000000000E+00 -0.45593999997E+02  0.45594000000E+02  0.51100000000E-03 0.  1.
    9900012    2    1    2    0    0 -0.26307528178E+02 -0.19726413207E+01  0.17909303186E+02  0.59301945160E+02  0.50000002066E+02 0.  0.
        -12    1    1    2    0    0  0.26307528178E+02  0.19726413207E+01 -0.17909303186E+02  0.31886054840E+02  0.00000000000E+00 0.  1.
         11    1    3    3    0    0 -0.24166058758E+01 -0.21160096445E+02  0.17714318062E+02  0.27701745977E+02  0.51100000000E-03 0. -1.
        -11    1    3    3    0    0 -0.92875346154E+01  0.50839947299E+01 -0.31004519067E+01  0.11032592802E+02  0.51100000000E-03 0.  1.
        -12    1    3    3    0    0 -0.14603387687E+02  0.14103460395E+02  0.32954370314E+01  0.20567606381E+02  0.00000000000E+00 0.  1.
</event>
<event>
 7    1  0.1099408E-011  0.5930191E+02  0.7816164E-02  0.1266605E+00
        -11   -1    0    0    0    0  0.00000000000E+00  0.00000000000E+00  0.45593999997E+02  0.45594000000E+02  0.51100000000E-03 0. -1.
         11   -1    0    0    0    0 -0.00000000000E+00 -0.00000000000E+00 -0.45593999997E+02  0.45594000000E+02  0.51100000000E-03 0.  1.
    9900012    2    1    2    0    0 -0.29328308687E+02  0.33652467830E+01  0.12051899514E+02  0.59301908075E+02  0.49999934430E+02 0.  0.
        -12    1    1    2    0    0  0.29328308687E+02 -0.33652467830E+01 -0.12051899514E+02  0.31886091925E+02  0.00000000000E+00 0.  1.
         11    1    3    3    0    0  0.38795314324E+00 -0.71259342718E+01  0.13981137489E+02  0.15697186138E+02  0.51100000000E-03 0. -1.
        -11    1    3    3    0    0 -0.26698174311E+02  0.12952796636E+02  0.97960885541E+01  0.31249492851E+02  0.51100000000E-03 0.  1.
        -12    1    3    3    0    0 -0.30180875198E+01 -0.24616155815E+01 -0.11725326529E+02  0.12355229086E+02  0.00000000000E+00 0.  1.
</event>
<event>
 7    1  0.1096439E-011  0.5930194E+02  0.7816164E-02  0.1266605E+00
        -11   -1    0    0    0    0  0.00000000000E+00  0.00000000000E+00  0.45593999997E+02  0.45594000000E+02  0.51100000000E-03 0.  1.
         11   -1    0    0    0    0 -0.00000000000E+00 -0.00000000000E+00 -0.45593999997E+02  0.45594000000E+02  0.51100000000E-03 0. -1.
    9900012    2    1    2    0    0  0.30260099316E+01  0.13581984312E+02 -0.28689605962E+02  0.59301944674E+02  0.50000001179E+02 0.  0.
        -12    1    1    2    0    0 -0.30260099316E+01 -0.13581984312E+02  0.28689605962E+02  0.31886055326E+02  0.00000000000E+00 0.  1.
         11    1    3    3    0    0  0.43184570122E+01 -0.12283950337E+02 -0.14174975674E+02  0.19247712655E+02  0.51100000000E-03 0. -1.
        -11    1    3    3    0    0 -0.13912460740E+02  0.10404685097E+02 -0.69165749465E+01  0.18699011874E+02  0.51100000000E-03 0.  1.
        -12    1    3    3    0    0  0.12620013659E+02  0.15461249552E+02 -0.75980553420E+01  0.21355220145E+02  0.00000000000E+00 0.  1.
</event>
<event>
 7    1  0.1096439E-011  0.5930194E+02  0.7816164E-02  0.1266605E+00
        -11   -1    0    0    0    0  0.00000000000E+00  0.00000000000E+00  0.45593999997E+02  0.45594000000E+02  0.51100000000E-03 0. -1.
         11   -1    0    0    0    0 -0.00000000000E+00 -0.00000000000E+00 -0.45593999997E+02  0.45594000000E+02  0.51100000000E-03 0.  1.
    9900012    2    1    2    0    0  0.78610388012E+00  0.25724611545E+02  0.18824116718E+02  0.59301937706E+02  0.49999988470E+02 0.  0.
        -12    1    1    2    0    0 -0.78610388012E+00 -0.25724611545E+02 -0.18824116718E+02  0.31886062294E+02  0.00000000000E+00 0.  1.
         11    1    3    3    0    0  0.28042921275E+01 -0.61503256003E+00  0.71157178492E+01  0.76730541610E+01  0.51100000000E-03 0. -1.
        -11    1    3    3    0    0 -0.85534775380E+01 -0.16237249542E+01 -0.11697382808E+02  0.14581742884E+02  0.51100000000E-03 0.  1.
        -12    1    3    3    0    0  0.65352892906E+01  0.27963369059E+02  0.23405781676E+02  0.37047140661E+02  0.00000000000E+00 0.  1.
</event>
<event>
 7    1  0.1096439E-011  0.5930196E+02  0.7816164E-02  0.1266605E+00
        -11   -1    0    0    0    0  0.00000000000E+00  0.00000000000E+00  0.45593999997E+02  0.45594000000E+02  0.51100000000E-03 0. -1.
         11   -1    0    0    0    0 -0.00000000000E+00 -0.00000000000E+00 -0.45593999997E+02  0.45594000000E+02  0.51100000000E-03 0.  1.
    9900012    2    1    2    0    0 -0.17236380657E+02  0.92472279065E+01  0.25181646798E+02  0.59301962655E+02  0.50000033972E+02 0.  0.
        -12    1    1    2    0    0  0.17236380657E+02 -0.92472279065E+01 -0.25181646798E+02  0.31886037345E+02  0.00000000000E+00 0.  1.
         11    1    3    3    0    0 -0.10101516950E+02 -0.46633332053E+01  0.30843094648E+02  0.32788470672E+02  0.51100000000E-03 0. -1.
        -11    1    3    3    0    0 -0.14946383049E+01  0.58855928761E+01 -0.12943461987E+02  0.14297110045E+02  0.51100000000E-03 0.  1.
         12    1    3    3    0    0 -0.56402254017E+01  0.80249682357E+01  0.72820141367E+01  0.12216381938E+02  0.00000000000E+00 0. -1.
</event>
<event>
 7    1  0.1096439E-011  0.5930195E+02  0.7816164E-02  0.1266605E+00
        -11   -1    0    0    0    0  0.00000000000E+00  0.00000000000E+00  0.45593999997E+02  0.45594000000E+02  0.51100000000E-03 0.  1.
         11   -1    0    0    0    0 -0.00000000000E+00 -0.00000000000E+00 -0.45593999997E+02  0.45594000000E+02  0.51100000000E-03 0. -1.
    9900012    2    1    2    0    0 -0.10631123094E+01  0.31591782569E+02 -0.41891493139E+01  0.59301954375E+02  0.50000018870E+02 0.  0.
        -12    1    1    2    0    0  0.10631123094E+01 -0.31591782569E+02  0.41891493139E+01  0.31886045625E+02  0.00000000000E+00 0.  1.
         11    1    3    3    0    0 -0.51030032273E+01  0.14569695747E+01 -0.17630390202E+02  0.18411791364E+02  0.51100000000E-03 0. -1.
        -11    1    3    3    0    0  0.69969455638E+01  0.13845830103E+02  0.17957006071E+02  0.23730114322E+02  0.51100000000E-03 0.  1.
        -12    1    3    3    0    0 -0.29570546459E+01  0.16288982891E+02 -0.45157651827E+01  0.17160048689E+02  0.00000000000E+00 0.  1.
</event>
<event>
 7    1  0.1096439E-011  0.5930195E+02  0.7816164E-02  0.1266605E+00
        -11   -1    0    0    0    0  0.00000000000E+00  0.00000000000E+00  0.45593999997E+02  0.45594000000E+02  0.51100000000E-03 0.  1.
         11   -1    0    0    0    0 -0.00000000000E+00 -0.00000000000E+00 -0.45593999997E+02  0.45594000000E+02  0.51100000000E-03 0. -1.
    9900012    2    1    2    0    0 -0.21864141832E+02  0.12775898827E+01 -0.23174276984E+02  0.59301952147E+02  0.50000014808E+02 0.  0.
        -12    1    1    2    0    0  0.21864141832E+02 -0.12775898827E+01  0.23174276984E+02  0.31886047853E+02  0.00000000000E+00 0.  1.
         11    1    3    3    0    0 -0.37832711478E+01  0.19538702417E+02 -0.92192187685E+01  0.21933263042E+02  0.51100000000E-03 0. -1.
        -11    1    3    3    0    0 -0.20168153554E+02 -0.19388478517E+02 -0.54022948344E+01  0.28493022071E+02  0.51100000000E-03 0.  1.
        -12    1    3    3    0    0  0.20872828706E+01  0.11273659831E+01 -0.85527633812E+01  0.88756670339E+01  0.00000000000E+00 0.  1.
</event>
<event>
 7    1  0.1096439E-011  0.5930194E+02  0.7816164E-02  0.1266605E+00
        -11   -1    0    0    0    0  0.00000000000E+00  0.00000000000E+00  0.45593999997E+02  0.45594000000E+02  0.51100000000E-03 0.  1.
         11   -1    0    0    0    0 -0.00000000000E+00 -0.00000000000E+00 -0.45593999997E+02  0.45594000000E+02  0.51100000000E-03 0. -1.
    9900012    2    1    2    0    0  0.26026576921E+02 -0.18377537064E+02 -0.12665875487E+01  0.59301940055E+02  0.49999992756E+02 0.  0.
        -12    1    1    2    0    0 -0.26026576921E+02  0.18377537064E+02  0.12665875487E+01  0.31886059945E+02  0.00000000000E+00 0.  1.
         11    1    3    3    0    0 -0.60458851545E+01  0.87444914233E+01 -0.62144896920E+01  0.12314168260E+02  0.51100000000E-03 0. -1.
        -11    1    3    3    0    0  0.21213529661E+02 -0.45755894851E+01  0.23021838826E+01  0.21823150797E+02  0.51100000000E-03 0.  1.
         12    1    3    3    0    0  0.10858932415E+02 -0.22546439002E+02  0.26457182606E+01  0.25164620998E+02  0.00000000000E+00 0. -1.
</event>
<event>
 7    1  0.1096439E-011  0.5930194E+02  0.7816164E-02  0.1266605E+00
        -11   -1    0    0    0    0  0.00000000000E+00  0.00000000000E+00  0.45593999997E+02  0.45594000000E+02  0.51100000000E-03 0. -1.
         11   -1    0    0    0    0 -0.00000000000E+00 -0.00000000000E+00 -0.45593999997E+02  0.45594000000E+02  0.51100000000E-03 0.  1.
    9900012    2    1    2    0    0 -0.59148979348E+01  0.25851173758E+02  0.17704558471E+02  0.59301943598E+02  0.49999999216E+02 0.  0.
        -12    1    1    2    0    0  0.59148979348E+01 -0.25851173758E+02 -0.17704558471E+02  0.31886056402E+02  0.00000000000E+00 0.  1.
         11    1    3    3    0    0  0.17377086459E+02  0.22388842157E+01  0.46802230181E+01  0.18135055117E+02  0.51100000000E-03 0. -1.
        -11    1    3    3    0    0 -0.24611142097E+02  0.20052611342E+02  0.47977076026E+01  0.32106596448E+02  0.51100000000E-03 0.  1.
        -12    1    3    3    0    0  0.13191577037E+01  0.35596782003E+01  0.82266278505E+01  0.90602920332E+01  0.00000000000E+00 0.  1.
</event>
<event>
 7    1  0.1096439E-011  0.5930201E+02  0.7816164E-02  0.1266605E+00
        -11   -1    0    0    0    0  0.00000000000E+00  0.00000000000E+00  0.45593999997E+02  0.45594000000E+02  0.51100000000E-03 0.  1.
         11   -1    0    0    0    0 -0.00000000000E+00 -0.00000000000E+00 -0.45593999997E+02  0.45594000000E+02  0.51100000000E-03 0. -1.
    9900012    2    1    2    0    0 -0.77615380861E+01 -0.11700955345E+02 -0.28628007642E+02  0.59302005410E+02  0.50000111946E+02 0.  0.
        -12    1    1    2    0    0  0.77615380861E+01  0.11700955345E+02  0.28628007642E+02  0.31885994590E+02  0.00000000000E+00 0.  1.
         11    1    3    3    0    0  0.13399143754E+02  0.84019102628E+01 -0.45946584357E+01  0.16469366588E+02  0.51100000000E-03 0. -1.
        -11    1    3    3    0    0 -0.89978303238E+01 -0.12176333986E+02 -0.23926702355E+02  0.28314504158E+02  0.51100000000E-03 0.  1.
         12    1    3    3    0    0 -0.12162851516E+02 -0.79265316224E+01 -0.10664685118E+00  0.14518134664E+02  0.00000000000E+00 0. -1.
</event>
<event>
 7    1  0.1096439E-011  0.5930183E+02  0.7816164E-02  0.1266605E+00
        -11   -1    0    0    0    0  0.00000000000E+00  0.00000000000E+00  0.45593999997E+02  0.45594000000E+02  0.51100000000E-03 0. -1.
         11   -1    0    0    0    0 -0.00000000000E+00 -0.00000000000E+00 -0.45593999997E+02  0.45594000000E+02  0.51100000000E-03 0.  1.
    9900012    2    1    2    0    0  0.11235690197E+02  0.29748559513E+02  0.23473731550E+01  0.59301832340E+02  0.49999796308E+02 0.  0.
        -12    1    1    2    0    0 -0.11235690197E+02 -0.29748559513E+02 -0.23473731550E+01  0.31886167660E+02  0.00000000000E+00 0.  1.
         11    1    3    3    0    0  0.99432617766E+01 -0.95930679908E+01  0.70447015834E+01  0.15508811331E+02  0.51100000000E-03 0.  1.
        -11    1    3    3    0    0 -0.66840951333E+01  0.31947368631E+02 -0.41603805808E+01  0.32903195240E+02  0.51100000000E-03 0. -1.
         12    1    3    3    0    0  0.79765235533E+01  0.73942588735E+01 -0.53694784759E+00  0.10889825769E+02  0.00000000000E+00 0. -1.
</event>
<event>
 7    1  0.1096439E-011  0.5930195E+02  0.7816164E-02  0.1266605E+00
        -11   -1    0    0    0    0  0.00000000000E+00  0.00000000000E+00  0.45593999997E+02  0.45594000000E+02  0.51100000000E-03 0.  1.
         11   -1    0    0    0    0 -0.00000000000E+00 -0.00000000000E+00 -0.45593999997E+02  0.45594000000E+02  0.51100000000E-03 0. -1.
    9900012    2    1    2    0    0 -0.10485371202E+02  0.18785712084E+02 -0.23534530575E+02  0.59301951057E+02  0.50000012820E+02 0.  0.
        -12    1    1    2    0    0  0.10485371202E+02 -0.18785712084E+02  0.23534530575E+02  0.31886048943E+02  0.00000000000E+00 0.  1.
         11    1    3    3    0    0 -0.14724892549E+02  0.30865911086E+01 -0.11497207270E+02  0.18935027872E+02  0.51100000000E-03 0. -1.
        -11    1    3    3    0    0  0.11039794397E+02  0.13917782659E+02  0.77399024926E+01  0.19377508233E+02  0.51100000000E-03 0.  1.
        -12    1    3    3    0    0 -0.68002730503E+01  0.17813383165E+01 -0.19777225798E+02  0.20989414952E+02  0.00000000000E+00 0.  1.
</event>
<event>
 7    1  0.1096439E-011  0.5930192E+02  0.7816164E-02  0.1266605E+00
        -11   -1    0    0    0    0  0.00000000000E+00  0.00000000000E+00  0.45593999997E+02  0.45594000000E+02  0.51100000000E-03 0.  1.
         11   -1    0    0    0    0 -0.00000000000E+00 -0.00000000000E+00 -0.45593999997E+02  0.45594000000E+02  0.51100000000E-03 0. -1.
    9900012    2    1    2    0    0  0.73183096210E+00 -0.29488385296E+02  0.12108747462E+02  0.59301918255E+02  0.49999952997E+02 0.  0.
        -12    1    1    2    0    0 -0.73183096210E+00  0.29488385296E+02 -0.12108747462E+02  0.31886081745E+02  0.00000000000E+00 0.  1.
         11    1    3    3    0    0 -0.47317083319E+01 -0.27731717027E+02 -0.55666716914E+01  0.28677953675E+02  0.51100000000E-03 0. -1.
        -11    1    3    3    0    0 -0.91525733232E+01 -0.35882080746E+01  0.99631094256E+01  0.13996727664E+02  0.51100000000E-03 0.  1.
         12    1    3    3    0    0  0.14616112617E+02  0.18315398057E+01  0.77123097282E+01  0.16627236915E+02  0.00000000000E+00 0. -1.
</event>
<event>
 7    1  0.1096439E-011  0.5930204E+02  0.7816164E-02  0.1266604E+00
        -11   -1    0    0    0    0  0.00000000000E+00  0.00000000000E+00  0.45593999997E+02  0.45594000000E+02  0.51100000000E-03 0.  1.
         11   -1    0    0    0    0 -0.00000000000E+00 -0.00000000000E+00 -0.45593999997E+02  0.45594000000E+02  0.51100000000E-03 0. -1.
    9900012    2    1    2    0    0 -0.11941659478E+01 -0.17480749283E+02 -0.26640415770E+02  0.59302041018E+02  0.50000176886E+02 0.  0.
        -12    1    1    2    0    0  0.11941659478E+01  0.17480749283E+02  0.26640415770E+02  0.31885958982E+02  0.00000000000E+00 0.  1.
         11    1    3    3    0    0  0.71580904957E+01 -0.27303229380E+02 -0.23141452658E+02  0.36499745554E+02  0.51100000000E-03 0. -1.
        -11    1    3    3    0    0  0.90582157424E+00  0.33556472575E+01  0.67241209418E+01  0.75693251973E+01  0.51100000000E-03 0.  1.
         12    1    3    3    0    0 -0.92580780178E+01  0.64668328397E+01 -0.10223084055E+02  0.15232970267E+02  0.00000000000E+00 0. -1.
</event>
<event>
 7    1  0.1096439E-011  0.5930194E+02  0.7816164E-02  0.1266605E+00
        -11   -1    0    0    0    0  0.00000000000E+00  0.00000000000E+00  0.45593999997E+02  0.45594000000E+02  0.51100000000E-03 0.  1.
         11   -1    0    0    0    0 -0.00000000000E+00 -0.00000000000E+00 -0.45593999997E+02  0.45594000000E+02  0.51100000000E-03 0. -1.
    9900012    2    1    2    0    0 -0.10519364600E+02  0.30100533405E+02 -0.14682336003E+00  0.59301941919E+02  0.49999996155E+02 0.  0.
        -12    1    1    2    0    0  0.10519364600E+02 -0.30100533405E+02  0.14682336003E+00  0.31886058081E+02  0.00000000000E+00 0.  1.
         11    1    3    3    0    0 -0.12248893418E+01  0.21215322543E+02  0.28680621534E+01  0.21443321694E+02  0.51100000000E-03 0. -1.
        -11    1    3    3    0    0  0.82292604290E+01 -0.74965507758E+01  0.54837019151E+01  0.12409270232E+02  0.51100000000E-03 0.  1.
        -12    1    3    3    0    0 -0.17523735687E+02  0.16381761638E+02 -0.84985874285E+01  0.25449349993E+02  0.00000000000E+00 0.  1.
</event>
<event>
 7    1  0.1096439E-011  0.5930193E+02  0.7816164E-02  0.1266605E+00
        -11   -1    0    0    0    0  0.00000000000E+00  0.00000000000E+00  0.45593999997E+02  0.45594000000E+02  0.51100000000E-03 0.  1.
         11   -1    0    0    0    0 -0.00000000000E+00 -0.00000000000E+00 -0.45593999997E+02  0.45594000000E+02  0.51100000000E-03 0. -1.
    9900012    2    1    2    0    0 -0.26284493371E+02 -0.12217164599E+02 -0.13288630804E+02  0.59301930765E+02  0.49999975812E+02 0.  0.
        -12    1    1    2    0    0  0.26284493371E+02  0.12217164599E+02  0.13288630804E+02  0.31886069235E+02  0.00000000000E+00 0.  1.
         11    1    3    3    0    0 -0.82686785230E+01  0.14383403701E+02 -0.36062682998E+00  0.16594679825E+02  0.51100000000E-03 0. -1.
        -11    1    3    3    0    0 -0.12164214669E+02 -0.18479986612E+02  0.45302845447E+01  0.22583212837E+02  0.51100000000E-03 0.  1.
         12    1    3    3    0    0 -0.58516001791E+01 -0.81205816869E+01 -0.17458288518E+02  0.20124038103E+02  0.00000000000E+00 0. -1.
</event>
<event>
 7    1  0.1096439E-011  0.5930199E+02  0.7816164E-02  0.1266605E+00
        -11   -1    0    0    0    0  0.00000000000E+00  0.00000000000E+00  0.45593999997E+02  0.45594000000E+02  0.51100000000E-03 0.  1.
         11   -1    0    0    0    0 -0.00000000000E+00 -0.00000000000E+00 -0.45593999997E+02  0.45594000000E+02  0.51100000000E-03 0. -1.
    9900012    2    1    2    0    0  0.29877027795E+02 -0.27385153351E+01  0.10797272850E+02  0.59301994338E+02  0.50000091754E+02 0.  0.
        -12    1    1    2    0    0 -0.29877027795E+02  0.27385153351E+01 -0.10797272850E+02  0.31886005662E+02  0.00000000000E+00 0.  1.
         11    1    3    3    0    0  0.10667494345E+02 -0.46964607419E+01  0.18298954905E+01  0.11798334495E+02  0.51100000000E-03 0. -1.
        -11    1    3    3    0    0 -0.55431412513E+01 -0.84552811584E+01  0.16732355742E+02  0.19549678344E+02  0.51100000000E-03 0.  1.
        -12    1    3    3    0    0  0.24752674701E+02  0.10413226565E+02 -0.77649783824E+01  0.27953981499E+02  0.00000000000E+00 0.  1.
</event>
<event>
 7    1  0.1096439E-011  0.5930194E+02  0.7816164E-02  0.1266605E+00
        -11   -1    0    0    0    0  0.00000000000E+00  0.00000000000E+00  0.45593999997E+02  0.45594000000E+02  0.51100000000E-03 0.  1.
         11   -1    0    0    0    0 -0.00000000000E+00 -0.00000000000E+00 -0.45593999997E+02  0.45594000000E+02  0.51100000000E-03 0. -1.
    9900012    2    1    2    0    0 -0.24643359042E+02 -0.34455976925E+01 -0.19938750239E+02  0.59301936439E+02  0.49999986160E+02 0.  0.
        -12    1    1    2    0    0  0.24643359042E+02  0.34455976925E+01  0.19938750239E+02  0.31886063561E+02  0.00000000000E+00 0.  1.
         11    1    3    3    0    0 -0.17859047933E+02 -0.14932757472E-01 -0.31859567779E+02  0.36523661856E+02  0.51100000000E-03 0. -1.
        -11    1    3    3    0    0 -0.64336377136E+01  0.47367587036E+01  0.12217660749E+02  0.14597938611E+02  0.51100000000E-03 0.  1.
         12    1    3    3    0    0 -0.35067339488E+00 -0.81674236386E+01 -0.29684320990E+00  0.81803359719E+01  0.00000000000E+00 0. -1.
</event>
<event>
 7    1  0.1096439E-011  0.5930191E+02  0.7816164E-02  0.1266605E+00
        -11   -1    0    0    0    0  0.00000000000E+00  0.00000000000E+00  0.45593999997E+02  0.45594000000E+02  0.51100000000E-03 0.  1.
         11   -1    0    0    0    0 -0.00000000000E+00 -0.00000000000E+00 -0.45593999997E+02  0.45594000000E+02  0.51100000000E-03 0. -1.
    9900012    2    1    2    0    0  0.11529492203E+02 -0.14496275587E+02 -0.25954799456E+02  0.59301908814E+02  0.49999935778E+02 0.  0.
        -12    1    1    2    0    0 -0.11529492203E+02  0.14496275587E+02  0.25954799456E+02  0.31886091186E+02  0.00000000000E+00 0.  1.
         11    1    3    3    0    0 -0.64101462364E+01 -0.26737654644E+02 -0.99236444426E+01  0.29231333701E+02  0.51100000000E-03 0. -1.
        -11    1    3    3    0    0  0.11919013274E+02  0.11385738480E+02 -0.17260136344E+02  0.23866508438E+02  0.51100000000E-03 0.  1.
        -12    1    3    3    0    0  0.60206251659E+01  0.85564057712E+00  0.12289813310E+01  0.62040666742E+01  0.00000000000E+00 0.  1.
</event>
<event>
 7    1  0.1096439E-011  0.5930215E+02  0.7816164E-02  0.1266604E+00
        -11   -1    0    0    0    0  0.00000000000E+00  0.00000000000E+00  0.45593999997E+02  0.45594000000E+02  0.51100000000E-03 0.  1.
         11   -1    0    0    0    0 -0.00000000000E+00 -0.00000000000E+00 -0.45593999997E+02  0.45594000000E+02  0.51100000000E-03 0. -1.
    9900012    2    1    2    0    0  0.17645353490E+02  0.22705930510E+02 -0.13776419046E+02  0.59302148877E+02  0.50000373595E+02 0.  0.
        -12    1    1    2    0    0 -0.17645353490E+02 -0.22705930510E+02  0.13776419046E+02  0.31885851123E+02  0.00000000000E+00 0.  1.
         11    1    3    3    0    0  0.99133218731E+01  0.66053536605E+01  0.11816941103E+02  0.16779295124E+02  0.51100000000E-03 0. -1.
        -11    1    3    3    0    0  0.16604811930E+02  0.95215423851E+01 -0.60507963158E+01  0.20074652798E+02  0.51100000000E-03 0.  1.
         12    1    3    3    0    0 -0.88727803132E+01  0.65790344639E+01 -0.19542563834E+02  0.22448200956E+02  0.00000000000E+00 0. -1.
</event>
<event>
 7    1  0.1096439E-011  0.5930191E+02  0.7816164E-02  0.1266605E+00
        -11   -1    0    0    0    0  0.00000000000E+00  0.00000000000E+00  0.45593999997E+02  0.45594000000E+02  0.51100000000E-03 0.  1.
         11   -1    0    0    0    0 -0.00000000000E+00 -0.00000000000E+00 -0.45593999997E+02  0.45594000000E+02  0.51100000000E-03 0. -1.
    9900012    2    1    2    0    0 -0.45884269788E+01  0.22409497722E+02 -0.22214483916E+02  0.59301912972E+02  0.49999943362E+02 0.  0.
        -12    1    1    2    0    0  0.45884269788E+01 -0.22409497722E+02  0.22214483916E+02  0.31886087028E+02  0.00000000000E+00 0.  1.
         11    1    3    3    0    0 -0.16997814401E+02  0.17121441034E+02 -0.33408194036E+02  0.41208941584E+02  0.51100000000E-03 0. -1.
        -11    1    3    3    0    0  0.74963243085E+01  0.45411997813E+01  0.92883942638E+01  0.12770733803E+02  0.51100000000E-03 0.  1.
         12    1    3    3    0    0  0.49130631139E+01  0.74685690635E+00  0.19053158557E+01  0.53222375849E+01  0.00000000000E+00 0. -1.
</event>
<event>
 7    1  0.1096439E-011  0.5930192E+02  0.7816164E-02  0.1266605E+00
        -11   -1    0    0    0    0  0.00000000000E+00  0.00000000000E+00  0.45593999997E+02  0.45594000000E+02  0.51100000000E-03 0.  1.
         11   -1    0    0    0    0 -0.00000000000E+00 -0.00000000000E+00 -0.45593999997E+02  0.45594000000E+02  0.51100000000E-03 0. -1.
    9900012    2    1    2    0    0  0.11751646747E+02  0.26733297051E+02 -0.12804372601E+02  0.59301916355E+02  0.49999949532E+02 0.  0.
        -12    1    1    2    0    0 -0.11751646747E+02 -0.26733297051E+02  0.12804372601E+02  0.31886083645E+02  0.00000000000E+00 0.  1.
         11    1    3    3    0    0 -0.53355564201E+01  0.11487090259E+02 -0.21019392410E+02  0.24540502490E+02  0.51100000000E-03 0. -1.
        -11    1    3    3    0    0  0.69902920966E+01  0.45805658173E+01  0.16064615508E+02  0.18108496306E+02  0.51100000000E-03 0.  1.
        -12    1    3    3    0    0  0.10096911071E+02  0.10665640975E+02 -0.78495956991E+01  0.16652917559E+02  0.00000000000E+00 0.  1.
</event>
<event>
 7    1  0.1096439E-011  0.5930195E+02  0.7816164E-02  0.1266605E+00
        -11   -1    0    0    0    0  0.00000000000E+00  0.00000000000E+00  0.45593999997E+02  0.45594000000E+02  0.51100000000E-03 0. -1.
         11   -1    0    0    0    0 -0.00000000000E+00 -0.00000000000E+00 -0.45593999997E+02  0.45594000000E+02  0.51100000000E-03 0.  1.
    9900012    2    1    2    0    0 -0.79321943996E+01  0.30684116247E+02 -0.35050294828E+01  0.59301954000E+02  0.50000018186E+02 0.  0.
        -12    1    1    2    0    0  0.79321943996E+01 -0.30684116247E+02  0.35050294828E+01  0.31886046000E+02  0.00000000000E+00 0.  1.
         11    1    3    3    0    0 -0.54795389148E+01  0.35834817473E+02  0.16706347307E+01  0.36289812767E+02  0.51100000000E-03 0. -1.
        -11    1    3    3    0    0 -0.80982885465E+01 -0.98397191441E+01  0.18201373750E+01  0.12873043562E+02  0.51100000000E-03 0.  1.
        -12    1    3    3    0    0  0.56456330617E+01  0.46890179186E+01 -0.69958015885E+01  0.10139097671E+02  0.00000000000E+00 0.  1.
</event>
<event>
 7    1  0.1096439E-011  0.5930195E+02  0.7816164E-02  0.1266605E+00
        -11   -1    0    0    0    0  0.00000000000E+00  0.00000000000E+00  0.45593999997E+02  0.45594000000E+02  0.51100000000E-03 0. -1.
         11   -1    0    0    0    0 -0.00000000000E+00 -0.00000000000E+00 -0.45593999997E+02  0.45594000000E+02  0.51100000000E-03 0.  1.
    9900012    2    1    2    0    0 -0.17606684167E+02 -0.20233691238E+02  0.17243053711E+02  0.59301945215E+02  0.50000002165E+02 0.  0.
        -12    1    1    2    0    0  0.17606684167E+02  0.20233691238E+02 -0.17243053711E+02  0.31886054785E+02  0.00000000000E+00 0.  1.
         11    1    3    3    0    0  0.13784304023E+02 -0.54316342176E+01  0.14983137086E+01  0.14891428135E+02  0.51100000000E-03 0.  1.
        -11    1    3    3    0    0 -0.24947079656E+02  0.46427165160E+00  0.91643759458E+01  0.26581160966E+02  0.51100000000E-03 0. -1.
        -12    1    3    3    0    0 -0.64439085343E+01 -0.15266328672E+02  0.65803640570E+01  0.17829356114E+02  0.00000000000E+00 0.  1.
</event>
<event>
 7    1  0.1096439E-011  0.5930192E+02  0.7816164E-02  0.1266605E+00
        -11   -1    0    0    0    0  0.00000000000E+00  0.00000000000E+00  0.45593999997E+02  0.45594000000E+02  0.51100000000E-03 0.  1.
         11   -1    0    0    0    0 -0.00000000000E+00 -0.00000000000E+00 -0.45593999997E+02  0.45594000000E+02  0.51100000000E-03 0. -1.
    9900012    2    1    2    0    0 -0.10260097919E+02 -0.11221318325E+02 -0.28027393104E+02  0.59301915912E+02  0.49999948724E+02 0.  0.
        -12    1    1    2    0    0  0.10260097919E+02  0.11221318325E+02  0.28027393104E+02  0.31886084088E+02  0.00000000000E+00 0.  1.
         11    1    3    3    0    0  0.86977184319E+01  0.57510415726E+01 -0.19694552154E+02  0.22284527590E+02  0.51100000000E-03 0. -1.
        -11    1    3    3    0    0 -0.94475150816E+01 -0.13666027801E+02  0.75207484197E+01  0.18236707875E+02  0.51100000000E-03 0.  1.
         12    1    3    3    0    0 -0.95103012691E+01 -0.33063320967E+01 -0.15853589369E+02  0.18780680447E+02  0.00000000000E+00 0. -1.
</event>
<event>
 7    1  0.1096439E-011  0.5930195E+02  0.7816164E-02  0.1266605E+00
        -11   -1    0    0    0    0  0.00000000000E+00  0.00000000000E+00  0.45593999997E+02  0.45594000000E+02  0.51100000000E-03 0.  1.
         11   -1    0    0    0    0 -0.00000000000E+00 -0.00000000000E+00 -0.45593999997E+02  0.45594000000E+02  0.51100000000E-03 0. -1.
    9900012    2    1    2    0    0  0.31203450605E+02  0.55799408310E+01  0.34538696941E+01  0.59301948422E+02  0.50000008015E+02 0.  0.
        -12    1    1    2    0    0 -0.31203450605E+02 -0.55799408310E+01 -0.34538696941E+01  0.31886051578E+02  0.00000000000E+00 0.  1.
         11    1    3    3    0    0  0.28223096595E+02  0.70881238732E+01  0.87516197551E+01  0.30387094795E+02  0.51100000000E-03 0. -1.
        -11    1    3    3    0    0 -0.65451442635E+01  0.51329234265E+00  0.92899668386E+01  0.11375669940E+02  0.51100000000E-03 0.  1.
         12    1    3    3    0    0  0.95254982736E+01 -0.20214753849E+01 -0.14587716900E+02  0.17539183688E+02  0.00000000000E+00 0. -1.
</event>
<event>
 7    1  0.1096439E-011  0.5930194E+02  0.7816164E-02  0.1266605E+00
        -11   -1    0    0    0    0  0.00000000000E+00  0.00000000000E+00  0.45593999997E+02  0.45594000000E+02  0.51100000000E-03 0.  1.
         11   -1    0    0    0    0 -0.00000000000E+00 -0.00000000000E+00 -0.45593999997E+02  0.45594000000E+02  0.51100000000E-03 0. -1.
    9900012    2    1    2    0    0  0.12124229797E+02  0.29490491372E+02  0.18658933045E+00  0.59301939642E+02  0.49999992002E+02 0.  0.
        -12    1    1    2    0    0 -0.12124229797E+02 -0.29490491372E+02 -0.18658933045E+00  0.31886060358E+02  0.00000000000E+00 0.  1.
         11    1    3    3    0    0  0.51732531474E+01 -0.10078542517E+00  0.17429587760E+02  0.18181398064E+02  0.51100000000E-03 0.  1.
        -11    1    3    3    0    0  0.86979208587E+01  0.18694975051E+02 -0.21031388532E+02  0.29452932338E+02  0.51100000000E-03 0. -1.
        -12    1    3    3    0    0 -0.17469442086E+01  0.10896301746E+02  0.37883901030E+01  0.11667609241E+02  0.00000000000E+00 0.  1.
</event>
<event>
 7    1  0.1096439E-011  0.5930200E+02  0.7816164E-02  0.1266605E+00
        -11   -1    0    0    0    0  0.00000000000E+00  0.00000000000E+00  0.45593999997E+02  0.45594000000E+02  0.51100000000E-03 0. -1.
         11   -1    0    0    0    0 -0.00000000000E+00 -0.00000000000E+00 -0.45593999997E+02  0.45594000000E+02  0.51100000000E-03 0.  1.
    9900012    2    1    2    0    0 -0.30109596772E+02 -0.53273783438E+01 -0.90414663297E+01  0.59302001644E+02  0.50000105078E+02 0.  0.
        -12    1    1    2    0    0  0.30109596772E+02  0.53273783438E+01  0.90414663297E+01  0.31885998356E+02  0.00000000000E+00 0.  1.
         11    1    3    3    0    0 -0.19477990109E+02  0.38917847902E+01 -0.23444375242E+02  0.30727460330E+02  0.51100000000E-03 0. -1.
        -11    1    3    3    0    0 -0.14181774697E+02 -0.34254579206E+01  0.15939118793E+02  0.21608146697E+02  0.51100000000E-03 0.  1.
        -12    1    3    3    0    0  0.35501680340E+01 -0.57937052133E+01 -0.15362098806E+01  0.69663946174E+01  0.00000000000E+00 0.  1.
</event>
<event>
 7    1  0.1096439E-011  0.5930194E+02  0.7816164E-02  0.1266605E+00
        -11   -1    0    0    0    0  0.00000000000E+00  0.00000000000E+00  0.45593999997E+02  0.45594000000E+02  0.51100000000E-03 0.  1.
         11   -1    0    0    0    0 -0.00000000000E+00 -0.00000000000E+00 -0.45593999997E+02  0.45594000000E+02  0.51100000000E-03 0. -1.
    9900012    2    1    2    0    0 -0.14519262814E+02 -0.22811803586E+02 -0.16897734164E+02  0.59301940423E+02  0.49999993425E+02 0.  0.
        -12    1    1    2    0    0  0.14519262814E+02  0.22811803586E+02  0.16897734164E+02  0.31886059577E+02  0.00000000000E+00 0.  1.
         11    1    3    3    0    0  0.65381316261E+01 -0.25838169073E+02 -0.13514670355E+02  0.29883180240E+02  0.51100000000E-03 0. -1.
        -11    1    3    3    0    0 -0.58400559286E+01 -0.39878271562E+01  0.68003486087E+01  0.98109000677E+01  0.51100000000E-03 0.  1.
         12    1    3    3    0    0 -0.15217338511E+02  0.70141926436E+01 -0.10183412418E+02  0.19607860115E+02  0.00000000000E+00 0. -1.
</event>
<event>
 7    1  0.1191254E-011  0.5930192E+02  0.7816164E-02  0.1266605E+00
        -11   -1    0    0    0    0  0.00000000000E+00  0.00000000000E+00  0.45593999997E+02  0.45594000000E+02  0.51100000000E-03 0. -1.
         11   -1    0    0    0    0 -0.00000000000E+00 -0.00000000000E+00 -0.45593999997E+02  0.45594000000E+02  0.51100000000E-03 0.  1.
    9900012    2    1    2    0    0  0.26644046507E+02  0.16198285197E+02  0.66657720309E+01  0.59301918799E+02  0.49999953989E+02 0.  0.
        -12    1    1    2    0    0 -0.26644046507E+02 -0.16198285197E+02 -0.66657720309E+01  0.31886081201E+02  0.00000000000E+00 0.  1.
         11    1    3    3    0    0  0.30251554720E+02  0.19852448279E+02  0.11776917823E+02  0.38052228047E+02  0.51100000000E-03 0. -1.
        -11    1    3    3    0    0 -0.18435199259E+01 -0.99025585886E+01  0.33223567674E+01  0.10606473828E+02  0.51100000000E-03 0.  1.
        -12    1    3    3    0    0 -0.17639882874E+01  0.62483955064E+01 -0.84335025592E+01  0.10643216924E+02  0.00000000000E+00 0.  1.
</event>
<event>
 7    1  0.1096439E-011  0.5930193E+02  0.7816164E-02  0.1266605E+00
        -11   -1    0    0    0    0  0.00000000000E+00  0.00000000000E+00  0.45593999997E+02  0.45594000000E+02  0.51100000000E-03 0.  1.
         11   -1    0    0    0    0 -0.00000000000E+00 -0.00000000000E+00 -0.45593999997E+02  0.45594000000E+02  0.51100000000E-03 0. -1.
    9900012    2    1    2    0    0  0.13483599856E+02  0.28474947736E+02  0.49082924830E+01  0.59301930177E+02  0.49999974740E+02 0.  0.
        -12    1    1    2    0    0 -0.13483599856E+02 -0.28474947736E+02 -0.49082924830E+01  0.31886069823E+02  0.00000000000E+00 0.  1.
         11    1    3    3    0    0 -0.26603659078E+01 -0.11701846482E+01 -0.34073224696E+01  0.44784735734E+01  0.51100000000E-03 0. -1.
        -11    1    3    3    0    0 -0.74324827332E+01  0.18554573741E+02  0.18126260976E+02  0.26982871299E+02  0.51100000000E-03 0.  1.
        -12    1    3    3    0    0  0.23576448497E+02  0.11090558643E+02 -0.98106460236E+01  0.27840585305E+02  0.00000000000E+00 0.  1.
</event>
<event>
 7    1  0.1096439E-011  0.5930196E+02  0.7816164E-02  0.1266605E+00
        -11   -1    0    0    0    0  0.00000000000E+00  0.00000000000E+00  0.45593999997E+02  0.45594000000E+02  0.51100000000E-03 0. -1.
         11   -1    0    0    0    0 -0.00000000000E+00 -0.00000000000E+00 -0.45593999997E+02  0.45594000000E+02  0.51100000000E-03 0.  1.
    9900012    2    1    2    0    0  0.20700055925E+02  0.35927093307E+01  0.23985816249E+02  0.59301964549E+02  0.50000037427E+02 0.  0.
        -12    1    1    2    0    0 -0.20700055925E+02 -0.35927093307E+01 -0.23985816249E+02  0.31886035451E+02  0.00000000000E+00 0.  1.
         11    1    3    3    0    0 -0.44473568075E+01 -0.22528954441E+01  0.11572057522E+02  0.12600279204E+02  0.51100000000E-03 0. -1.
        -11    1    3    3    0    0  0.28412011741E+02  0.57209116732E+01  0.22120828250E+02  0.36459597972E+02  0.51100000000E-03 0.  1.
        -12    1    3    3    0    0 -0.32645990090E+01  0.12469310160E+00 -0.97070695226E+01  0.10242087374E+02  0.00000000000E+00 0.  1.
</event>
<event>
 7    1  0.1096439E-011  0.5930195E+02  0.7816164E-02  0.1266605E+00
        -11   -1    0    0    0    0  0.00000000000E+00  0.00000000000E+00  0.45593999997E+02  0.45594000000E+02  0.51100000000E-03 0.  1.
         11   -1    0    0    0    0 -0.00000000000E+00 -0.00000000000E+00 -0.45593999997E+02  0.45594000000E+02  0.51100000000E-03 0. -1.
    9900012    2    1    2    0    0  0.23281144112E+02  0.21625217647E+02 -0.26567901908E+01  0.59301949075E+02  0.50000009206E+02 0.  0.
        -12    1    1    2    0    0 -0.23281144112E+02 -0.21625217647E+02  0.26567901908E+01  0.31886050925E+02  0.00000000000E+00 0.  1.
         11    1    3    3    0    0 -0.19935677714E+01  0.23303980901E+02 -0.15609978988E+02  0.28119766758E+02  0.51100000000E-03 0. -1.
        -11    1    3    3    0    0  0.19352789949E+02  0.36487716149E+01  0.12233438132E+02  0.23184068278E+02  0.51100000000E-03 0.  1.
        -12    1    3    3    0    0  0.59219219339E+01 -0.53275348684E+01  0.71975066484E+00  0.79981140392E+01  0.00000000000E+00 0.  1.
</event>
<event>
 7    1  0.1096439E-011  0.5930196E+02  0.7816164E-02  0.1266605E+00
        -11   -1    0    0    0    0  0.00000000000E+00  0.00000000000E+00  0.45593999997E+02  0.45594000000E+02  0.51100000000E-03 0. -1.
         11   -1    0    0    0    0 -0.00000000000E+00 -0.00000000000E+00 -0.45593999997E+02  0.45594000000E+02  0.51100000000E-03 0.  1.
    9900012    2    1    2    0    0  0.29364340850E+02 -0.72852033662E+01  0.10068800995E+02  0.59301961439E+02  0.50000031754E+02 0.  0.
        -12    1    1    2    0    0 -0.29364340850E+02  0.72852033662E+01 -0.10068800995E+02  0.31886038561E+02  0.00000000000E+00 0.  1.
         11    1    3    3    0    0  0.18049442844E+02 -0.10321318245E+02 -0.45744620464E+01  0.21289379995E+02  0.51100000000E-03 0. -1.
        -11    1    3    3    0    0  0.26855807850E+01  0.12509790985E+02  0.20307322783E+02  0.24001970200E+02  0.51100000000E-03 0.  1.
        -12    1    3    3    0    0  0.86293172207E+01 -0.94736761063E+01 -0.56640597409E+01  0.14010611243E+02  0.00000000000E+00 0.  1.
</event>
<event>
 7    1  0.1096439E-011  0.5930195E+02  0.7816164E-02  0.1266605E+00
        -11   -1    0    0    0    0  0.00000000000E+00  0.00000000000E+00  0.45593999997E+02  0.45594000000E+02  0.51100000000E-03 0.  1.
         11   -1    0    0    0    0 -0.00000000000E+00 -0.00000000000E+00 -0.45593999997E+02  0.45594000000E+02  0.51100000000E-03 0. -1.
    9900012    2    1    2    0    0 -0.28336206777E+02 -0.12691461650E+02 -0.72599006251E+01  0.59301953359E+02  0.50000017018E+02 0.  0.
        -12    1    1    2    0    0  0.28336206777E+02  0.12691461650E+02  0.72599006251E+01  0.31886046641E+02  0.00000000000E+00 0.  1.
         11    1    3    3    0    0 -0.17898433709E+02 -0.16392502455E+02 -0.10552363787E+02  0.26465457633E+02  0.51100000000E-03 0. -1.
        -11    1    3    3    0    0  0.52579278686E+01  0.32937346898E+01  0.12980541942E+02  0.14387111004E+02  0.51100000000E-03 0.  1.
        -12    1    3    3    0    0 -0.15695700936E+02  0.40730611451E+00 -0.96880787802E+01  0.18449384721E+02  0.00000000000E+00 0.  1.
</event>
<event>
 7    1  0.1096439E-011  0.5930195E+02  0.7816164E-02  0.1266605E+00
        -11   -1    0    0    0    0  0.00000000000E+00  0.00000000000E+00  0.45593999997E+02  0.45594000000E+02  0.51100000000E-03 0. -1.
         11   -1    0    0    0    0 -0.00000000000E+00 -0.00000000000E+00 -0.45593999997E+02  0.45594000000E+02  0.51100000000E-03 0.  1.
    9900012    2    1    2    0    0  0.20204006147E+01  0.28191883507E+02  0.14759933650E+02  0.59301953590E+02  0.50000017440E+02 0.  0.
        -12    1    1    2    0    0 -0.20204006147E+01 -0.28191883507E+02 -0.14759933650E+02  0.31886046410E+02  0.00000000000E+00 0.  1.
         11    1    3    3    0    0  0.55533020611E+01 -0.11716074176E+02  0.14143753988E+02  0.19187270129E+02  0.51100000000E-03 0. -1.
        -11    1    3    3    0    0 -0.23866254163E+01  0.16672822244E+02  0.53076646738E+00  0.16851133367E+02  0.51100000000E-03 0.  1.
         12    1    3    3    0    0 -0.11462760301E+01  0.23235135438E+02  0.85413195200E-01  0.23263550094E+02  0.00000000000E+00 0. -1.
</event>
<event>
 7    1  0.1096439E-011  0.5930186E+02  0.7816164E-02  0.1266605E+00
        -11   -1    0    0    0    0  0.00000000000E+00  0.00000000000E+00  0.45593999997E+02  0.45594000000E+02  0.51100000000E-03 0.  1.
         11   -1    0    0    0    0 -0.00000000000E+00 -0.00000000000E+00 -0.45593999997E+02  0.45594000000E+02  0.51100000000E-03 0. -1.
    9900012    2    1    2    0    0  0.18904984032E+02 -0.17413449651E+02  0.18870587315E+02  0.59301863270E+02  0.49999852716E+02 0.  0.
        -12    1    1    2    0    0 -0.18904984032E+02  0.17413449651E+02 -0.18870587315E+02  0.31886136730E+02  0.00000000000E+00 0.  1.
         11    1    3    3    0    0  0.23340235701E+02 -0.10343161418E+01  0.13316263745E+02  0.26891621238E+02  0.51100000000E-03 0. -1.
        -11    1    3    3    0    0 -0.57821534862E+01 -0.19796375962E+02  0.12809795745E+02  0.24277987303E+02  0.51100000000E-03 0.  1.
         12    1    3    3    0    0  0.13469018169E+01  0.34172424535E+01 -0.72554721745E+01  0.81322547283E+01  0.00000000000E+00 0. -1.
</event>
<event>
 7    1  0.1096439E-011  0.5930199E+02  0.7816164E-02  0.1266605E+00
        -11   -1    0    0    0    0  0.00000000000E+00  0.00000000000E+00  0.45593999997E+02  0.45594000000E+02  0.51100000000E-03 0. -1.
         11   -1    0    0    0    0 -0.00000000000E+00 -0.00000000000E+00 -0.45593999997E+02  0.45594000000E+02  0.51100000000E-03 0.  1.
    9900012    2    1    2    0    0  0.22756329643E+01 -0.26858936919E+02  0.17033397218E+02  0.59301990237E+02  0.50000084274E+02 0.  0.
        -12    1    1    2    0    0 -0.22756329643E+01  0.26858936919E+02 -0.17033397218E+02  0.31886009763E+02  0.00000000000E+00 0.  1.
         11    1    3    3    0    0  0.73287333130E+01 -0.12411523523E+02  0.59788694968E-01  0.14413876061E+02  0.51100000000E-03 0. -1.
        -11    1    3    3    0    0 -0.18901114907E+02 -0.19131830583E+02  0.11961156951E+02  0.29433796256E+02  0.51100000000E-03 0.  1.
        -12    1    3    3    0    0  0.13848014559E+02  0.46844171874E+01  0.50124515728E+01  0.15454317920E+02  0.00000000000E+00 0.  1.
</event>
<event>
 7    1  0.1096439E-011  0.5930194E+02  0.7816164E-02  0.1266605E+00
        -11   -1    0    0    0    0  0.00000000000E+00  0.00000000000E+00  0.45593999997E+02  0.45594000000E+02  0.51100000000E-03 0.  1.
         11   -1    0    0    0    0 -0.00000000000E+00 -0.00000000000E+00 -0.45593999997E+02  0.45594000000E+02  0.51100000000E-03 0. -1.
    9900012    2    1    2    0    0 -0.21598902314E+02  0.19121286213E+02 -0.13586200913E+02  0.59301936855E+02  0.49999986919E+02 0.  0.
        -12    1    1    2    0    0  0.21598902314E+02 -0.19121286213E+02  0.13586200913E+02  0.31886063145E+02  0.00000000000E+00 0.  1.
         11    1    3    3    0    0 -0.73861656158E+01  0.13177978922E+02 -0.80847190367E+01  0.17134096216E+02  0.51100000000E-03 0. -1.
        -11    1    3    3    0    0  0.13571904769E+02  0.24134116349E+01 -0.12907187101E+01  0.13845111405E+02  0.51100000000E-03 0.  1.
        -12    1    3    3    0    0 -0.27784641467E+02  0.35298956565E+01 -0.42107631664E+01  0.28322729234E+02  0.00000000000E+00 0.  1.
</event>
<event>
 7    1  0.1096439E-011  0.5930198E+02  0.7816164E-02  0.1266605E+00
        -11   -1    0    0    0    0  0.00000000000E+00  0.00000000000E+00  0.45593999997E+02  0.45594000000E+02  0.51100000000E-03 0.  1.
         11   -1    0    0    0    0 -0.00000000000E+00 -0.00000000000E+00 -0.45593999997E+02  0.45594000000E+02  0.51100000000E-03 0. -1.
    9900012    2    1    2    0    0  0.16560958907E+02 -0.74349781631E+01 -0.26214009943E+02  0.59301975201E+02  0.50000056853E+02 0.  0.
        -12    1    1    2    0    0 -0.16560958907E+02  0.74349781631E+01  0.26214009943E+02  0.31886024799E+02  0.00000000000E+00 0.  1.
         11    1    3    3    0    0  0.20406212797E+02 -0.12391016909E+01 -0.26767017201E+02  0.33681183230E+02  0.51100000000E-03 0. -1.
        -11    1    3    3    0    0  0.72963538416E+01  0.60943505181E-01  0.80025228076E+01  0.10829629035E+02  0.51100000000E-03 0.  1.
         12    1    3    3    0    0 -0.11141607731E+02 -0.62568199774E+01 -0.74495155495E+01  0.14791162936E+02  0.00000000000E+00 0. -1.
</event>
<event>
 7    1  0.1096439E-011  0.5930195E+02  0.7816164E-02  0.1266605E+00
        -11   -1    0    0    0    0  0.00000000000E+00  0.00000000000E+00  0.45593999997E+02  0.45594000000E+02  0.51100000000E-03 0.  1.
         11   -1    0    0    0    0 -0.00000000000E+00 -0.00000000000E+00 -0.45593999997E+02  0.45594000000E+02  0.51100000000E-03 0. -1.
    9900012    2    1    2    0    0 -0.16945369041E+02 -0.10685650029E+02 -0.24807089370E+02  0.59301947696E+02  0.50000006691E+02 0.  0.
        -12    1    1    2    0    0  0.16945369041E+02  0.10685650029E+02  0.24807089370E+02  0.31886052304E+02  0.00000000000E+00 0.  1.
         11    1    3    3    0    0 -0.26221434914E+01 -0.18236933257E+02 -0.26143922071E+02  0.31983840180E+02  0.51100000000E-03 0. -1.
        -11    1    3    3    0    0  0.81328127515E-01  0.11793197230E+02  0.31126122964E+01  0.12197314078E+02  0.51100000000E-03 0.  1.
        -12    1    3    3    0    0 -0.14404553677E+02 -0.42419140009E+01 -0.17757795957E+01  0.15120793438E+02  0.00000000000E+00 0.  1.
</event>
<event>
 7    1  0.1096439E-011  0.5930198E+02  0.7816164E-02  0.1266605E+00
        -11   -1    0    0    0    0  0.00000000000E+00  0.00000000000E+00  0.45593999997E+02  0.45594000000E+02  0.51100000000E-03 0.  1.
         11   -1    0    0    0    0 -0.00000000000E+00 -0.00000000000E+00 -0.45593999997E+02  0.45594000000E+02  0.51100000000E-03 0. -1.
    9900012    2    1    2    0    0 -0.16016179670E+01 -0.23382612181E+02 -0.21619589683E+02  0.59301978132E+02  0.50000062197E+02 0.  0.
        -12    1    1    2    0    0  0.16016179670E+01  0.23382612181E+02  0.21619589683E+02  0.31886021868E+02  0.00000000000E+00 0.  1.
         11    1    3    3    0    0 -0.12452601236E+02 -0.38761967587E+01  0.94718496968E+01  0.16118564322E+02  0.51100000000E-03 0. -1.
        -11    1    3    3    0    0  0.75441685224E+01 -0.23070526465E+02 -0.21479949134E+02  0.32412218146E+02  0.51100000000E-03 0.  1.
         12    1    3    3    0    0  0.33068147464E+01  0.35641110425E+01 -0.96114902458E+01  0.10771195664E+02  0.00000000000E+00 0. -1.
</event>
<event>
 7    1  0.1096439E-011  0.5930193E+02  0.7816164E-02  0.1266605E+00
        -11   -1    0    0    0    0  0.00000000000E+00  0.00000000000E+00  0.45593999997E+02  0.45594000000E+02  0.51100000000E-03 0.  1.
         11   -1    0    0    0    0 -0.00000000000E+00 -0.00000000000E+00 -0.45593999997E+02  0.45594000000E+02  0.51100000000E-03 0. -1.
    9900012    2    1    2    0    0  0.65631872727E+01  0.21239341675E+01 -0.31130928729E+02  0.59301933340E+02  0.49999980508E+02 0.  0.
        -12    1    1    2    0    0 -0.65631872727E+01 -0.21239341675E+01  0.31130928729E+02  0.31886066660E+02  0.00000000000E+00 0.  1.
         11    1    3    3    0    0  0.19118402947E+02  0.15143685475E+02 -0.30667147968E+02  0.39183140581E+02  0.51100000000E-03 0. -1.
        -11    1    3    3    0    0 -0.13653298941E+02 -0.11542733674E+02  0.78291782368E+00  0.17895816081E+02  0.51100000000E-03 0.  1.
        -12    1    3    3    0    0  0.10980832661E+01 -0.14770176335E+01 -0.12466985844E+01  0.22229766777E+01  0.00000000000E+00 0.  1.
</event>
<event>
 7    1  0.1096439E-011  0.5930229E+02  0.7816164E-02  0.1266604E+00
        -11   -1    0    0    0    0  0.00000000000E+00  0.00000000000E+00  0.45593999997E+02  0.45594000000E+02  0.51100000000E-03 0.  1.
         11   -1    0    0    0    0 -0.00000000000E+00 -0.00000000000E+00 -0.45593999997E+02  0.45594000000E+02  0.51100000000E-03 0. -1.
    9900012    2    1    2    0    0  0.27502120192E+02 -0.39917989301E+01 -0.15633212645E+02  0.59302291424E+02  0.50000633564E+02 0.  0.
        -12    1    1    2    0    0 -0.27502120192E+02  0.39917989301E+01  0.15633212645E+02  0.31885708576E+02  0.00000000000E+00 0.  1.
         11    1    3    3    0    0  0.12552955371E+02  0.13810189933E+02 -0.25186069684E+02  0.31347027625E+02  0.51100000000E-03 0.  1.
        -11    1    3    3    0    0  0.99578451754E+01 -0.92114956158E+01  0.11556097626E+02  0.17820037167E+02  0.51100000000E-03 0. -1.
        -12    1    3    3    0    0  0.49913196462E+01 -0.85904932471E+01 -0.20032405877E+01  0.10135226632E+02  0.00000000000E+00 0.  1.
</event>
<event>
 7    1  0.1096439E-011  0.5930194E+02  0.7816164E-02  0.1266605E+00
        -11   -1    0    0    0    0  0.00000000000E+00  0.00000000000E+00  0.45593999997E+02  0.45594000000E+02  0.51100000000E-03 0. -1.
         11   -1    0    0    0    0 -0.00000000000E+00 -0.00000000000E+00 -0.45593999997E+02  0.45594000000E+02  0.51100000000E-03 0.  1.
    9900012    2    1    2    0    0  0.16489456629E+01  0.21273357106E+01  0.31772256107E+02  0.59301939767E+02  0.49999992230E+02 0.  0.
        -12    1    1    2    0    0 -0.16489456629E+01 -0.21273357106E+01 -0.31772256107E+02  0.31886060233E+02  0.00000000000E+00 0.  1.
         11    1    3    3    0    0  0.37488531430E+01  0.13145855846E+02  0.28338698617E+02  0.31463459208E+02  0.51100000000E-03 0. -1.
        -11    1    3    3    0    0  0.68821225820E+01 -0.15799336995E+02  0.38377369767E+01  0.17655335910E+02  0.51100000000E-03 0.  1.
        -12    1    3    3    0    0 -0.89820300621E+01  0.47808168603E+01 -0.40417948601E+00  0.10183144649E+02  0.00000000000E+00 0.  1.
</event>
<event>
 7    1  0.1223828E-011  0.5930194E+02  0.7816164E-02  0.1266605E+00
        -11   -1    0    0    0    0  0.00000000000E+00  0.00000000000E+00  0.45593999997E+02  0.45594000000E+02  0.51100000000E-03 0.  1.
         11   -1    0    0    0    0 -0.00000000000E+00 -0.00000000000E+00 -0.45593999997E+02  0.45594000000E+02  0.51100000000E-03 0. -1.
    9900012    2    1    2    0    0  0.29102973794E+02 -0.24717090621E+01 -0.12791725456E+02  0.59301942397E+02  0.49999997026E+02 0.  0.
        -12    1    1    2    0    0 -0.29102973794E+02  0.24717090621E+01  0.12791725456E+02  0.31886057603E+02  0.00000000000E+00 0.  1.
         11    1    3    3    0    0  0.16159494188E+02  0.29582091948E+01 -0.27245458054E+02  0.31815015934E+02  0.51100000000E-03 0.  1.
        -11    1    3    3    0    0  0.10715421233E+02  0.40552034096E+01  0.13486015844E+02  0.17695692993E+02  0.51100000000E-03 0. -1.
        -12    1    3    3    0    0  0.22280583729E+01 -0.94851216666E+01  0.96771675440E+00  0.97912334698E+01  0.00000000000E+00 0.  1.
</event>
<event>
 7    1  0.1096439E-011  0.5930193E+02  0.7816164E-02  0.1266605E+00
        -11   -1    0    0    0    0  0.00000000000E+00  0.00000000000E+00  0.45593999997E+02  0.45594000000E+02  0.51100000000E-03 0.  1.
         11   -1    0    0    0    0 -0.00000000000E+00 -0.00000000000E+00 -0.45593999997E+02  0.45594000000E+02  0.51100000000E-03 0. -1.
    9900012    2    1    2    0    0 -0.17384057663E+02 -0.44759957822E+01 -0.26353011736E+02  0.59301933660E+02  0.49999981091E+02 0.  0.
        -12    1    1    2    0    0  0.17384057663E+02  0.44759957822E+01  0.26353011736E+02  0.31886066340E+02  0.00000000000E+00 0.  1.
         11    1    3    3    0    0 -0.19565481371E+02  0.68704661576E+01  0.40873201959E+01  0.21135693818E+02  0.51100000000E-03 0.  1.
        -11    1    3    3    0    0  0.96894621079E+00  0.35798492284E+01 -0.18898966321E+02  0.19259416022E+02  0.51100000000E-03 0. -1.
         12    1    3    3    0    0  0.12124774978E+01 -0.14926311168E+02 -0.11541365611E+02  0.18906823820E+02  0.00000000000E+00 0. -1.
</event>
<event>
 7    1  0.1096439E-011  0.5930195E+02  0.7816164E-02  0.1266605E+00
        -11   -1    0    0    0    0  0.00000000000E+00  0.00000000000E+00  0.45593999997E+02  0.45594000000E+02  0.51100000000E-03 0.  1.
         11   -1    0    0    0    0 -0.00000000000E+00 -0.00000000000E+00 -0.45593999997E+02  0.45594000000E+02  0.51100000000E-03 0. -1.
    9900012    2    1    2    0    0  0.65545403329E+01 -0.80690556027E+01 -0.30143802321E+02  0.59301945436E+02  0.50000002568E+02 0.  0.
        -12    1    1    2    0    0 -0.65545403329E+01  0.80690556027E+01  0.30143802321E+02  0.31886054564E+02  0.00000000000E+00 0.  1.
         11    1    3    3    0    0 -0.79952763714E+01 -0.24793249928E+01 -0.28263784907E+02  0.29477330853E+02  0.51100000000E-03 0. -1.
        -11    1    3    3    0    0  0.17092667639E+02  0.58339325396E+01 -0.10097706135E+01  0.18089048976E+02  0.51100000000E-03 0.  1.
         12    1    3    3    0    0 -0.25428509346E+01 -0.11423663149E+02 -0.87024680072E+00  0.11735565607E+02  0.00000000000E+00 0. -1.
</event>
<event>
 7    1  0.1096439E-011  0.5930199E+02  0.7816164E-02  0.1266605E+00
        -11   -1    0    0    0    0  0.00000000000E+00  0.00000000000E+00  0.45593999997E+02  0.45594000000E+02  0.51100000000E-03 0.  1.
         11   -1    0    0    0    0 -0.00000000000E+00 -0.00000000000E+00 -0.45593999997E+02  0.45594000000E+02  0.51100000000E-03 0. -1.
    9900012    2    1    2    0    0 -0.14168066742E+02  0.24408108796E+01 -0.28460957151E+02  0.59301988100E+02  0.50000080377E+02 0.  0.
        -12    1    1    2    0    0  0.14168066742E+02 -0.24408108796E+01  0.28460957151E+02  0.31886011900E+02  0.00000000000E+00 0.  1.
         11    1    3    3    0    0 -0.17518880149E+02 -0.33751261297E+01 -0.34717797240E+02  0.39033678837E+02  0.51100000000E-03 0. -1.
        -11    1    3    3    0    0 -0.69554133045E+01  0.39535693554E+01  0.56173937760E+01  0.97756635570E+01  0.51100000000E-03 0.  1.
         12    1    3    3    0    0  0.10306226712E+02  0.18623676540E+01  0.63944631317E+00  0.10492645706E+02  0.00000000000E+00 0. -1.
</event>
<event>
 7    1  0.1096439E-011  0.5930195E+02  0.7816164E-02  0.1266605E+00
        -11   -1    0    0    0    0  0.00000000000E+00  0.00000000000E+00  0.45593999997E+02  0.45594000000E+02  0.51100000000E-03 0. -1.
         11   -1    0    0    0    0 -0.00000000000E+00 -0.00000000000E+00 -0.45593999997E+02  0.45594000000E+02  0.51100000000E-03 0.  1.
    9900012    2    1    2    0    0 -0.19711097298E+02 -0.16278884993E+02  0.19057569443E+02  0.59301946522E+02  0.50000004550E+02 0.  0.
        -12    1    1    2    0    0  0.19711097298E+02  0.16278884993E+02 -0.19057569443E+02  0.31886053478E+02  0.00000000000E+00 0.  1.
         11    1    3    3    0    0 -0.71232120889E+01  0.16375361676E+02  0.56585731741E+01  0.18732647200E+02  0.51100000000E-03 0. -1.
        -11    1    3    3    0    0 -0.14408014180E+02 -0.19218240298E+02  0.12247685846E+02  0.26961777419E+02  0.51100000000E-03 0.  1.
         12    1    3    3    0    0  0.18201289705E+01 -0.13436006371E+02  0.11513104231E+01  0.13607521903E+02  0.00000000000E+00 0. -1.
</event>
<event>
 7    1  0.1096439E-011  0.5930193E+02  0.7816164E-02  0.1266605E+00
        -11   -1    0    0    0    0  0.00000000000E+00  0.00000000000E+00  0.45593999997E+02  0.45594000000E+02  0.51100000000E-03 0.  1.
         11   -1    0    0    0    0 -0.00000000000E+00 -0.00000000000E+00 -0.45593999997E+02  0.45594000000E+02  0.51100000000E-03 0. -1.
    9900012    2    1    2    0    0  0.28312920925E+02  0.67758868718E+01 -0.13007195630E+02  0.59301932943E+02  0.49999979784E+02 0.  0.
        -12    1    1    2    0    0 -0.28312920925E+02 -0.67758868718E+01  0.13007195630E+02  0.31886067057E+02  0.00000000000E+00 0.  1.
         11    1    3    3    0    0  0.26903887022E+02  0.21151483989E+02 -0.13519364131E+02  0.36796434863E+02  0.51100000000E-03 0. -1.
        -11    1    3    3    0    0 -0.45561494857E+01 -0.49312527132E+00  0.49615900564E+01  0.67541873544E+01  0.51100000000E-03 0.  1.
         12    1    3    3    0    0  0.59651833881E+01 -0.13882471846E+02 -0.44494215562E+01  0.15751310726E+02  0.00000000000E+00 0. -1.
</event>
<event>
 7    1  0.1096439E-011  0.5930196E+02  0.7816164E-02  0.1266605E+00
        -11   -1    0    0    0    0  0.00000000000E+00  0.00000000000E+00  0.45593999997E+02  0.45594000000E+02  0.51100000000E-03 0. -1.
         11   -1    0    0    0    0 -0.00000000000E+00 -0.00000000000E+00 -0.45593999997E+02  0.45594000000E+02  0.51100000000E-03 0.  1.
    9900012    2    1    2    0    0 -0.99367709092E+01  0.14825251873E+02  0.26423322866E+02  0.59301960727E+02  0.50000030456E+02 0.  0.
        -12    1    1    2    0    0  0.99367709092E+01 -0.14825251873E+02 -0.26423322866E+02  0.31886039273E+02  0.00000000000E+00 0.  1.
         11    1    3    3    0    0 -0.85358197453E+01  0.98421128871E+01  0.18094665264E+02  0.22296733306E+02  0.51100000000E-03 0. -1.
        -11    1    3    3    0    0  0.97529524062E+01 -0.64063271897E+01 -0.80291335611E+01  0.14164324718E+02  0.51100000000E-03 0.  1.
        -12    1    3    3    0    0 -0.11153903570E+02  0.11389466176E+02  0.16357791163E+02  0.22840902704E+02  0.00000000000E+00 0.  1.
</event>
<event>
 7    1  0.1096439E-011  0.5930194E+02  0.7816164E-02  0.1266605E+00
        -11   -1    0    0    0    0  0.00000000000E+00  0.00000000000E+00  0.45593999997E+02  0.45594000000E+02  0.51100000000E-03 0.  1.
         11   -1    0    0    0    0 -0.00000000000E+00 -0.00000000000E+00 -0.45593999997E+02  0.45594000000E+02  0.51100000000E-03 0. -1.
    9900012    2    1    2    0    0  0.24411257410E+02  0.69091666894E+01 -0.19315148024E+02  0.59301936965E+02  0.49999987119E+02 0.  0.
        -12    1    1    2    0    0 -0.24411257410E+02 -0.69091666894E+01  0.19315148024E+02  0.31886063035E+02  0.00000000000E+00 0.  1.
         11    1    3    3    0    0  0.85642787840E+01 -0.17566072286E+02 -0.20589449202E+02  0.28387306765E+02  0.51100000000E-03 0. -1.
        -11    1    3    3    0    0  0.11743974530E+02  0.10456519259E+02  0.35802038872E+01  0.16126921372E+02  0.51100000000E-03 0.  1.
         12    1    3    3    0    0  0.41030040956E+01  0.14018719717E+02 -0.23059027099E+01  0.14787708829E+02  0.00000000000E+00 0. -1.
</event>
<event>
 7    1  0.1096439E-011  0.5930209E+02  0.7816164E-02  0.1266604E+00
        -11   -1    0    0    0    0  0.00000000000E+00  0.00000000000E+00  0.45593999997E+02  0.45594000000E+02  0.51100000000E-03 0.  1.
         11   -1    0    0    0    0 -0.00000000000E+00 -0.00000000000E+00 -0.45593999997E+02  0.45594000000E+02  0.51100000000E-03 0. -1.
    9900012    2    1    2    0    0  0.21651593089E+02  0.77101553314E+01 -0.22101429944E+02  0.59302091135E+02  0.50000268288E+02 0.  0.
        -12    1    1    2    0    0 -0.21651593089E+02 -0.77101553314E+01  0.22101429944E+02  0.31885908865E+02  0.00000000000E+00 0.  1.
         11    1    3    3    0    0  0.20873641731E+02  0.18516929549E+02 -0.31650325304E+02  0.42193941403E+02  0.51100000000E-03 0. -1.
        -11    1    3    3    0    0  0.26343681668E+01 -0.53094849082E+01  0.96270567973E+01  0.11305341590E+02  0.51100000000E-03 0.  1.
         12    1    3    3    0    0 -0.18564168088E+01 -0.54972893097E+01 -0.78161438088E-01  0.58028081420E+01  0.00000000000E+00 0. -1.
</event>
<event>
 7    1  0.1096439E-011  0.5930208E+02  0.7816164E-02  0.1266604E+00
        -11   -1    0    0    0    0  0.00000000000E+00  0.00000000000E+00  0.45593999997E+02  0.45594000000E+02  0.51100000000E-03 0. -1.
         11   -1    0    0    0    0 -0.00000000000E+00 -0.00000000000E+00 -0.45593999997E+02  0.45594000000E+02  0.51100000000E-03 0.  1.
    9900012    2    1    2    0    0  0.28525639028E+02 -0.13259644151E+02 -0.52136250493E+01  0.59302076286E+02  0.50000241207E+02 0.  0.
        -12    1    1    2    0    0 -0.28525639028E+02  0.13259644151E+02  0.52136250493E+01  0.31885923714E+02  0.00000000000E+00 0.  1.
         11    1    3    3    0    0 -0.75841282920E+00  0.37577380201E+01  0.82423917043E+01  0.90902588695E+01  0.51100000000E-03 0. -1.
        -11    1    3    3    0    0  0.34216419343E+02 -0.84085141210E+01 -0.17688251684E+02  0.39425127904E+02  0.51100000000E-03 0.  1.
        -12    1    3    3    0    0 -0.49323674865E+01 -0.86088680501E+01  0.42322349301E+01  0.10786689512E+02  0.00000000000E+00 0.  1.
</event>
<event>
 7    1  0.1096439E-011  0.5930184E+02  0.7816164E-02  0.1266605E+00
        -11   -1    0    0    0    0  0.00000000000E+00  0.00000000000E+00  0.45593999997E+02  0.45594000000E+02  0.51100000000E-03 0. -1.
         11   -1    0    0    0    0 -0.00000000000E+00 -0.00000000000E+00 -0.45593999997E+02  0.45594000000E+02  0.51100000000E-03 0.  1.
    9900012    2    1    2    0    0 -0.22236972140E+02 -0.19377838973E+02  0.12113777854E+02  0.59301840195E+02  0.49999810633E+02 0.  0.
        -12    1    1    2    0    0  0.22236972140E+02  0.19377838973E+02 -0.12113777854E+02  0.31886159805E+02  0.00000000000E+00 0.  1.
         11    1    3    3    0    0 -0.49073903977E+00 -0.25610884973E+01  0.15128608407E+02  0.15351703218E+02  0.51100000000E-03 0. -1.
        -11    1    3    3    0    0 -0.27743368382E+02 -0.10538060346E+02 -0.11483297526E+02  0.31821554446E+02  0.51100000000E-03 0.  1.
        -12    1    3    3    0    0  0.59971352811E+01 -0.62786901304E+01  0.84684669734E+01  0.12128582531E+02  0.00000000000E+00 0.  1.
</event>
<event>
 7    1  0.1096439E-011  0.5930193E+02  0.7816164E-02  0.1266605E+00
        -11   -1    0    0    0    0  0.00000000000E+00  0.00000000000E+00  0.45593999997E+02  0.45594000000E+02  0.51100000000E-03 0.  1.
         11   -1    0    0    0    0 -0.00000000000E+00 -0.00000000000E+00 -0.45593999997E+02  0.45594000000E+02  0.51100000000E-03 0. -1.
    9900012    2    1    2    0    0  0.18683109484E+02 -0.25646521553E+02 -0.31494079773E+01  0.59301930653E+02  0.49999975609E+02 0.  0.
        -12    1    1    2    0    0 -0.18683109484E+02  0.25646521553E+02  0.31494079773E+01  0.31886069347E+02  0.00000000000E+00 0.  1.
         11    1    3    3    0    0  0.26846922080E+02 -0.30849365717E+02 -0.68902586636E+01  0.41471873059E+02  0.51100000000E-03 0. -1.
        -11    1    3    3    0    0  0.31673505616E+01  0.24075972225E+01  0.46549174452E+01  0.61234704743E+01  0.51100000000E-03 0.  1.
         12    1    3    3    0    0 -0.11331163158E+02  0.27952469410E+01 -0.91406675895E+00  0.11706587120E+02  0.00000000000E+00 0. -1.
</event>
<event>
 7    1  0.1096439E-011  0.5930189E+02  0.7816164E-02  0.1266605E+00
        -11   -1    0    0    0    0  0.00000000000E+00  0.00000000000E+00  0.45593999997E+02  0.45594000000E+02  0.51100000000E-03 0. -1.
         11   -1    0    0    0    0 -0.00000000000E+00 -0.00000000000E+00 -0.45593999997E+02  0.45594000000E+02  0.51100000000E-03 0.  1.
    9900012    2    1    2    0    0 -0.21203316860E+02  0.23090795077E+02 -0.58273904771E+01  0.59301891066E+02  0.49999903411E+02 0.  0.
        -12    1    1    2    0    0  0.21203316860E+02 -0.23090795077E+02  0.58273904771E+01  0.31886108934E+02  0.00000000000E+00 0.  1.
         11    1    3    3    0    0 -0.30452530443E+01  0.25662428878E+02 -0.10164651531E+02  0.27769659037E+02  0.51100000000E-03 0.  1.
        -11    1    3    3    0    0 -0.51661717305E+01 -0.12527522779E+02  0.64872006292E+01  0.15023712244E+02  0.51100000000E-03 0. -1.
        -12    1    3    3    0    0 -0.12991892085E+02  0.99558889782E+01 -0.21499395748E+01  0.16508519785E+02  0.00000000000E+00 0.  1.
</event>
<event>
 7    1  0.1096439E-011  0.5930193E+02  0.7816164E-02  0.1266605E+00
        -11   -1    0    0    0    0  0.00000000000E+00  0.00000000000E+00  0.45593999997E+02  0.45594000000E+02  0.51100000000E-03 0. -1.
         11   -1    0    0    0    0 -0.00000000000E+00 -0.00000000000E+00 -0.45593999997E+02  0.45594000000E+02  0.51100000000E-03 0.  1.
    9900012    2    1    2    0    0 -0.22432307074E+02 -0.84261852767E+01  0.21035982573E+02  0.59301928405E+02  0.49999971507E+02 0.  0.
        -12    1    1    2    0    0  0.22432307074E+02  0.84261852767E+01 -0.21035982573E+02  0.31886071595E+02  0.00000000000E+00 0.  1.
         11    1    3    3    0    0 -0.21281340748E+02  0.11631249548E+02 -0.63984543846E+01  0.25082297520E+02  0.51100000000E-03 0.  1.
        -11    1    3    3    0    0  0.54339296566E+00 -0.10548750171E+02  0.16884205456E+02  0.19916018685E+02  0.51100000000E-03 0. -1.
        -12    1    3    3    0    0 -0.16943592917E+01 -0.95086846539E+01  0.10550231501E+02  0.14303612200E+02  0.00000000000E+00 0.  1.
</event>
<event>
 7    1  0.1096439E-011  0.5930192E+02  0.7816164E-02  0.1266605E+00
        -11   -1    0    0    0    0  0.00000000000E+00  0.00000000000E+00  0.45593999997E+02  0.45594000000E+02  0.51100000000E-03 0. -1.
         11   -1    0    0    0    0 -0.00000000000E+00 -0.00000000000E+00 -0.45593999997E+02  0.45594000000E+02  0.51100000000E-03 0.  1.
    9900012    2    1    2    0    0 -0.21373126878E+02  0.19228310650E+02  0.13790700499E+02  0.59301923050E+02  0.49999961742E+02 0.  0.
        -12    1    1    2    0    0  0.21373126878E+02 -0.19228310650E+02 -0.13790700499E+02  0.31886076950E+02  0.00000000000E+00 0.  1.
         11    1    3    3    0    0 -0.50764482942E+00  0.17587233713E+02  0.23941269333E+02  0.29711157340E+02  0.51100000000E-03 0. -1.
        -11    1    3    3    0    0 -0.16327739592E+02 -0.63965574621E+01 -0.10342374004E+02  0.20358676967E+02  0.51100000000E-03 0.  1.
        -12    1    3    3    0    0 -0.45377424561E+01  0.80376343992E+01  0.19180517003E+00  0.92320887429E+01  0.00000000000E+00 0.  1.
</event>
<event>
 7    1  0.1096439E-011  0.5930198E+02  0.7816164E-02  0.1266605E+00
        -11   -1    0    0    0    0  0.00000000000E+00  0.00000000000E+00  0.45593999997E+02  0.45594000000E+02  0.51100000000E-03 0.  1.
         11   -1    0    0    0    0 -0.00000000000E+00 -0.00000000000E+00 -0.45593999997E+02  0.45594000000E+02  0.51100000000E-03 0. -1.
    9900012    2    1    2    0    0 -0.74303723579E+01  0.20299195088E+02 -0.23440355928E+02  0.59301983619E+02  0.50000072205E+02 0.  0.
        -12    1    1    2    0    0  0.74303723579E+01 -0.20299195088E+02  0.23440355928E+02  0.31886016381E+02  0.00000000000E+00 0.  1.
         11    1    3    3    0    0 -0.10918949311E+02  0.98984926305E+01 -0.58763265040E+01  0.15866153404E+02  0.51100000000E-03 0. -1.
        -11    1    3    3    0    0  0.41257262917E+01  0.22288851970E+01  0.11932908926E+02  0.12821227022E+02  0.51100000000E-03 0.  1.
        -12    1    3    3    0    0 -0.63714933896E+00  0.81718172602E+01 -0.29496938350E+02  0.30614603193E+02  0.00000000000E+00 0.  1.
</event>
<event>
 7    1  0.1096439E-011  0.5930195E+02  0.7816164E-02  0.1266605E+00
        -11   -1    0    0    0    0  0.00000000000E+00  0.00000000000E+00  0.45593999997E+02  0.45594000000E+02  0.51100000000E-03 0. -1.
         11   -1    0    0    0    0 -0.00000000000E+00 -0.00000000000E+00 -0.45593999997E+02  0.45594000000E+02  0.51100000000E-03 0.  1.
    9900012    2    1    2    0    0  0.23067330984E+02 -0.21633196010E+02  0.40771553444E+01  0.59301950950E+02  0.50000012624E+02 0.  0.
        -12    1    1    2    0    0 -0.23067330984E+02  0.21633196010E+02 -0.40771553444E+01  0.31886049050E+02  0.00000000000E+00 0.  1.
         11    1    3    3    0    0  0.12537103925E+02 -0.87259739563E+01  0.18947252306E+02  0.24337624504E+02  0.51100000000E-03 0. -1.
        -11    1    3    3    0    0 -0.83219624253E+00 -0.17746498166E+02 -0.13934746675E+02  0.22578926301E+02  0.51100000000E-03 0.  1.
         12    1    3    3    0    0  0.11362423302E+02  0.48392761122E+01 -0.93535028687E+00  0.12385400144E+02  0.00000000000E+00 0. -1.
</event>
<event>
 7    1  0.1096439E-011  0.5930195E+02  0.7816164E-02  0.1266605E+00
        -11   -1    0    0    0    0  0.00000000000E+00  0.00000000000E+00  0.45593999997E+02  0.45594000000E+02  0.51100000000E-03 0.  1.
         11   -1    0    0    0    0 -0.00000000000E+00 -0.00000000000E+00 -0.45593999997E+02  0.45594000000E+02  0.51100000000E-03 0. -1.
    9900012    2    1    2    0    0 -0.23727542387E+02  0.21267322244E+02 -0.11936004237E+01  0.59301953755E+02  0.50000017741E+02 0.  0.
        -12    1    1    2    0    0  0.23727542387E+02 -0.21267322244E+02  0.11936004237E+01  0.31886046245E+02  0.00000000000E+00 0.  1.
         11    1    3    3    0    0  0.10208306184E+02  0.11404938173E+02  0.78274443221E+01  0.17191597213E+02  0.51100000000E-03 0.  1.
        -11    1    3    3    0    0 -0.17791691495E+02  0.74029486280E+01 -0.15308937923E+02  0.24611207107E+02  0.51100000000E-03 0. -1.
         12    1    3    3    0    0 -0.16144157075E+02  0.24594354429E+01  0.62878931772E+01  0.17499149436E+02  0.00000000000E+00 0. -1.
</event>
<event>
 7    1  0.1096439E-011  0.5930194E+02  0.7816164E-02  0.1266605E+00
        -11   -1    0    0    0    0  0.00000000000E+00  0.00000000000E+00  0.45593999997E+02  0.45594000000E+02  0.51100000000E-03 0.  1.
         11   -1    0    0    0    0 -0.00000000000E+00 -0.00000000000E+00 -0.45593999997E+02  0.45594000000E+02  0.51100000000E-03 0. -1.
    9900012    2    1    2    0    0  0.19340533526E+02 -0.15161264152E+02 -0.20317490962E+02  0.59301943380E+02  0.49999998820E+02 0.  0.
        -12    1    1    2    0    0 -0.19340533526E+02  0.15161264152E+02  0.20317490962E+02  0.31886056620E+02  0.00000000000E+00 0.  1.
         11    1    3    3    0    0 -0.46787504032E+01 -0.25754958990E+02 -0.17434251436E+02  0.31450941819E+02  0.51100000000E-03 0. -1.
        -11    1    3    3    0    0  0.23448148803E+02  0.11195547172E+02 -0.41736874602E+01  0.26316831611E+02  0.51100000000E-03 0.  1.
        -12    1    3    3    0    0  0.57113512618E+00 -0.60185233412E+00  0.12904479342E+01  0.15341699500E+01  0.00000000000E+00 0.  1.
</event>
<event>
 7    1  0.1096439E-011  0.5930196E+02  0.7816164E-02  0.1266605E+00
        -11   -1    0    0    0    0  0.00000000000E+00  0.00000000000E+00  0.45593999997E+02  0.45594000000E+02  0.51100000000E-03 0. -1.
         11   -1    0    0    0    0 -0.00000000000E+00 -0.00000000000E+00 -0.45593999997E+02  0.45594000000E+02  0.51100000000E-03 0.  1.
    9900012    2    1    2    0    0  0.19212462182E+02  0.53156740189E+01  0.24886634689E+02  0.59301957920E+02  0.50000025336E+02 0.  0.
        -12    1    1    2    0    0 -0.19212462182E+02 -0.53156740189E+01 -0.24886634689E+02  0.31886042080E+02  0.00000000000E+00 0.  1.
         11    1    3    3    0    0  0.47331776858E+01 -0.14209485420E+02  0.23013623273E+02  0.27457955192E+02  0.51100000000E-03 0. -1.
        -11    1    3    3    0    0  0.27226636075E+01  0.19829176951E+02  0.73826398722E+00  0.20028833956E+02  0.51100000000E-03 0.  1.
         12    1    3    3    0    0  0.11756620889E+02 -0.30401751199E+00  0.11347474295E+01  0.11815168772E+02  0.00000000000E+00 0. -1.
</event>
<event>
 7    1  0.1096439E-011  0.5930195E+02  0.7816164E-02  0.1266605E+00
        -11   -1    0    0    0    0  0.00000000000E+00  0.00000000000E+00  0.45593999997E+02  0.45594000000E+02  0.51100000000E-03 0.  1.
         11   -1    0    0    0    0 -0.00000000000E+00 -0.00000000000E+00 -0.45593999997E+02  0.45594000000E+02  0.51100000000E-03 0. -1.
    9900012    2    1    2    0    0  0.97406476474E+01 -0.56179826099E+01 -0.29837535454E+02  0.59301945569E+02  0.50000002811E+02 0.  0.
        -12    1    1    2    0    0 -0.97406476474E+01  0.56179826099E+01  0.29837535454E+02  0.31886054431E+02  0.00000000000E+00 0.  1.
         11    1    3    3    0    0 -0.91721766692E+01 -0.54458036498E+01  0.92890147792E+01  0.14144659702E+02  0.51100000000E-03 0. -1.
        -11    1    3    3    0    0  0.51010579594E+01  0.55539296164E+01 -0.14604353415E+02  0.16436364118E+02  0.51100000000E-03 0.  1.
         12    1    3    3    0    0  0.13811766357E+02 -0.57261085765E+01 -0.24522196819E+02  0.28720921750E+02  0.00000000000E+00 0. -1.
</event>
<event>
 7    1  0.1096439E-011  0.5930194E+02  0.7816164E-02  0.1266605E+00
        -11   -1    0    0    0    0  0.00000000000E+00  0.00000000000E+00  0.45593999997E+02  0.45594000000E+02  0.51100000000E-03 0.  1.
         11   -1    0    0    0    0 -0.00000000000E+00 -0.00000000000E+00 -0.45593999997E+02  0.45594000000E+02  0.51100000000E-03 0. -1.
    9900012    2    1    2    0    0  0.26331685378E+02 -0.11682500421E+01 -0.17944306734E+02  0.59301943374E+02  0.49999998807E+02 0.  0.
        -12    1    1    2    0    0 -0.26331685378E+02  0.11682500421E+01  0.17944306734E+02  0.31886056626E+02  0.00000000000E+00 0.  1.
         11    1    3    3    0    0  0.65553737638E+01  0.22443621543E+02 -0.15018063471E+01  0.23429564566E+02  0.51100000000E-03 0. -1.
        -11    1    3    3    0    0  0.82937647196E+01 -0.43105658619E+01 -0.59801377950E+01  0.11096375966E+02  0.51100000000E-03 0.  1.
         12    1    3    3    0    0  0.11482546895E+02 -0.19301305724E+02 -0.10462362591E+02  0.24776002842E+02  0.00000000000E+00 0. -1.
</event>
<event>
 7    1  0.1096439E-011  0.5930195E+02  0.7816164E-02  0.1266605E+00
        -11   -1    0    0    0    0  0.00000000000E+00  0.00000000000E+00  0.45593999997E+02  0.45594000000E+02  0.51100000000E-03 0. -1.
         11   -1    0    0    0    0 -0.00000000000E+00 -0.00000000000E+00 -0.45593999997E+02  0.45594000000E+02  0.51100000000E-03 0.  1.
    9900012    2    1    2    0    0 -0.17260334273E+02 -0.71720565286E+01  0.25833360269E+02  0.59301952317E+02  0.50000015117E+02 0.  0.
        -12    1    1    2    0    0  0.17260334273E+02  0.71720565286E+01 -0.25833360269E+02  0.31886047683E+02  0.00000000000E+00 0.  1.
         11    1    3    3    0    0 -0.55999947440E+01  0.63076783650E+01  0.29505767439E+02  0.30687734682E+02  0.51100000000E-03 0. -1.
        -11    1    3    3    0    0  0.19115412117E+01 -0.51140625234E+01 -0.10054539528E+02  0.11441214563E+02  0.51100000000E-03 0.  1.
         12    1    3    3    0    0 -0.13571880740E+02 -0.83656723702E+01  0.63821323587E+01  0.17173003071E+02  0.00000000000E+00 0. -1.
</event>
<event>
 7    1  0.1096439E-011  0.5930193E+02  0.7816164E-02  0.1266605E+00
        -11   -1    0    0    0    0  0.00000000000E+00  0.00000000000E+00  0.45593999997E+02  0.45594000000E+02  0.51100000000E-03 0.  1.
         11   -1    0    0    0    0 -0.00000000000E+00 -0.00000000000E+00 -0.45593999997E+02  0.45594000000E+02  0.51100000000E-03 0. -1.
    9900012    2    1    2    0    0  0.24010643719E+02 -0.92431866687E+01 -0.18835449663E+02  0.59301926619E+02  0.49999968251E+02 0.  0.
        -12    1    1    2    0    0 -0.24010643719E+02  0.92431866687E+01  0.18835449663E+02  0.31886073381E+02  0.00000000000E+00 0.  1.
         11    1    3    3    0    0  0.23709955829E+02 -0.12757993993E+02 -0.29030291275E+02  0.39594017578E+02  0.51100000000E-03 0. -1.
        -11    1    3    3    0    0 -0.17016661893E+01 -0.61147775785E+01  0.13692153822E+01  0.64931443599E+01  0.51100000000E-03 0.  1.
         12    1    3    3    0    0  0.20023540795E+01  0.96295849025E+01  0.88256262295E+01  0.13214764682E+02  0.00000000000E+00 0. -1.
</event>
<event>
 7    1  0.1096439E-011  0.5930196E+02  0.7816164E-02  0.1266605E+00
        -11   -1    0    0    0    0  0.00000000000E+00  0.00000000000E+00  0.45593999997E+02  0.45594000000E+02  0.51100000000E-03 0.  1.
         11   -1    0    0    0    0 -0.00000000000E+00 -0.00000000000E+00 -0.45593999997E+02  0.45594000000E+02  0.51100000000E-03 0. -1.
    9900012    2    1    2    0    0  0.15795880973E+02  0.21663671456E+02 -0.17259629856E+02  0.59301963253E+02  0.50000035063E+02 0.  0.
        -12    1    1    2    0    0 -0.15795880973E+02 -0.21663671456E+02  0.17259629856E+02  0.31886036747E+02  0.00000000000E+00 0.  1.
         11    1    3    3    0    0  0.12996386348E+02  0.13843536852E+01 -0.20679830629E+02  0.24463807724E+02  0.51100000000E-03 0. -1.
        -11    1    3    3    0    0 -0.98277938042E+00  0.15692195323E+02  0.15057473674E+02  0.21770125472E+02  0.51100000000E-03 0.  1.
        -12    1    3    3    0    0  0.37822740049E+01  0.45871224476E+01 -0.11637272901E+02  0.13068030057E+02  0.00000000000E+00 0.  1.
</event>
<event>
 7    1  0.1096439E-011  0.5930193E+02  0.7816164E-02  0.1266605E+00
        -11   -1    0    0    0    0  0.00000000000E+00  0.00000000000E+00  0.45593999997E+02  0.45594000000E+02  0.51100000000E-03 0. -1.
         11   -1    0    0    0    0 -0.00000000000E+00 -0.00000000000E+00 -0.45593999997E+02  0.45594000000E+02  0.51100000000E-03 0.  1.
    9900012    2    1    2    0    0  0.15884699045E+02  0.13123729658E+02  0.24334447206E+02  0.59301933063E+02  0.49999980003E+02 0.  0.
        -12    1    1    2    0    0 -0.15884699045E+02 -0.13123729658E+02 -0.24334447206E+02  0.31886066937E+02  0.00000000000E+00 0.  1.
         11    1    3    3    0    0  0.10967835684E+01  0.91987267050E+01 -0.10854347451E+02  0.14270121445E+02  0.51100000000E-03 0. -1.
        -11    1    3    3    0    0  0.20021431360E+02 -0.17332072832E+01  0.22342744361E+02  0.30050955842E+02  0.51100000000E-03 0.  1.
        -12    1    3    3    0    0 -0.52335158828E+01  0.56582102359E+01  0.12846050296E+02  0.14980855776E+02  0.00000000000E+00 0.  1.
</event>
<event>
 7    1  0.1096439E-011  0.5930192E+02  0.7816164E-02  0.1266605E+00
        -11   -1    0    0    0    0  0.00000000000E+00  0.00000000000E+00  0.45593999997E+02  0.45594000000E+02  0.51100000000E-03 0.  1.
         11   -1    0    0    0    0 -0.00000000000E+00 -0.00000000000E+00 -0.45593999997E+02  0.45594000000E+02  0.51100000000E-03 0. -1.
    9900012    2    1    2    0    0 -0.21498405388E+02  0.13080972237E+02 -0.19581341720E+02  0.59301918202E+02  0.49999952900E+02 0.  0.
        -12    1    1    2    0    0  0.21498405388E+02 -0.13080972237E+02  0.19581341720E+02  0.31886081798E+02  0.00000000000E+00 0.  1.
         11    1    3    3    0    0 -0.32790693123E+02 -0.21926922660E+00 -0.92012868919E+01  0.34057911199E+02  0.51100000000E-03 0. -1.
        -11    1    3    3    0    0  0.88155048974E+01  0.77880183679E+01  0.15559604321E+01  0.11865385363E+02  0.51100000000E-03 0.  1.
         12    1    3    3    0    0  0.24767828382E+01  0.55122230961E+01 -0.11936015260E+02  0.13378621640E+02  0.00000000000E+00 0. -1.
</event>
<event>
 7    1  0.1096439E-011  0.5930194E+02  0.7816164E-02  0.1266605E+00
        -11   -1    0    0    0    0  0.00000000000E+00  0.00000000000E+00  0.45593999997E+02  0.45594000000E+02  0.51100000000E-03 0. -1.
         11   -1    0    0    0    0 -0.00000000000E+00 -0.00000000000E+00 -0.45593999997E+02  0.45594000000E+02  0.51100000000E-03 0.  1.
    9900012    2    1    2    0    0 -0.69261128425E+01  0.30491065654E+02  0.62486009906E+01  0.59301935047E+02  0.49999983622E+02 0.  0.
        -12    1    1    2    0    0  0.69261128425E+01 -0.30491065654E+02 -0.62486009906E+01  0.31886064953E+02  0.00000000000E+00 0.  1.
         11    1    3    3    0    0 -0.21860082975E+02  0.65078538292E+01  0.17044912324E+02  0.28473574161E+02  0.51100000000E-03 0. -1.
        -11    1    3    3    0    0  0.38373904315E+01  0.11681412921E+02 -0.50646839964E+01  0.13297819273E+02  0.51100000000E-03 0.  1.
         12    1    3    3    0    0  0.11096579701E+02  0.12301798904E+02 -0.57316273374E+01  0.17530541613E+02  0.00000000000E+00 0. -1.
</event>
<event>
 7    1  0.1096439E-011  0.5930195E+02  0.7816164E-02  0.1266605E+00
        -11   -1    0    0    0    0  0.00000000000E+00  0.00000000000E+00  0.45593999997E+02  0.45594000000E+02  0.51100000000E-03 0.  1.
         11   -1    0    0    0    0 -0.00000000000E+00 -0.00000000000E+00 -0.45593999997E+02  0.45594000000E+02  0.51100000000E-03 0. -1.
    9900012    2    1    2    0    0  0.10561046343E+02 -0.29526334057E+02 -0.57775347117E+01  0.59301952737E+02  0.50000015884E+02 0.  0.
        -12    1    1    2    0    0 -0.10561046343E+02  0.29526334057E+02  0.57775347117E+01  0.31886047263E+02  0.00000000000E+00 0.  1.
         11    1    3    3    0    0  0.10115649488E+02 -0.16375859844E+02 -0.15910909542E+02  0.24973029310E+02  0.51100000000E-03 0. -1.
        -11    1    3    3    0    0  0.13769700398E+00  0.74161440265E+01  0.11533110359E+02  0.13712431859E+02  0.51100000000E-03 0.  1.
        -12    1    3    3    0    0  0.30769985155E+00 -0.20566618240E+02 -0.13997355283E+01  0.20616491568E+02  0.00000000000E+00 0.  1.
</event>
<event>
 7    1  0.1096439E-011  0.5930197E+02  0.7816164E-02  0.1266605E+00
        -11   -1    0    0    0    0  0.00000000000E+00  0.00000000000E+00  0.45593999997E+02  0.45594000000E+02  0.51100000000E-03 0.  1.
         11   -1    0    0    0    0 -0.00000000000E+00 -0.00000000000E+00 -0.45593999997E+02  0.45594000000E+02  0.51100000000E-03 0. -1.
    9900012    2    1    2    0    0 -0.26484909942E+02 -0.14540887092E+01 -0.17696160069E+02  0.59301969990E+02  0.50000047348E+02 0.  0.
        -12    1    1    2    0    0  0.26484909942E+02  0.14540887092E+01  0.17696160069E+02  0.31886030010E+02  0.00000000000E+00 0.  1.
         11    1    3    3    0    0 -0.69233071218E+01  0.16038689601E+02 -0.19424653314E+02  0.26124488555E+02  0.51100000000E-03 0. -1.
        -11    1    3    3    0    0 -0.32112621995E+00 -0.13197960849E+02  0.25521541713E+01  0.13446292567E+02  0.51100000000E-03 0.  1.
         12    1    3    3    0    0 -0.19240476600E+02 -0.42948174610E+01 -0.82366092692E+00  0.19731188868E+02  0.00000000000E+00 0. -1.
</event>
<event>
 7    1  0.1096439E-011  0.5930195E+02  0.7816164E-02  0.1266605E+00
        -11   -1    0    0    0    0  0.00000000000E+00  0.00000000000E+00  0.45593999997E+02  0.45594000000E+02  0.51100000000E-03 0. -1.
         11   -1    0    0    0    0 -0.00000000000E+00 -0.00000000000E+00 -0.45593999997E+02  0.45594000000E+02  0.51100000000E-03 0.  1.
    9900012    2    1    2    0    0 -0.19645512561E+02 -0.24928557156E+02 -0.30563343403E+01  0.59301948108E+02  0.50000007441E+02 0.  0.
        -12    1    1    2    0    0  0.19645512561E+02  0.24928557156E+02  0.30563343403E+01  0.31886051892E+02  0.00000000000E+00 0.  1.
         11    1    3    3    0    0 -0.96464536386E+01 -0.29048892582E+02  0.51325096630E+00  0.30612998136E+02  0.51100000000E-03 0.  1.
        -11    1    3    3    0    0 -0.35129461332E+00  0.11866951083E+02  0.57572452695E+01  0.13194461310E+02  0.51100000000E-03 0. -1.
        -12    1    3    3    0    0 -0.96477643096E+01 -0.77466156564E+01 -0.93268305762E+01  0.15494488662E+02  0.00000000000E+00 0.  1.
</event>
<event>
 7    1  0.1096439E-011  0.5930192E+02  0.7816164E-02  0.1266605E+00
        -11   -1    0    0    0    0  0.00000000000E+00  0.00000000000E+00  0.45593999997E+02  0.45594000000E+02  0.51100000000E-03 0.  1.
         11   -1    0    0    0    0 -0.00000000000E+00 -0.00000000000E+00 -0.45593999997E+02  0.45594000000E+02  0.51100000000E-03 0. -1.
    9900012    2    1    2    0    0  0.35190441250E+01  0.30859761993E+02 -0.72120191438E+01  0.59301924638E+02  0.49999964639E+02 0.  0.
        -12    1    1    2    0    0 -0.35190441250E+01 -0.30859761993E+02  0.72120191438E+01  0.31886075362E+02  0.00000000000E+00 0.  1.
         11    1    3    3    0    0 -0.19409442053E+02  0.72355479644E+01  0.63925350185E+01  0.21678194098E+02  0.51100000000E-03 0. -1.
        -11    1    3    3    0    0  0.87392817241E+01  0.12778034030E+02 -0.53026417146E+00  0.15489815334E+02  0.51100000000E-03 0.  1.
         12    1    3    3    0    0  0.14189204454E+02  0.10846179999E+02 -0.13074289991E+02  0.22133915206E+02  0.00000000000E+00 0. -1.
</event>
<event>
 7    1  0.1096439E-011  0.5930194E+02  0.7816164E-02  0.1266605E+00
        -11   -1    0    0    0    0  0.00000000000E+00  0.00000000000E+00  0.45593999997E+02  0.45594000000E+02  0.51100000000E-03 0. -1.
         11   -1    0    0    0    0 -0.00000000000E+00 -0.00000000000E+00 -0.45593999997E+02  0.45594000000E+02  0.51100000000E-03 0.  1.
    9900012    2    1    2    0    0  0.10070028585E+02  0.82557551421E+01  0.29105979481E+02  0.59301937054E+02  0.49999987282E+02 0.  0.
        -12    1    1    2    0    0 -0.10070028585E+02 -0.82557551421E+01 -0.29105979481E+02  0.31886062946E+02  0.00000000000E+00 0.  1.
         11    1    3    3    0    0  0.19276237663E+02  0.13640086282E+01  0.38212135228E+02  0.42820569087E+02  0.51100000000E-03 0. -1.
        -11    1    3    3    0    0 -0.67343114729E+01  0.62759309815E+01 -0.27090352781E+01  0.95956830449E+01  0.51100000000E-03 0.  1.
         12    1    3    3    0    0 -0.24718976054E+01  0.61581553236E+00 -0.63971204695E+01  0.68856849218E+01  0.00000000000E+00 0. -1.
</event>
<event>
 7    1  0.1096439E-011  0.5930193E+02  0.7816164E-02  0.1266605E+00
        -11   -1    0    0    0    0  0.00000000000E+00  0.00000000000E+00  0.45593999997E+02  0.45594000000E+02  0.51100000000E-03 0. -1.
         11   -1    0    0    0    0 -0.00000000000E+00 -0.00000000000E+00 -0.45593999997E+02  0.45594000000E+02  0.51100000000E-03 0.  1.
    9900012    2    1    2    0    0  0.24908056742E+02 -0.32034966450E+01 -0.19648098912E+02  0.59301929808E+02  0.49999974066E+02 0.  0.
        -12    1    1    2    0    0 -0.24908056742E+02  0.32034966450E+01  0.19648098912E+02  0.31886070192E+02  0.00000000000E+00 0.  1.
         11    1    3    3    0    0  0.13497613302E+02  0.13184880826E+02 -0.23981848428E+02  0.30514843954E+02  0.51100000000E-03 0. -1.
        -11    1    3    3    0    0  0.11202671596E+02 -0.20998388797E+02  0.30312131953E+01  0.23992091127E+02  0.51100000000E-03 0.  1.
        -12    1    3    3    0    0  0.20777184404E+00  0.46100113257E+01  0.13025363207E+01  0.47949947267E+01  0.00000000000E+00 0.  1.
</event>
<event>
 7    1  0.1096439E-011  0.5930189E+02  0.7816164E-02  0.1266605E+00
        -11   -1    0    0    0    0  0.00000000000E+00  0.00000000000E+00  0.45593999997E+02  0.45594000000E+02  0.51100000000E-03 0.  1.
         11   -1    0    0    0    0 -0.00000000000E+00 -0.00000000000E+00 -0.45593999997E+02  0.45594000000E+02  0.51100000000E-03 0. -1.
    9900012    2    1    2    0    0  0.12420421444E+02 -0.26018565662E+00 -0.29366465899E+02  0.59301891978E+02  0.49999905073E+02 0.  0.
        -12    1    1    2    0    0 -0.12420421444E+02  0.26018565662E+00  0.29366465899E+02  0.31886108022E+02  0.00000000000E+00 0.  1.
         11    1    3    3    0    0  0.49575761946E+01  0.98048983231E+01 -0.10039764972E+02  0.14883227936E+02  0.51100000000E-03 0.  1.
        -11    1    3    3    0    0  0.15057818118E+02 -0.13100218323E+02  0.34168532685E+01  0.20249160306E+02  0.51100000000E-03 0. -1.
        -12    1    3    3    0    0 -0.75949728683E+01  0.30351343436E+01 -0.22743554196E+02  0.24169503735E+02  0.00000000000E+00 0.  1.
</event>
<event>
 7    1  0.1096439E-011  0.5930203E+02  0.7816164E-02  0.1266604E+00
        -11   -1    0    0    0    0  0.00000000000E+00  0.00000000000E+00  0.45593999997E+02  0.45594000000E+02  0.51100000000E-03 0.  1.
         11   -1    0    0    0    0 -0.00000000000E+00 -0.00000000000E+00 -0.45593999997E+02  0.45594000000E+02  0.51100000000E-03 0. -1.
    9900012    2    1    2    0    0  0.83927005304E+01  0.11321584810E+02 -0.28602438871E+02  0.59302027940E+02  0.50000153036E+02 0.  0.
        -12    1    1    2    0    0 -0.83927005304E+01 -0.11321584810E+02  0.28602438871E+02  0.31885972060E+02  0.00000000000E+00 0.  1.
         11    1    3    3    0    0 -0.13538477933E+02  0.71585681785E+01  0.68192485228E+01  0.16764177098E+02  0.51100000000E-03 0. -1.
        -11    1    3    3    0    0  0.14341001788E+02  0.11568071638E+01 -0.16271562674E+02  0.21720181565E+02  0.51100000000E-03 0.  1.
         12    1    3    3    0    0  0.75901766755E+01  0.30062094676E+01 -0.19150124720E+02  0.20817669277E+02  0.00000000000E+00 0. -1.
</event>
<event>
 7    1  0.1096439E-011  0.5930196E+02  0.7816164E-02  0.1266605E+00
        -11   -1    0    0    0    0  0.00000000000E+00  0.00000000000E+00  0.45593999997E+02  0.45594000000E+02  0.51100000000E-03 0. -1.
         11   -1    0    0    0    0 -0.00000000000E+00 -0.00000000000E+00 -0.45593999997E+02  0.45594000000E+02  0.51100000000E-03 0.  1.
    9900012    2    1    2    0    0 -0.13372239576E+02 -0.25147118076E+01  0.28837113577E+02  0.59301957815E+02  0.50000025144E+02 0.  0.
        -12    1    1    2    0    0  0.13372239576E+02  0.25147118076E+01 -0.28837113577E+02  0.31886042185E+02  0.00000000000E+00 0.  1.
         11    1    3    3    0    0 -0.19626180516E+02 -0.15563715067E+02  0.25530544439E+02  0.35766253479E+02  0.51100000000E-03 0. -1.
        -11    1    3    3    0    0  0.43949763471E+01  0.14529747095E+02  0.88028208863E+01  0.17547621592E+02  0.51100000000E-03 0.  1.
        -12    1    3    3    0    0  0.18589645925E+01 -0.14807438353E+01 -0.54962517480E+01  0.59880827431E+01  0.00000000000E+00 0.  1.
</event>
<event>
 7    1  0.1096439E-011  0.5930195E+02  0.7816164E-02  0.1266605E+00
        -11   -1    0    0    0    0  0.00000000000E+00  0.00000000000E+00  0.45593999997E+02  0.45594000000E+02  0.51100000000E-03 0.  1.
         11   -1    0    0    0    0 -0.00000000000E+00 -0.00000000000E+00 -0.45593999997E+02  0.45594000000E+02  0.51100000000E-03 0. -1.
    9900012    2    1    2    0    0  0.16958074935E+02 -0.67060604555E+01 -0.26156699473E+02  0.59301945374E+02  0.50000002455E+02 0.  0.
        -12    1    1    2    0    0 -0.16958074935E+02  0.67060604555E+01  0.26156699473E+02  0.31886054626E+02  0.00000000000E+00 0.  1.
         11    1    3    3    0    0  0.23384685834E+02 -0.36944913400E+01 -0.21850088213E+02  0.32216752676E+02  0.51100000000E-03 0. -1.
        -11    1    3    3    0    0 -0.15434999318E+02  0.19631172604E+01 -0.59614347378E+01  0.16662284889E+02  0.51100000000E-03 0.  1.
        -12    1    3    3    0    0  0.90083884187E+01 -0.49746863759E+01  0.16548234782E+01  0.10422907808E+02  0.00000000000E+00 0.  1.
</event>
<event>
 7    1  0.1096439E-011  0.5930195E+02  0.7816164E-02  0.1266605E+00
        -11   -1    0    0    0    0  0.00000000000E+00  0.00000000000E+00  0.45593999997E+02  0.45594000000E+02  0.51100000000E-03 0. -1.
         11   -1    0    0    0    0 -0.00000000000E+00 -0.00000000000E+00 -0.45593999997E+02  0.45594000000E+02  0.51100000000E-03 0.  1.
    9900012    2    1    2    0    0  0.12804087766E+02  0.17248781257E+02  0.23563846289E+02  0.59301953361E+02  0.50000017021E+02 0.  0.
        -12    1    1    2    0    0 -0.12804087766E+02 -0.17248781257E+02 -0.23563846289E+02  0.31886046639E+02  0.00000000000E+00 0.  1.
         11    1    3    3    0    0  0.11536815408E+02  0.10575006131E+02  0.14850371872E+02  0.21574577850E+02  0.51100000000E-03 0. -1.
        -11    1    3    3    0    0 -0.15442646513E+02  0.11564116807E+02  0.48561267635E+01  0.19894373482E+02  0.51100000000E-03 0.  1.
        -12    1    3    3    0    0  0.16709918871E+02 -0.48903416810E+01  0.38573476536E+01  0.17833002028E+02  0.00000000000E+00 0.  1.
</event>
<event>
 7    1  0.1096439E-011  0.5930190E+02  0.7816164E-02  0.1266605E+00
        -11   -1    0    0    0    0  0.00000000000E+00  0.00000000000E+00  0.45593999997E+02  0.45594000000E+02  0.51100000000E-03 0. -1.
         11   -1    0    0    0    0 -0.00000000000E+00 -0.00000000000E+00 -0.45593999997E+02  0.45594000000E+02  0.51100000000E-03 0.  1.
    9900012    2    1    2    0    0 -0.10119186346E+02 -0.17184723601E+02  0.24879932352E+02  0.59301895011E+02  0.49999910604E+02 0.  0.
        -12    1    1    2    0    0  0.10119186346E+02  0.17184723601E+02 -0.24879932352E+02  0.31886104989E+02  0.00000000000E+00 0.  1.
         11    1    3    3    0    0 -0.20733313576E+02 -0.14184210705E+02  0.33877783017E+02  0.42175423028E+02  0.51100000000E-03 0. -1.
        -11    1    3    3    0    0 -0.41683113458E+00  0.22437502051E+01 -0.80888262480E+00  0.24212506147E+01  0.51100000000E-03 0.  1.
         12    1    3    3    0    0  0.11030958364E+02 -0.52442631015E+01 -0.81889680405E+01  0.14705221368E+02  0.00000000000E+00 0. -1.
</event>
<event>
 7    1  0.1096439E-011  0.5930204E+02  0.7816164E-02  0.1266604E+00
        -11   -1    0    0    0    0  0.00000000000E+00  0.00000000000E+00  0.45593999997E+02  0.45594000000E+02  0.51100000000E-03 0.  1.
         11   -1    0    0    0    0 -0.00000000000E+00 -0.00000000000E+00 -0.45593999997E+02  0.45594000000E+02  0.51100000000E-03 0. -1.
    9900012    2    1    2    0    0  0.23310859377E+02  0.12365532815E+02 -0.17900052460E+02  0.59302040005E+02  0.50000175040E+02 0.  0.
        -12    1    1    2    0    0 -0.23310859377E+02 -0.12365532815E+02  0.17900052460E+02  0.31885959995E+02  0.00000000000E+00 0.  1.
         11    1    3    3    0    0  0.23842587932E+02  0.47907282944E+00 -0.85087074229E+01  0.25319885710E+02  0.51100000000E-03 0. -1.
        -11    1    3    3    0    0 -0.10574028157E+01  0.11251882179E+01  0.10899465996E+02  0.11008292715E+02  0.51100000000E-03 0.  1.
        -12    1    3    3    0    0  0.52567426072E+00  0.10761271768E+02 -0.20290811034E+02  0.22973861580E+02  0.00000000000E+00 0.  1.
</event>
<event>
 7    1  0.1096439E-011  0.5930193E+02  0.7816164E-02  0.1266605E+00
        -11   -1    0    0    0    0  0.00000000000E+00  0.00000000000E+00  0.45593999997E+02  0.45594000000E+02  0.51100000000E-03 0. -1.
         11   -1    0    0    0    0 -0.00000000000E+00 -0.00000000000E+00 -0.45593999997E+02  0.45594000000E+02  0.51100000000E-03 0.  1.
    9900012    2    1    2    0    0  0.30547011128E+02 -0.61262769932E+00  0.91228357944E+01  0.59301931969E+02  0.49999978008E+02 0.  0.
        -12    1    1    2    0    0 -0.30547011128E+02  0.61262769932E+00 -0.91228357944E+01  0.31886068031E+02  0.00000000000E+00 0.  1.
         11    1    3    3    0    0  0.61440262058E+01 -0.22216188892E+02 -0.21117890824E+01  0.23146657649E+02  0.51100000000E-03 0.  1.
        -11    1    3    3    0    0  0.23730694341E+02  0.22717277238E+02  0.99457837856E+01  0.34324031733E+02  0.51100000000E-03 0. -1.
         12    1    3    3    0    0  0.67229058134E+00 -0.11137160455E+01  0.12888410912E+01  0.18312425875E+01  0.00000000000E+00 0. -1.
</event>
<event>
 7    1  0.1096439E-011  0.5930195E+02  0.7816164E-02  0.1266605E+00
        -11   -1    0    0    0    0  0.00000000000E+00  0.00000000000E+00  0.45593999997E+02  0.45594000000E+02  0.51100000000E-03 0.  1.
         11   -1    0    0    0    0 -0.00000000000E+00 -0.00000000000E+00 -0.45593999997E+02  0.45594000000E+02  0.51100000000E-03 0. -1.
    9900012    2    1    2    0    0  0.27406026415E+02 -0.11654251757E+01  0.16256434227E+02  0.59301950488E+02  0.50000011782E+02 0.  0.
        -12    1    1    2    0    0 -0.27406026415E+02  0.11654251757E+01 -0.16256434227E+02  0.31886049512E+02  0.00000000000E+00 0.  1.
         11    1    3    3    0    0  0.21365276236E+02 -0.90681044395E+01  0.10059021096E+02  0.25296036299E+02  0.51100000000E-03 0. -1.
        -11    1    3    3    0    0 -0.32160087885E+00  0.19865931934E+02  0.42320352791E+01  0.20314251195E+02  0.51100000000E-03 0.  1.
        -12    1    3    3    0    0  0.63623510575E+01 -0.11963252670E+02  0.19653778528E+01  0.13691662994E+02  0.00000000000E+00 0.  1.
</event>
<event>
 7    1  0.1096439E-011  0.5930200E+02  0.7816164E-02  0.1266605E+00
        -11   -1    0    0    0    0  0.00000000000E+00  0.00000000000E+00  0.45593999997E+02  0.45594000000E+02  0.51100000000E-03 0.  1.
         11   -1    0    0    0    0 -0.00000000000E+00 -0.00000000000E+00 -0.45593999997E+02  0.45594000000E+02  0.51100000000E-03 0. -1.
    9900012    2    1    2    0    0 -0.11617793966E+02 -0.24087198121E+02 -0.17365220628E+02  0.59301997783E+02  0.50000098036E+02 0.  0.
        -12    1    1    2    0    0  0.11617793966E+02  0.24087198121E+02  0.17365220628E+02  0.31886002217E+02  0.00000000000E+00 0.  1.
         11    1    3    3    0    0 -0.26803003067E+02 -0.12621671892E+02 -0.16062322066E+02  0.33700233904E+02  0.51100000000E-03 0. -1.
        -11    1    3    3    0    0 -0.49605104011E+00 -0.47894905469E+01  0.54473790145E+01  0.72704349747E+01  0.51100000000E-03 0.  1.
         12    1    3    3    0    0  0.15681260141E+02 -0.66760356814E+01 -0.67502775772E+01  0.18331328904E+02  0.00000000000E+00 0. -1.
</event>
<event>
 7    1  0.1096439E-011  0.5930198E+02  0.7816164E-02  0.1266605E+00
        -11   -1    0    0    0    0  0.00000000000E+00  0.00000000000E+00  0.45593999997E+02  0.45594000000E+02  0.51100000000E-03 0. -1.
         11   -1    0    0    0    0 -0.00000000000E+00 -0.00000000000E+00 -0.45593999997E+02  0.45594000000E+02  0.51100000000E-03 0.  1.
    9900012    2    1    2    0    0  0.29494193242E+02 -0.12082954360E+02 -0.90167328044E+00  0.59301980559E+02  0.50000066624E+02 0.  0.
        -12    1    1    2    0    0 -0.29494193242E+02  0.12082954360E+02  0.90167328044E+00  0.31886019441E+02  0.00000000000E+00 0.  1.
         11    1    3    3    0    0  0.16594052357E+02 -0.26581899473E+02 -0.61013792367E+01  0.31924704886E+02  0.51100000000E-03 0.  1.
        -11    1    3    3    0    0  0.10669387939E+02  0.13493217187E+02  0.11450638541E+02  0.20664459159E+02  0.51100000000E-03 0. -1.
        -12    1    3    3    0    0  0.22307529467E+01  0.10057279256E+01 -0.62509325851E+01  0.67128165142E+01  0.00000000000E+00 0.  1.
</event>
<event>
 7    1  0.1096439E-011  0.5930176E+02  0.7816164E-02  0.1266605E+00
        -11   -1    0    0    0    0  0.00000000000E+00  0.00000000000E+00  0.45593999997E+02  0.45594000000E+02  0.51100000000E-03 0.  1.
         11   -1    0    0    0    0 -0.00000000000E+00 -0.00000000000E+00 -0.45593999997E+02  0.45594000000E+02  0.51100000000E-03 0. -1.
    9900012    2    1    2    0    0  0.21827634159E+02 -0.20307099649E+02 -0.11309663173E+02  0.59301758606E+02  0.49999661834E+02 0.  0.
        -12    1    1    2    0    0 -0.21827634159E+02  0.20307099649E+02  0.11309663173E+02  0.31886241394E+02  0.00000000000E+00 0.  1.
         11    1    3    3    0    0  0.19733663128E+02  0.14815067840E+01 -0.17393565756E+02  0.26346697189E+02  0.51100000000E-03 0. -1.
        -11    1    3    3    0    0  0.41413597656E+01 -0.82395797940E+01  0.14272074555E+02  0.16992164319E+02  0.51100000000E-03 0.  1.
         12    1    3    3    0    0 -0.20473887347E+01 -0.13549026639E+02 -0.81881719716E+01  0.15962897097E+02  0.00000000000E+00 0. -1.
</event>
<event>
 7    1  0.1096439E-011  0.5930191E+02  0.7816164E-02  0.1266605E+00
        -11   -1    0    0    0    0  0.00000000000E+00  0.00000000000E+00  0.45593999997E+02  0.45594000000E+02  0.51100000000E-03 0.  1.
         11   -1    0    0    0    0 -0.00000000000E+00 -0.00000000000E+00 -0.45593999997E+02  0.45594000000E+02  0.51100000000E-03 0. -1.
    9900012    2    1    2    0    0  0.87102940291E+01  0.14645740863E+02 -0.26950991626E+02  0.59301907465E+02  0.49999933319E+02 0.  0.
        -12    1    1    2    0    0 -0.87102940291E+01 -0.14645740863E+02  0.26950991626E+02  0.31886092535E+02  0.00000000000E+00 0.  1.
         11    1    3    3    0    0  0.92627828019E+01  0.55314623741E+01  0.41520042855E+01  0.11560076171E+02  0.51100000000E-03 0. -1.
        -11    1    3    3    0    0 -0.15676442562E+02  0.19150810708E+01 -0.25658236353E+02  0.30129113493E+02  0.51100000000E-03 0.  1.
        -12    1    3    3    0    0  0.15123953789E+02  0.71991974181E+01 -0.54447595590E+01  0.17612717801E+02  0.00000000000E+00 0.  1.
</event>
<event>
 7    1  0.1096439E-011  0.5930194E+02  0.7816164E-02  0.1266605E+00
        -11   -1    0    0    0    0  0.00000000000E+00  0.00000000000E+00  0.45593999997E+02  0.45594000000E+02  0.51100000000E-03 0. -1.
         11   -1    0    0    0    0 -0.00000000000E+00 -0.00000000000E+00 -0.45593999997E+02  0.45594000000E+02  0.51100000000E-03 0.  1.
    9900012    2    1    2    0    0 -0.16026993654E+02  0.24698555055E+02  0.12240830746E+02  0.59301935885E+02  0.49999985149E+02 0.  0.
        -12    1    1    2    0    0  0.16026993654E+02 -0.24698555055E+02 -0.12240830746E+02  0.31886064115E+02  0.00000000000E+00 0.  1.
         11    1    3    3    0    0 -0.58056209224E+01  0.26284237623E+02  0.22720590324E+02  0.35224871989E+02  0.51100000000E-03 0. -1.
        -11    1    3    3    0    0 -0.20743288856E+01 -0.86917848919E+01  0.12023657377E+00  0.89366896571E+01  0.51100000000E-03 0.  1.
         12    1    3    3    0    0 -0.81470438465E+01  0.71061023237E+01 -0.10599996152E+02  0.15140374239E+02  0.00000000000E+00 0. -1.
</event>
<event>
 7    1  0.1096439E-011  0.5930192E+02  0.7816164E-02  0.1266605E+00
        -11   -1    0    0    0    0  0.00000000000E+00  0.00000000000E+00  0.45593999997E+02  0.45594000000E+02  0.51100000000E-03 0.  1.
         11   -1    0    0    0    0 -0.00000000000E+00 -0.00000000000E+00 -0.45593999997E+02  0.45594000000E+02  0.51100000000E-03 0. -1.
    9900012    2    1    2    0    0  0.39776670187E+01  0.30546816124E+02 -0.82336036416E+01  0.59301920919E+02  0.49999957856E+02 0.  0.
        -12    1    1    2    0    0 -0.39776670187E+01 -0.30546816124E+02  0.82336036416E+01  0.31886079081E+02  0.00000000000E+00 0.  1.
         11    1    3    3    0    0  0.12584579589E+02  0.61592425839E+00 -0.14783938512E+02  0.19424619541E+02  0.51100000000E-03 0. -1.
        -11    1    3    3    0    0 -0.14132042158E+02  0.97630800925E+01  0.79345121090E+01  0.18920592779E+02  0.51100000000E-03 0.  1.
        -12    1    3    3    0    0  0.55251295878E+01  0.20167811773E+02 -0.13841772388E+01  0.20956708599E+02  0.00000000000E+00 0.  1.
</event>
<event>
 7    1  0.1096439E-011  0.5930194E+02  0.7816164E-02  0.1266605E+00
        -11   -1    0    0    0    0  0.00000000000E+00  0.00000000000E+00  0.45593999997E+02  0.45594000000E+02  0.51100000000E-03 0.  1.
         11   -1    0    0    0    0 -0.00000000000E+00 -0.00000000000E+00 -0.45593999997E+02  0.45594000000E+02  0.51100000000E-03 0. -1.
    9900012    2    1    2    0    0 -0.58487704541E+01  0.57393440852E+01 -0.30815138041E+02  0.59301938487E+02  0.49999989895E+02 0.  0.
        -12    1    1    2    0    0  0.58487704541E+01 -0.57393440852E+01  0.30815138041E+02  0.31886061513E+02  0.00000000000E+00 0.  1.
         11    1    3    3    0    0  0.13198113749E+02 -0.10487666021E+02 -0.13028827269E+02  0.21305672610E+02  0.51100000000E-03 0. -1.
        -11    1    3    3    0    0 -0.91355254211E+01 -0.10420387816E+01  0.25434716695E+01  0.95400690740E+01  0.51100000000E-03 0.  1.
         12    1    3    3    0    0 -0.99113587815E+01  0.17269048888E+02 -0.20329782441E+02  0.28456196803E+02  0.00000000000E+00 0. -1.
</event>
<event>
 7    1  0.1096439E-011  0.5930194E+02  0.7816164E-02  0.1266605E+00
        -11   -1    0    0    0    0  0.00000000000E+00  0.00000000000E+00  0.45593999997E+02  0.45594000000E+02  0.51100000000E-03 0.  1.
         11   -1    0    0    0    0 -0.00000000000E+00 -0.00000000000E+00 -0.45593999997E+02  0.45594000000E+02  0.51100000000E-03 0. -1.
    9900012    2    1    2    0    0  0.11319309176E+02 -0.24859187785E+02 -0.16450367168E+02  0.59301944152E+02  0.50000000227E+02 0.  0.
        -12    1    1    2    0    0 -0.11319309176E+02  0.24859187785E+02  0.16450367168E+02  0.31886055848E+02  0.00000000000E+00 0.  1.
         11    1    3    3    0    0 -0.23538539084E+01 -0.20294717420E+02 -0.57274184338E+01  0.21218376601E+02  0.51100000000E-03 0. -1.
        -11    1    3    3    0    0  0.65297793827E+01  0.15632262876E+01 -0.22227700397E+02  0.23219654615E+02  0.51100000000E-03 0.  1.
        -12    1    3    3    0    0  0.71433837017E+01 -0.61276966523E+01  0.11504751663E+02  0.14863912937E+02  0.00000000000E+00 0.  1.
</event>
<event>
 7    1  0.1096439E-011  0.5930190E+02  0.7816164E-02  0.1266605E+00
        -11   -1    0    0    0    0  0.00000000000E+00  0.00000000000E+00  0.45593999997E+02  0.45594000000E+02  0.51100000000E-03 0.  1.
         11   -1    0    0    0    0 -0.00000000000E+00 -0.00000000000E+00 -0.45593999997E+02  0.45594000000E+02  0.51100000000E-03 0. -1.
    9900012    2    1    2    0    0  0.71905643116E+01  0.20704127487E+02 -0.23159406669E+02  0.59301902286E+02  0.49999923874E+02 0.  0.
        -12    1    1    2    0    0 -0.71905643116E+01 -0.20704127487E+02  0.23159406669E+02  0.31886097714E+02  0.00000000000E+00 0.  1.
         11    1    3    3    0    0  0.88732686848E+01  0.31437106652E+02 -0.82975588204E+01  0.33702760338E+02  0.51100000000E-03 0. -1.
        -11    1    3    3    0    0 -0.12944899613E+01 -0.12365331600E+02 -0.19573716774E+01  0.12586041235E+02  0.51100000000E-03 0.  1.
         12    1    3    3    0    0 -0.38821441186E+00  0.16323524350E+01 -0.12904476172E+02  0.13013100713E+02  0.00000000000E+00 0. -1.
</event>
<event>
 7    1  0.1096439E-011  0.5930191E+02  0.7816164E-02  0.1266605E+00
        -11   -1    0    0    0    0  0.00000000000E+00  0.00000000000E+00  0.45593999997E+02  0.45594000000E+02  0.51100000000E-03 0.  1.
         11   -1    0    0    0    0 -0.00000000000E+00 -0.00000000000E+00 -0.45593999997E+02  0.45594000000E+02  0.51100000000E-03 0. -1.
    9900012    2    1    2    0    0  0.16015939209E+02  0.17340211885E+02 -0.21436642741E+02  0.59301907279E+02  0.49999932980E+02 0.  0.
        -12    1    1    2    0    0 -0.16015939209E+02 -0.17340211885E+02  0.21436642741E+02  0.31886092721E+02  0.00000000000E+00 0.  1.
         11    1    3    3    0    0  0.17878608451E+02  0.82383097916E+01 -0.14604137522E+02  0.24511124442E+02  0.51100000000E-03 0.  1.
        -11    1    3    3    0    0 -0.15067941487E+02 -0.28397425542E+01 -0.72964904045E+01  0.16980747066E+02  0.51100000000E-03 0. -1.
         12    1    3    3    0    0  0.13205272245E+02  0.11941644648E+02  0.46398518553E+00  0.17810035772E+02  0.00000000000E+00 0. -1.
</event>
<event>
 7    1  0.1224865E-011  0.5930193E+02  0.7816164E-02  0.1266605E+00
        -11   -1    0    0    0    0  0.00000000000E+00  0.00000000000E+00  0.45593999997E+02  0.45594000000E+02  0.51100000000E-03 0. -1.
         11   -1    0    0    0    0 -0.00000000000E+00 -0.00000000000E+00 -0.45593999997E+02  0.45594000000E+02  0.51100000000E-03 0.  1.
    9900012    2    1    2    0    0  0.59928582062E+01 -0.18880856681E+02  0.24986403557E+02  0.59301929982E+02  0.49999974384E+02 0.  0.
        -12    1    1    2    0    0 -0.59928582062E+01  0.18880856681E+02 -0.24986403557E+02  0.31886070018E+02  0.00000000000E+00 0.  1.
         11    1    3    3    0    0  0.10726014653E+02 -0.43900716879E+01  0.13237890194E+02  0.17594370032E+02  0.51100000000E-03 0. -1.
        -11    1    3    3    0    0 -0.17812793887E+02 -0.18598420792E+01  0.14845889778E+02  0.23262740213E+02  0.51100000000E-03 0.  1.
        -12    1    3    3    0    0  0.13079637441E+02 -0.12630942914E+02 -0.30973764155E+01  0.18444819737E+02  0.00000000000E+00 0.  1.
</event>
<event>
 7    1  0.1096439E-011  0.5930189E+02  0.7816164E-02  0.1266605E+00
        -11   -1    0    0    0    0  0.00000000000E+00  0.00000000000E+00  0.45593999997E+02  0.45594000000E+02  0.51100000000E-03 0. -1.
         11   -1    0    0    0    0 -0.00000000000E+00 -0.00000000000E+00 -0.45593999997E+02  0.45594000000E+02  0.51100000000E-03 0.  1.
    9900012    2    1    2    0    0 -0.97847846229E+01 -0.21507008090E+02  0.21410992245E+02  0.59301890234E+02  0.49999901892E+02 0.  0.
        -12    1    1    2    0    0  0.97847846229E+01  0.21507008090E+02 -0.21410992245E+02  0.31886109766E+02  0.00000000000E+00 0.  1.
         11    1    3    3    0    0 -0.95949387676E+01  0.60021105258E+01  0.74588631270E+01  0.13554439130E+02  0.51100000000E-03 0. -1.
        -11    1    3    3    0    0  0.53709219531E+01 -0.29135027396E+02 -0.10716159257E+01  0.29645319782E+02  0.51100000000E-03 0.  1.
        -12    1    3    3    0    0 -0.55607678084E+01  0.16259087799E+01  0.15023745044E+02  0.16102131322E+02  0.00000000000E+00 0.  1.
</event>
<event>
 7    1  0.1096439E-011  0.5930193E+02  0.7816164E-02  0.1266605E+00
        -11   -1    0    0    0    0  0.00000000000E+00  0.00000000000E+00  0.45593999997E+02  0.45594000000E+02  0.51100000000E-03 0. -1.
         11   -1    0    0    0    0 -0.00000000000E+00 -0.00000000000E+00 -0.45593999997E+02  0.45594000000E+02  0.51100000000E-03 0.  1.
    9900012    2    1    2    0    0 -0.22437617028E+02 -0.12119606662E+02 -0.19141317037E+02  0.59301928723E+02  0.49999972088E+02 0.  0.
        -12    1    1    2    0    0  0.22437617028E+02  0.12119606662E+02  0.19141317037E+02  0.31886071277E+02  0.00000000000E+00 0.  1.
         11    1    3    3    0    0 -0.12134985280E+02 -0.77771551258E+01  0.83313059789E+01  0.16647902846E+02  0.51100000000E-03 0. -1.
        -11    1    3    3    0    0  0.45888114771E+01 -0.88387909203E+01 -0.24990489036E+02  0.26901783551E+02  0.51100000000E-03 0.  1.
        -12    1    3    3    0    0 -0.14891443226E+02  0.44963393843E+01 -0.24821339794E+01  0.15752242326E+02  0.00000000000E+00 0.  1.
</event>
<event>
 7    1  0.1096439E-011  0.5930196E+02  0.7816164E-02  0.1266605E+00
        -11   -1    0    0    0    0  0.00000000000E+00  0.00000000000E+00  0.45593999997E+02  0.45594000000E+02  0.51100000000E-03 0.  1.
         11   -1    0    0    0    0 -0.00000000000E+00 -0.00000000000E+00 -0.45593999997E+02  0.45594000000E+02  0.51100000000E-03 0. -1.
    9900012    2    1    2    0    0 -0.21019122612E+02  0.23665824739E+02 -0.38528778343E+01  0.59301961621E+02  0.50000032085E+02 0.  0.
        -12    1    1    2    0    0  0.21019122612E+02 -0.23665824739E+02  0.38528778343E+01  0.31886038379E+02  0.00000000000E+00 0.  1.
         11    1    3    3    0    0  0.10929148290E+02  0.46691177177E+01 -0.12649251851E+02  0.17356569801E+02  0.51100000000E-03 0. -1.
        -11    1    3    3    0    0 -0.22547402004E+02  0.19944362734E+02  0.11328265120E+02  0.32163527992E+02  0.51100000000E-03 0.  1.
         12    1    3    3    0    0 -0.94008688974E+01 -0.94765571240E+00 -0.25318911032E+01  0.97818638272E+01  0.00000000000E+00 0. -1.
</event>
<event>
 7    1  0.1096439E-011  0.5930191E+02  0.7816164E-02  0.1266605E+00
        -11   -1    0    0    0    0  0.00000000000E+00  0.00000000000E+00  0.45593999997E+02  0.45594000000E+02  0.51100000000E-03 0.  1.
         11   -1    0    0    0    0 -0.00000000000E+00 -0.00000000000E+00 -0.45593999997E+02  0.45594000000E+02  0.51100000000E-03 0. -1.
    9900012    2    1    2    0    0  0.13221576404E+02 -0.56968249357E+01 -0.28450985399E+02  0.59301914208E+02  0.49999945616E+02 0.  0.
        -12    1    1    2    0    0 -0.13221576404E+02  0.56968249357E+01  0.28450985399E+02  0.31886085792E+02  0.00000000000E+00 0.  1.
         11    1    3    3    0    0 -0.90150939382E+01  0.54874829872E+01 -0.63451043437E+01  0.12314411786E+02  0.51100000000E-03 0. -1.
        -11    1    3    3    0    0  0.26614494486E+02  0.27439905542E+01 -0.15897762628E+02  0.31122333746E+02  0.51100000000E-03 0.  1.
        -12    1    3    3    0    0 -0.43778241445E+01 -0.13928298477E+02 -0.62081184276E+01  0.15865168676E+02  0.00000000000E+00 0.  1.
</event>
<event>
 7    1  0.1096439E-011  0.5930193E+02  0.7816164E-02  0.1266605E+00
        -11   -1    0    0    0    0  0.00000000000E+00  0.00000000000E+00  0.45593999997E+02  0.45594000000E+02  0.51100000000E-03 0. -1.
         11   -1    0    0    0    0 -0.00000000000E+00 -0.00000000000E+00 -0.45593999997E+02  0.45594000000E+02  0.51100000000E-03 0.  1.
    9900012    2    1    2    0    0 -0.22996841240E+02  0.20472720807E+02 -0.82906107375E+01  0.59301933596E+02  0.49999980976E+02 0.  0.
        -12    1    1    2    0    0  0.22996841240E+02 -0.20472720807E+02  0.82906107375E+01  0.31886066404E+02  0.00000000000E+00 0.  1.
         11    1    3    3    0    0 -0.32844879474E+02 -0.76340163418E+00 -0.52876568600E+01  0.33276541362E+02  0.51100000000E-03 0. -1.
        -11    1    3    3    0    0 -0.11963637345E+01  0.64243457640E+01 -0.37497017534E+01  0.75341733575E+01  0.51100000000E-03 0.  1.
         12    1    3    3    0    0  0.11044401968E+02  0.14811776677E+02  0.74674787590E+00  0.18491218877E+02  0.00000000000E+00 0. -1.
</event>
<event>
 7    1  0.1096439E-011  0.5930192E+02  0.7816164E-02  0.1266605E+00
        -11   -1    0    0    0    0  0.00000000000E+00  0.00000000000E+00  0.45593999997E+02  0.45594000000E+02  0.51100000000E-03 0. -1.
         11   -1    0    0    0    0 -0.00000000000E+00 -0.00000000000E+00 -0.45593999997E+02  0.45594000000E+02  0.51100000000E-03 0.  1.
    9900012    2    1    2    0    0  0.46538559445E+01  0.22802812459E+02  0.21796678324E+02  0.59301924400E+02  0.49999964205E+02 0.  0.
        -12    1    1    2    0    0 -0.46538559445E+01 -0.22802812459E+02 -0.21796678324E+02  0.31886075600E+02  0.00000000000E+00 0.  1.
         11    1    3    3    0    0 -0.86975256189E+01  0.12433382610E+02  0.15711233454E+02  0.21842133868E+02  0.51100000000E-03 0. -1.
        -11    1    3    3    0    0  0.67280930896E+01  0.17112223008E+02 -0.83586860823E+01  0.20198095113E+02  0.51100000000E-03 0.  1.
        -12    1    3    3    0    0  0.66232884738E+01 -0.67427931589E+01  0.14444130952E+02  0.17261695419E+02  0.00000000000E+00 0.  1.
</event>
<event>
 7    1  0.1096439E-011  0.5930197E+02  0.7816164E-02  0.1266605E+00
        -11   -1    0    0    0    0  0.00000000000E+00  0.00000000000E+00  0.45593999997E+02  0.45594000000E+02  0.51100000000E-03 0. -1.
         11   -1    0    0    0    0 -0.00000000000E+00 -0.00000000000E+00 -0.45593999997E+02  0.45594000000E+02  0.51100000000E-03 0.  1.
    9900012    2    1    2    0    0  0.17335867302E+02 -0.26316768630E+02  0.48594461756E+01  0.59301971346E+02  0.50000049821E+02 0.  0.
        -12    1    1    2    0    0 -0.17335867302E+02  0.26316768630E+02 -0.48594461756E+01  0.31886028654E+02  0.00000000000E+00 0.  1.
         11    1    3    3    0    0  0.20934025317E+02 -0.92603721821E+01 -0.85882870586E+01  0.24448856493E+02  0.51100000000E-03 0. -1.
        -11    1    3    3    0    0 -0.27511862926E+01 -0.14620073577E+02  0.21642278626E+02  0.26262212432E+02  0.51100000000E-03 0.  1.
        -12    1    3    3    0    0 -0.84697172284E+00 -0.24363228708E+01 -0.81945453920E+01  0.85909024213E+01  0.00000000000E+00 0.  1.
</event>
<event>
 7    1  0.1096439E-011  0.5930193E+02  0.7816164E-02  0.1266605E+00
        -11   -1    0    0    0    0  0.00000000000E+00  0.00000000000E+00  0.45593999997E+02  0.45594000000E+02  0.51100000000E-03 0.  1.
         11   -1    0    0    0    0 -0.00000000000E+00 -0.00000000000E+00 -0.45593999997E+02  0.45594000000E+02  0.51100000000E-03 0. -1.
    9900012    2    1    2    0    0  0.28578749288E+02 -0.11479228366E+02 -0.82585441245E+01  0.59301934928E+02  0.49999983403E+02 0.  0.
        -12    1    1    2    0    0 -0.28578749288E+02  0.11479228366E+02  0.82585441245E+01  0.31886065072E+02  0.00000000000E+00 0.  1.
         11    1    3    3    0    0  0.34704411054E+02  0.21609607602E+01 -0.16486942729E+02  0.38482270968E+02  0.51100000000E-03 0. -1.
        -11    1    3    3    0    0 -0.67608038987E+01 -0.14683342001E+02  0.97428566394E+01  0.18874116070E+02  0.51100000000E-03 0.  1.
         12    1    3    3    0    0  0.63514213242E+00  0.10431528753E+01 -0.15144580349E+01  0.19455478892E+01  0.00000000000E+00 0. -1.
</event>
<event>
 7    1  0.1096439E-011  0.5930200E+02  0.7816164E-02  0.1266605E+00
        -11   -1    0    0    0    0  0.00000000000E+00  0.00000000000E+00  0.45593999997E+02  0.45594000000E+02  0.51100000000E-03 0. -1.
         11   -1    0    0    0    0 -0.00000000000E+00 -0.00000000000E+00 -0.45593999997E+02  0.45594000000E+02  0.51100000000E-03 0.  1.
    9900012    2    1    2    0    0  0.20921185574E+02  0.79995374048E+01  0.22694237384E+02  0.59301999703E+02  0.50000101537E+02 0.  0.
        -12    1    1    2    0    0 -0.20921185574E+02 -0.79995374048E+01 -0.22694237384E+02  0.31886000297E+02  0.00000000000E+00 0.  1.
         11    1    3    3    0    0  0.79228178971E+01 -0.13529106267E+01  0.25882170599E+02  0.27101442134E+02  0.51100000000E-03 0. -1.
        -11    1    3    3    0    0  0.88187603797E+01  0.18516124542E+02  0.24554639992E+01  0.20655428013E+02  0.51100000000E-03 0.  1.
         12    1    3    3    0    0  0.41796072976E+01 -0.91636765102E+01 -0.56433972139E+01  0.11545129556E+02  0.00000000000E+00 0. -1.
</event>
<event>
 7    1  0.1096439E-011  0.5930195E+02  0.7816164E-02  0.1266605E+00
        -11   -1    0    0    0    0  0.00000000000E+00  0.00000000000E+00  0.45593999997E+02  0.45594000000E+02  0.51100000000E-03 0.  1.
         11   -1    0    0    0    0 -0.00000000000E+00 -0.00000000000E+00 -0.45593999997E+02  0.45594000000E+02  0.51100000000E-03 0. -1.
    9900012    2    1    2    0    0  0.20077368556E+02 -0.23447133831E+02 -0.79907100130E+01  0.59301948824E+02  0.50000008748E+02 0.  0.
        -12    1    1    2    0    0 -0.20077368556E+02  0.23447133831E+02  0.79907100130E+01  0.31886051176E+02  0.00000000000E+00 0.  1.
         11    1    3    3    0    0 -0.11466622650E+02 -0.61777739397E+01 -0.25691710052E+01  0.13275879096E+02  0.51100000000E-03 0. -1.
        -11    1    3    3    0    0  0.33909568948E+02 -0.13113338354E+02 -0.11646162871E+02  0.38176584694E+02  0.51100000000E-03 0.  1.
        -12    1    3    3    0    0 -0.23655777411E+01 -0.41560215372E+01  0.62246238631E+01  0.78494850343E+01  0.00000000000E+00 0.  1.
</event>
<event>
 7    1  0.1096439E-011  0.5930194E+02  0.7816164E-02  0.1266605E+00
        -11   -1    0    0    0    0  0.00000000000E+00  0.00000000000E+00  0.45593999997E+02  0.45594000000E+02  0.51100000000E-03 0.  1.
         11   -1    0    0    0    0 -0.00000000000E+00 -0.00000000000E+00 -0.45593999997E+02  0.45594000000E+02  0.51100000000E-03 0. -1.
    9900012    2    1    2    0    0 -0.67551418554E+01  0.16408121727E+02 -0.26492689631E+02  0.59301937151E+02  0.49999987459E+02 0.  0.
        -12    1    1    2    0    0  0.67551418554E+01 -0.16408121727E+02  0.26492689631E+02  0.31886062849E+02  0.00000000000E+00 0.  1.
         11    1    3    3    0    0 -0.13086429393E+02  0.71158362724E+01 -0.54175781788E+01  0.15850549319E+02  0.51100000000E-03 0. -1.
        -11    1    3    3    0    0  0.92652696398E+01 -0.30825641142E+01  0.74088218884E+01  0.12257163826E+02  0.51100000000E-03 0.  1.
        -12    1    3    3    0    0 -0.29339821021E+01  0.12374849569E+02 -0.28483933341E+02  0.31194224007E+02  0.00000000000E+00 0.  1.
</event>
<event>
 7    1  0.1096439E-011  0.5930193E+02  0.7816164E-02  0.1266605E+00
        -11   -1    0    0    0    0  0.00000000000E+00  0.00000000000E+00  0.45593999997E+02  0.45594000000E+02  0.51100000000E-03 0.  1.
         11   -1    0    0    0    0 -0.00000000000E+00 -0.00000000000E+00 -0.45593999997E+02  0.45594000000E+02  0.51100000000E-03 0. -1.
    9900012    2    1    2    0    0 -0.19203062210E+01  0.58804494972E+01 -0.31280249906E+02  0.59301932565E+02  0.49999979096E+02 0.  0.
        -12    1    1    2    0    0  0.19203062210E+01 -0.58804494972E+01  0.31280249906E+02  0.31886067435E+02  0.00000000000E+00 0.  1.
         11    1    3    3    0    0  0.19359221987E+01  0.11045384488E+01 -0.14793892054E+02  0.14960850321E+02  0.51100000000E-03 0. -1.
        -11    1    3    3    0    0 -0.37026121284E+01 -0.83402484627E+01  0.10755968269E+02  0.14105315829E+02  0.51100000000E-03 0.  1.
        -12    1    3    3    0    0 -0.15361629123E+00  0.13116159511E+02 -0.27242326120E+02  0.30235766415E+02  0.00000000000E+00 0.  1.
</event>
<event>
 7    1  0.1096439E-011  0.5930193E+02  0.7816164E-02  0.1266605E+00
        -11   -1    0    0    0    0  0.00000000000E+00  0.00000000000E+00  0.45593999997E+02  0.45594000000E+02  0.51100000000E-03 0. -1.
         11   -1    0    0    0    0 -0.00000000000E+00 -0.00000000000E+00 -0.45593999997E+02  0.45594000000E+02  0.51100000000E-03 0.  1.
    9900012    2    1    2    0    0  0.68457797137E+01  0.17380894281E+01  0.31093986912E+02  0.59301926601E+02  0.49999968217E+02 0.  0.
        -12    1    1    2    0    0 -0.68457797137E+01 -0.17380894281E+01 -0.31093986912E+02  0.31886073399E+02  0.00000000000E+00 0.  1.
         11    1    3    3    0    0 -0.50543518593E+01  0.16925355058E+02  0.11570726411E+02  0.21116245558E+02  0.51100000000E-03 0. -1.
        -11    1    3    3    0    0  0.83895293188E+01 -0.17057055383E+02  0.77954247665E+00  0.19024590069E+02  0.51100000000E-03 0.  1.
         12    1    3    3    0    0  0.35106022542E+01  0.18697897536E+01  0.18743718025E+02  0.19161090974E+02  0.00000000000E+00 0. -1.
</event>
<event>
 7    1  0.1096439E-011  0.5930196E+02  0.7816164E-02  0.1266605E+00
        -11   -1    0    0    0    0  0.00000000000E+00  0.00000000000E+00  0.45593999997E+02  0.45594000000E+02  0.51100000000E-03 0. -1.
         11   -1    0    0    0    0 -0.00000000000E+00 -0.00000000000E+00 -0.45593999997E+02  0.45594000000E+02  0.51100000000E-03 0.  1.
    9900012    2    1    2    0    0 -0.14012509326E+02  0.13814573935E+02  0.25090373207E+02  0.59301957626E+02  0.50000024800E+02 0.  0.
        -12    1    1    2    0    0  0.14012509326E+02 -0.13814573935E+02 -0.25090373207E+02  0.31886042374E+02  0.00000000000E+00 0.  1.
         11    1    3    3    0    0 -0.67063593557E+01  0.15903620227E+02 -0.80353481748E+01  0.19038571709E+02  0.51100000000E-03 0. -1.
        -11    1    3    3    0    0  0.36669745317E+00 -0.94547668852E+01  0.61978683276E+01  0.11311085533E+02  0.51100000000E-03 0.  1.
         12    1    3    3    0    0 -0.76728474232E+01  0.73657205927E+01  0.26927853054E+02  0.28952300384E+02  0.00000000000E+00 0. -1.
</event>
<event>
 7    1  0.1096439E-011  0.5930194E+02  0.7816164E-02  0.1266605E+00
        -11   -1    0    0    0    0  0.00000000000E+00  0.00000000000E+00  0.45593999997E+02  0.45594000000E+02  0.51100000000E-03 0.  1.
         11   -1    0    0    0    0 -0.00000000000E+00 -0.00000000000E+00 -0.45593999997E+02  0.45594000000E+02  0.51100000000E-03 0. -1.
    9900012    2    1    2    0    0  0.29637187109E+02 -0.10355005679E+01 -0.11716888082E+02  0.59301943682E+02  0.49999999369E+02 0.  0.
        -12    1    1    2    0    0 -0.29637187109E+02  0.10355005679E+01  0.11716888082E+02  0.31886056318E+02  0.00000000000E+00 0.  1.
         11    1    3    3    0    0  0.27242880474E+02  0.10191624174E+02 -0.91171486443E+01  0.30482226616E+02  0.51100000000E-03 0. -1.
        -11    1    3    3    0    0 -0.11565515792E+02 -0.53716638342E+01 -0.45863813807E+01  0.13551782994E+02  0.51100000000E-03 0.  1.
        -12    1    3    3    0    0  0.13959822427E+02 -0.58554609072E+01  0.19866419425E+01  0.15267934072E+02  0.00000000000E+00 0.  1.
</event>
<event>
 7    1  0.1096439E-011  0.5930196E+02  0.7816164E-02  0.1266605E+00
        -11   -1    0    0    0    0  0.00000000000E+00  0.00000000000E+00  0.45593999997E+02  0.45594000000E+02  0.51100000000E-03 0.  1.
         11   -1    0    0    0    0 -0.00000000000E+00 -0.00000000000E+00 -0.45593999997E+02  0.45594000000E+02  0.51100000000E-03 0. -1.
    9900012    2    1    2    0    0 -0.19648978445E+02  0.17158513969E+02 -0.18336381751E+02  0.59301955227E+02  0.50000020424E+02 0.  0.
        -12    1    1    2    0    0  0.19648978445E+02 -0.17158513969E+02  0.18336381751E+02  0.31886044773E+02  0.00000000000E+00 0.  1.
         11    1    3    3    0    0  0.26659327697E+01  0.62336634475E+01 -0.99616646879E-02  0.67798124609E+01  0.51100000000E-03 0. -1.
        -11    1    3    3    0    0 -0.99963536179E+01 -0.16421251561E+02 -0.74824242943E+01  0.20629378616E+02  0.51100000000E-03 0.  1.
        -12    1    3    3    0    0 -0.12318557597E+02  0.27346102083E+02 -0.10843995792E+02  0.31892764150E+02  0.00000000000E+00 0.  1.
</event>
<event>
 7    1  0.1096439E-011  0.5930194E+02  0.7816164E-02  0.1266605E+00
        -11   -1    0    0    0    0  0.00000000000E+00  0.00000000000E+00  0.45593999997E+02  0.45594000000E+02  0.51100000000E-03 0. -1.
         11   -1    0    0    0    0 -0.00000000000E+00 -0.00000000000E+00 -0.45593999997E+02  0.45594000000E+02  0.51100000000E-03 0.  1.
    9900012    2    1    2    0    0 -0.20851968955E+02  0.50332803463E+01  0.23591992368E+02  0.59301943106E+02  0.49999998318E+02 0.  0.
        -12    1    1    2    0    0  0.20851968955E+02 -0.50332803463E+01 -0.23591992368E+02  0.31886056894E+02  0.00000000000E+00 0.  1.
         11    1    3    3    0    0 -0.27928856139E+02  0.33632292769E+01 -0.31844192960E+01  0.28310295705E+02  0.51100000000E-03 0.  1.
        -11    1    3    3    0    0  0.11205516598E+02  0.22447555336E+00  0.19990776764E+02  0.22918227405E+02  0.51100000000E-03 0. -1.
         12    1    3    3    0    0 -0.41286294144E+01  0.14455755160E+01  0.67856349007E+01  0.80734199953E+01  0.00000000000E+00 0. -1.
</event>
<event>
 7    1  0.1096439E-011  0.5930198E+02  0.7816164E-02  0.1266605E+00
        -11   -1    0    0    0    0  0.00000000000E+00  0.00000000000E+00  0.45593999997E+02  0.45594000000E+02  0.51100000000E-03 0. -1.
         11   -1    0    0    0    0 -0.00000000000E+00 -0.00000000000E+00 -0.45593999997E+02  0.45594000000E+02  0.51100000000E-03 0.  1.
    9900012    2    1    2    0    0 -0.15083834890E+02  0.19787289798E+02  0.19941398534E+02  0.59301979739E+02  0.50000065130E+02 0.  0.
        -12    1    1    2    0    0  0.15083834890E+02 -0.19787289798E+02 -0.19941398534E+02  0.31886020261E+02  0.00000000000E+00 0.  1.
         11    1    3    3    0    0  0.12486750106E+02 -0.44185896314E+01  0.14628752030E+02  0.19734316526E+02  0.51100000000E-03 0. -1.
        -11    1    3    3    0    0 -0.11553249453E+02  0.25105245273E+01 -0.10195695422E+01  0.11866753079E+02  0.51100000000E-03 0.  1.
         12    1    3    3    0    0 -0.16017335542E+02  0.21695354903E+02  0.63322160469E+01  0.27700910135E+02  0.00000000000E+00 0. -1.
</event>
<event>
 7    1  0.1096439E-011  0.5930191E+02  0.7816164E-02  0.1266605E+00
        -11   -1    0    0    0    0  0.00000000000E+00  0.00000000000E+00  0.45593999997E+02  0.45594000000E+02  0.51100000000E-03 0. -1.
         11   -1    0    0    0    0 -0.00000000000E+00 -0.00000000000E+00 -0.45593999997E+02  0.45594000000E+02  0.51100000000E-03 0.  1.
    9900012    2    1    2    0    0 -0.94824743628E+01 -0.21749877640E+02  0.21301362402E+02  0.59301913103E+02  0.49999943600E+02 0.  0.
        -12    1    1    2    0    0  0.94824743628E+01  0.21749877640E+02 -0.21301362402E+02  0.31886086897E+02  0.00000000000E+00 0.  1.
         11    1    3    3    0    0  0.11586933215E+02 -0.74662338927E+01  0.17199606211E+02  0.22041509112E+02  0.51100000000E-03 0. -1.
        -11    1    3    3    0    0 -0.18742880380E+02 -0.13632222619E+02 -0.83060439428E+01  0.24619574016E+02  0.51100000000E-03 0.  1.
        -12    1    3    3    0    0 -0.23265271972E+01 -0.65142112858E+00  0.12407800135E+02  0.12640829975E+02  0.00000000000E+00 0.  1.
</event>
<event>
 7    1  0.1096439E-011  0.5930208E+02  0.7816164E-02  0.1266604E+00
        -11   -1    0    0    0    0  0.00000000000E+00  0.00000000000E+00  0.45593999997E+02  0.45594000000E+02  0.51100000000E-03 0. -1.
         11   -1    0    0    0    0 -0.00000000000E+00 -0.00000000000E+00 -0.45593999997E+02  0.45594000000E+02  0.51100000000E-03 0.  1.
    9900012    2    1    2    0    0  0.57742735358E+01  0.28713673158E+02  0.12605351576E+02  0.59302075998E+02  0.50000240682E+02 0.  0.
        -12    1    1    2    0    0 -0.57742735358E+01 -0.28713673158E+02 -0.12605351576E+02  0.31885924002E+02  0.00000000000E+00 0.  1.
         11    1    3    3    0    0 -0.15931122849E+02  0.29736298186E+01  0.13454408123E+02  0.21063338950E+02  0.51100000000E-03 0. -1.
        -11    1    3    3    0    0  0.17844723975E+02  0.12997033192E+02 -0.75514556994E+01  0.23331985106E+02  0.51100000000E-03 0.  1.
         12    1    3    3    0    0  0.38606724098E+01  0.12743010147E+02  0.67023991527E+01  0.14906751942E+02  0.00000000000E+00 0. -1.
</event>
<event>
 7    1  0.1096439E-011  0.5930192E+02  0.7816164E-02  0.1266605E+00
        -11   -1    0    0    0    0  0.00000000000E+00  0.00000000000E+00  0.45593999997E+02  0.45594000000E+02  0.51100000000E-03 0. -1.
         11   -1    0    0    0    0 -0.00000000000E+00 -0.00000000000E+00 -0.45593999997E+02  0.45594000000E+02  0.51100000000E-03 0.  1.
    9900012    2    1    2    0    0 -0.98634945383E+00  0.97464613576E+01  0.30343958926E+02  0.59301917809E+02  0.49999952182E+02 0.  0.
        -12    1    1    2    0    0  0.98634945383E+00 -0.97464613576E+01 -0.30343958926E+02  0.31886082191E+02  0.00000000000E+00 0.  1.
         11    1    3    3    0    0  0.14582831729E+02 -0.79406462687E+01 -0.24078200584E+01  0.16778272918E+02  0.51100000000E-03 0.  1.
        -11    1    3    3    0    0 -0.17363460945E+02  0.14660701351E+02  0.31386555824E+02  0.38749733248E+02  0.51100000000E-03 0. -1.
         12    1    3    3    0    0  0.17942797615E+01  0.30264062753E+01  0.13652231603E+01  0.37739116422E+01  0.00000000000E+00 0. -1.
</event>
<event>
 7    1  0.1096439E-011  0.5930192E+02  0.7816164E-02  0.1266605E+00
        -11   -1    0    0    0    0  0.00000000000E+00  0.00000000000E+00  0.45593999997E+02  0.45594000000E+02  0.51100000000E-03 0. -1.
         11   -1    0    0    0    0 -0.00000000000E+00 -0.00000000000E+00 -0.45593999997E+02  0.45594000000E+02  0.51100000000E-03 0.  1.
    9900012    2    1    2    0    0 -0.22587372041E+02  0.13139639718E+02  0.18272454677E+02  0.59301919846E+02  0.49999955899E+02 0.  0.
        -12    1    1    2    0    0  0.22587372041E+02 -0.13139639718E+02 -0.18272454677E+02  0.31886080154E+02  0.00000000000E+00 0.  1.
         11    1    3    3    0    0 -0.15398231902E+02 -0.12798015434E+02  0.62872405303E+01  0.20986284533E+02  0.51100000000E-03 0. -1.
        -11    1    3    3    0    0 -0.62777410975E+01  0.30152673897E+02  0.13655881184E+02  0.33690901852E+02  0.51100000000E-03 0.  1.
        -12    1    3    3    0    0 -0.91139904199E+00 -0.42150187453E+01 -0.16706670381E+01  0.46247334614E+01  0.00000000000E+00 0.  1.
</event>
<event>
 7    1  0.1096439E-011  0.5930195E+02  0.7816164E-02  0.1266605E+00
        -11   -1    0    0    0    0  0.00000000000E+00  0.00000000000E+00  0.45593999997E+02  0.45594000000E+02  0.51100000000E-03 0. -1.
         11   -1    0    0    0    0 -0.00000000000E+00 -0.00000000000E+00 -0.45593999997E+02  0.45594000000E+02  0.51100000000E-03 0.  1.
    9900012    2    1    2    0    0 -0.28321068631E+02 -0.14642789872E+02 -0.47552653090E+00  0.59301947420E+02  0.50000006187E+02 0.  0.
        -12    1    1    2    0    0  0.28321068631E+02  0.14642789872E+02  0.47552653090E+00  0.31886052580E+02  0.00000000000E+00 0.  1.
         11    1    3    3    0    0 -0.11554316017E+02 -0.23508106615E+02  0.62529160680E+01  0.26930136555E+02  0.51100000000E-03 0. -1.
        -11    1    3    3    0    0 -0.22677772498E+02  0.85892581800E+01 -0.92303493017E+01  0.25947178460E+02  0.51100000000E-03 0.  1.
         12    1    3    3    0    0  0.59110198836E+01  0.27605856338E+00  0.25019067029E+01  0.64246324054E+01  0.00000000000E+00 0. -1.
</event>
<event>
 7    1  0.1096439E-011  0.5930195E+02  0.7816164E-02  0.1266605E+00
        -11   -1    0    0    0    0  0.00000000000E+00  0.00000000000E+00  0.45593999997E+02  0.45594000000E+02  0.51100000000E-03 0. -1.
         11   -1    0    0    0    0 -0.00000000000E+00 -0.00000000000E+00 -0.45593999997E+02  0.45594000000E+02  0.51100000000E-03 0.  1.
    9900012    2    1    2    0    0 -0.27907653513E+02  0.10888257398E+02  0.10923770543E+02  0.59301952320E+02  0.50000015123E+02 0.  0.
        -12    1    1    2    0    0  0.27907653513E+02 -0.10888257398E+02 -0.10923770543E+02  0.31886047680E+02  0.00000000000E+00 0.  1.
         11    1    3    3    0    0 -0.30477107294E+02  0.64439861401E+01  0.19387175847E+01  0.31211178326E+02  0.51100000000E-03 0. -1.
        -11    1    3    3    0    0  0.24615826791E+01 -0.87073442682E+01  0.11568911947E+02  0.14687305995E+02  0.51100000000E-03 0.  1.
         12    1    3    3    0    0  0.10787110110E+00  0.13151615526E+02 -0.25838589896E+01  0.13403467999E+02  0.00000000000E+00 0. -1.
</event>
<event>
 7    1  0.1096439E-011  0.5930194E+02  0.7816164E-02  0.1266605E+00
        -11   -1    0    0    0    0  0.00000000000E+00  0.00000000000E+00  0.45593999997E+02  0.45594000000E+02  0.51100000000E-03 0. -1.
         11   -1    0    0    0    0 -0.00000000000E+00 -0.00000000000E+00 -0.45593999997E+02  0.45594000000E+02  0.51100000000E-03 0.  1.
    9900012    2    1    2    0    0 -0.11506696031E+02  0.29306069481E+02  0.50468717770E+01  0.59301942284E+02  0.49999996819E+02 0.  0.
        -12    1    1    2    0    0  0.11506696031E+02 -0.29306069481E+02 -0.50468717770E+01  0.31886057716E+02  0.00000000000E+00 0.  1.
         11    1    3    3    0    0  0.62296056796E+00  0.11923572668E+02  0.90273723167E+01  0.14968403931E+02  0.51100000000E-03 0. -1.
        -11    1    3    3    0    0 -0.76857257691E+01 -0.48061330456E+01 -0.16238694647E+02  0.18597432606E+02  0.51100000000E-03 0.  1.
        -12    1    3    3    0    0 -0.44439308295E+01  0.22188629858E+02  0.12258194107E+02  0.25736105746E+02  0.00000000000E+00 0.  1.
</event>
<event>
 7    1  0.1096439E-011  0.5930194E+02  0.7816164E-02  0.1266605E+00
        -11   -1    0    0    0    0  0.00000000000E+00  0.00000000000E+00  0.45593999997E+02  0.45594000000E+02  0.51100000000E-03 0. -1.
         11   -1    0    0    0    0 -0.00000000000E+00 -0.00000000000E+00 -0.45593999997E+02  0.45594000000E+02  0.51100000000E-03 0.  1.
    9900012    2    1    2    0    0  0.14153149297E+02 -0.21202954314E+02  0.19153166935E+02  0.59301941756E+02  0.49999995857E+02 0.  0.
        -12    1    1    2    0    0 -0.14153149297E+02  0.21202954314E+02 -0.19153166935E+02  0.31886058244E+02  0.00000000000E+00 0.  1.
         11    1    3    3    0    0 -0.12299122908E+02 -0.20380880305E+02  0.11643685367E+02  0.26499511609E+02  0.51100000000E-03 0. -1.
        -11    1    3    3    0    0  0.18633649772E+02  0.59829814045E+01  0.10234154080E+02  0.22084992196E+02  0.51100000000E-03 0.  1.
        -12    1    3    3    0    0  0.78186224330E+01 -0.68050554138E+01 -0.27246725116E+01  0.10717437951E+02  0.00000000000E+00 0.  1.
</event>
<event>
 7    1  0.1096439E-011  0.5930175E+02  0.7816164E-02  0.1266605E+00
        -11   -1    0    0    0    0  0.00000000000E+00  0.00000000000E+00  0.45593999997E+02  0.45594000000E+02  0.51100000000E-03 0.  1.
         11   -1    0    0    0    0 -0.00000000000E+00 -0.00000000000E+00 -0.45593999997E+02  0.45594000000E+02  0.51100000000E-03 0. -1.
    9900012    2    1    2    0    0 -0.64759882430E+01  0.31209529604E+02  0.87156967002E+00  0.59301752250E+02  0.49999650243E+02 0.  0.
        -12    1    1    2    0    0  0.64759882430E+01 -0.31209529604E+02 -0.87156967002E+00  0.31886247750E+02  0.00000000000E+00 0.  1.
         11    1    3    3    0    0  0.16710467133E+01  0.69938841864E+00 -0.66562988410E+01  0.68983951612E+01  0.51100000000E-03 0. -1.
        -11    1    3    3    0    0  0.12114379899E+02  0.51482623772E+01  0.14093588679E+02  0.19284502792E+02  0.51100000000E-03 0.  1.
        -12    1    3    3    0    0 -0.20261414855E+02  0.25361878809E+02 -0.65657201679E+01  0.33118854297E+02  0.00000000000E+00 0.  1.
</event>
<event>
 7    1  0.1096439E-011  0.5930190E+02  0.7816164E-02  0.1266605E+00
        -11   -1    0    0    0    0  0.00000000000E+00  0.00000000000E+00  0.45593999997E+02  0.45594000000E+02  0.51100000000E-03 0.  1.
         11   -1    0    0    0    0 -0.00000000000E+00 -0.00000000000E+00 -0.45593999997E+02  0.45594000000E+02  0.51100000000E-03 0. -1.
    9900012    2    1    2    0    0  0.12697318571E+02 -0.59384862060E+01 -0.28639756991E+02  0.59301902750E+02  0.49999924720E+02 0.  0.
        -12    1    1    2    0    0 -0.12697318571E+02  0.59384862060E+01  0.28639756991E+02  0.31886097250E+02  0.00000000000E+00 0.  1.
         11    1    3    3    0    0  0.25775951063E+02 -0.15549979202E+02 -0.10759151470E+02  0.31968122357E+02  0.51100000000E-03 0. -1.
        -11    1    3    3    0    0 -0.25270170131E+01  0.26912914506E+01  0.16801926733E+01  0.40560957012E+01  0.51100000000E-03 0.  1.
         12    1    3    3    0    0 -0.10551615479E+02  0.69202015449E+01 -0.19560798195E+02  0.23277684692E+02  0.00000000000E+00 0. -1.
</event>
<event>
 7    1  0.1096439E-011  0.5930185E+02  0.7816164E-02  0.1266605E+00
        -11   -1    0    0    0    0  0.00000000000E+00  0.00000000000E+00  0.45593999997E+02  0.45594000000E+02  0.51100000000E-03 0.  1.
         11   -1    0    0    0    0 -0.00000000000E+00 -0.00000000000E+00 -0.45593999997E+02  0.45594000000E+02  0.51100000000E-03 0. -1.
    9900012    2    1    2    0    0 -0.68927615007E+01  0.66273658004E+01 -0.30418653342E+02  0.59301849250E+02  0.49999827147E+02 0.  0.
        -12    1    1    2    0    0  0.68927615007E+01 -0.66273658004E+01  0.30418653342E+02  0.31886150750E+02  0.00000000000E+00 0.  1.
         11    1    3    3    0    0 -0.43576738926E+01 -0.51843364106E+00 -0.11828521565E+02  0.12616339321E+02  0.51100000000E-03 0. -1.
        -11    1    3    3    0    0 -0.33115168667E+01  0.21336256337E+02  0.19812687328E+01  0.21682421555E+02  0.51100000000E-03 0.  1.
        -12    1    3    3    0    0  0.77642925847E+00 -0.14190456895E+02 -0.20571400509E+02  0.25003088373E+02  0.00000000000E+00 0.  1.
</event>
<event>
 7    1  0.1096439E-011  0.5930191E+02  0.7816164E-02  0.1266605E+00
        -11   -1    0    0    0    0  0.00000000000E+00  0.00000000000E+00  0.45593999997E+02  0.45594000000E+02  0.51100000000E-03 0.  1.
         11   -1    0    0    0    0 -0.00000000000E+00 -0.00000000000E+00 -0.45593999997E+02  0.45594000000E+02  0.51100000000E-03 0. -1.
    9900012    2    1    2    0    0 -0.30056664016E+02 -0.10392324256E+02  0.23063171990E+01  0.59301912843E+02  0.49999943126E+02 0.  0.
        -12    1    1    2    0    0  0.30056664016E+02  0.10392324256E+02 -0.23063171990E+01  0.31886087157E+02  0.00000000000E+00 0.  1.
         11    1    3    3    0    0 -0.19153705171E+02 -0.13510861494E+02 -0.85259491455E+01  0.24941924729E+02  0.51100000000E-03 0. -1.
        -11    1    3    3    0    0 -0.75222300478E+01 -0.69208966321E+01  0.18600168108E+02  0.21223784041E+02  0.51100000000E-03 0.  1.
        -12    1    3    3    0    0 -0.33807287971E+01  0.10039433871E+02 -0.77679017637E+01  0.13136204073E+02  0.00000000000E+00 0.  1.
</event>
<event>
 7    1  0.1096439E-011  0.5930194E+02  0.7816164E-02  0.1266605E+00
        -11   -1    0    0    0    0  0.00000000000E+00  0.00000000000E+00  0.45593999997E+02  0.45594000000E+02  0.51100000000E-03 0.  1.
         11   -1    0    0    0    0 -0.00000000000E+00 -0.00000000000E+00 -0.45593999997E+02  0.45594000000E+02  0.51100000000E-03 0. -1.
    9900012    2    1    2    0    0  0.19593533086E+02 -0.24859630792E+02 -0.38487922475E+01  0.59301937470E+02  0.49999988040E+02 0.  0.
        -12    1    1    2    0    0 -0.19593533086E+02  0.24859630792E+02  0.38487922475E+01  0.31886062530E+02  0.00000000000E+00 0.  1.
         11    1    3    3    0    0  0.24031292718E+02 -0.26572355009E+01  0.75709714199E+01  0.25335420634E+02  0.51100000000E-03 0. -1.
        -11    1    3    3    0    0  0.12201642922E+01 -0.19014286655E+02  0.18999762472E+01  0.19147893041E+02  0.51100000000E-03 0.  1.
         12    1    3    3    0    0 -0.56579239240E+01 -0.31881086364E+01 -0.13319739915E+02  0.14818623796E+02  0.00000000000E+00 0. -1.
</event>
<event>
 7    1  0.1096439E-011  0.5930197E+02  0.7816164E-02  0.1266605E+00
        -11   -1    0    0    0    0  0.00000000000E+00  0.00000000000E+00  0.45593999997E+02  0.45594000000E+02  0.51100000000E-03 0.  1.
         11   -1    0    0    0    0 -0.00000000000E+00 -0.00000000000E+00 -0.45593999997E+02  0.45594000000E+02  0.51100000000E-03 0. -1.
    9900012    2    1    2    0    0 -0.25240503447E+02 -0.19154294858E+02  0.35706021702E+01  0.59301965038E+02  0.50000038317E+02 0.  0.
        -12    1    1    2    0    0  0.25240503447E+02  0.19154294858E+02 -0.35706021702E+01  0.31886034962E+02  0.00000000000E+00 0.  1.
         11    1    3    3    0    0 -0.20261785659E+02  0.33445477088E+01 -0.41097439171E+01  0.20943160048E+02  0.51100000000E-03 0. -1.
        -11    1    3    3    0    0 -0.10996858911E+02 -0.20578119479E+02  0.15720304028E+02  0.28133927316E+02  0.51100000000E-03 0.  1.
        -12    1    3    3    0    0  0.60181411232E+01 -0.19207230878E+01 -0.80399579407E+01  0.10224877674E+02  0.00000000000E+00 0.  1.
</event>
<event>
 7    1  0.1096439E-011  0.5930198E+02  0.7816164E-02  0.1266605E+00
        -11   -1    0    0    0    0  0.00000000000E+00  0.00000000000E+00  0.45593999997E+02  0.45594000000E+02  0.51100000000E-03 0.  1.
         11   -1    0    0    0    0 -0.00000000000E+00 -0.00000000000E+00 -0.45593999997E+02  0.45594000000E+02  0.51100000000E-03 0. -1.
    9900012    2    1    2    0    0 -0.64636540764E+01 -0.84280583083E+01 -0.30065049951E+02  0.59301980816E+02  0.50000067093E+02 0.  0.
        -12    1    1    2    0    0  0.64636540764E+01  0.84280583083E+01  0.30065049951E+02  0.31886019184E+02  0.00000000000E+00 0.  1.
         11    1    3    3    0    0 -0.21299789739E+02 -0.81820574374E+01 -0.12816505147E+02  0.26170401435E+02  0.51100000000E-03 0. -1.
        -11    1    3    3    0    0  0.52174241024E+01  0.72140702767E+01 -0.18857088368E+02  0.20853155785E+02  0.51100000000E-03 0.  1.
         12    1    3    3    0    0  0.96187115603E+01 -0.74600711476E+01  0.16085435633E+01  0.12278423596E+02  0.00000000000E+00 0. -1.
</event>
<event>
 7    1  0.1096439E-011  0.5930189E+02  0.7816164E-02  0.1266605E+00
        -11   -1    0    0    0    0  0.00000000000E+00  0.00000000000E+00  0.45593999997E+02  0.45594000000E+02  0.51100000000E-03 0.  1.
         11   -1    0    0    0    0 -0.00000000000E+00 -0.00000000000E+00 -0.45593999997E+02  0.45594000000E+02  0.51100000000E-03 0. -1.
    9900012    2    1    2    0    0  0.25833904962E+01  0.20705804303E+02 -0.24110577957E+02  0.59301886914E+02  0.49999895839E+02 0.  0.
        -12    1    1    2    0    0 -0.25833904962E+01 -0.20705804303E+02  0.24110577957E+02  0.31886113086E+02  0.00000000000E+00 0.  1.
         11    1    3    3    0    0  0.12821825143E+02 -0.83238986770E+01 -0.72757781764E+01  0.16929956808E+02  0.51100000000E-03 0. -1.
        -11    1    3    3    0    0 -0.43695960419E+01  0.28998834032E+02 -0.58301594923E+01  0.29900108774E+02  0.51100000000E-03 0.  1.
         12    1    3    3    0    0 -0.58688386053E+01  0.30868948810E-01 -0.11004640288E+02  0.12471821332E+02  0.00000000000E+00 0. -1.
</event>
<event>
 7    1  0.1096439E-011  0.5930193E+02  0.7816164E-02  0.1266605E+00
        -11   -1    0    0    0    0  0.00000000000E+00  0.00000000000E+00  0.45593999997E+02  0.45594000000E+02  0.51100000000E-03 0.  1.
         11   -1    0    0    0    0 -0.00000000000E+00 -0.00000000000E+00 -0.45593999997E+02  0.45594000000E+02  0.51100000000E-03 0. -1.
    9900012    2    1    2    0    0 -0.21187712720E+02 -0.79364909482E+01 -0.22468073622E+02  0.59301931080E+02  0.49999976387E+02 0.  0.
        -12    1    1    2    0    0  0.21187712720E+02  0.79364909482E+01  0.22468073622E+02  0.31886068920E+02  0.00000000000E+00 0.  1.
         11    1    3    3    0    0 -0.86008905150E+01 -0.10155919193E+02 -0.21474395403E+02  0.25263959913E+02  0.51100000000E-03 0. -1.
        -11    1    3    3    0    0 -0.35621387573E+01 -0.98718022153E+01  0.10670878610E+02  0.14966928946E+02  0.51100000000E-03 0.  1.
        -12    1    3    3    0    0 -0.90246834477E+01  0.12091230460E+02 -0.11664556829E+02  0.19071042221E+02  0.00000000000E+00 0.  1.
</event>
<event>
 7    1  0.1096439E-011  0.5930195E+02  0.7816164E-02  0.1266605E+00
        -11   -1    0    0    0    0  0.00000000000E+00  0.00000000000E+00  0.45593999997E+02  0.45594000000E+02  0.51100000000E-03 0.  1.
         11   -1    0    0    0    0 -0.00000000000E+00 -0.00000000000E+00 -0.45593999997E+02  0.45594000000E+02  0.51100000000E-03 0. -1.
    9900012    2    1    2    0    0 -0.48891261564E+00  0.22466515877E+02 -0.22621600094E+02  0.59301950355E+02  0.50000011539E+02 0.  0.
        -12    1    1    2    0    0  0.48891261564E+00 -0.22466515877E+02  0.22621600094E+02  0.31886049645E+02  0.00000000000E+00 0.  1.
         11    1    3    3    0    0  0.65640653076E+01  0.15722158218E+02 -0.21230169250E+02  0.27221192095E+02  0.51100000000E-03 0. -1.
        -11    1    3    3    0    0 -0.47031232250E+01 -0.11480577260E+01  0.13896727200E+02  0.14715856473E+02  0.51100000000E-03 0.  1.
        -12    1    3    3    0    0 -0.23498546982E+01  0.78924153844E+01 -0.15288158043E+02  0.17364901787E+02  0.00000000000E+00 0.  1.
</event>
<event>
 7    1  0.1096439E-011  0.5930195E+02  0.7816164E-02  0.1266605E+00
        -11   -1    0    0    0    0  0.00000000000E+00  0.00000000000E+00  0.45593999997E+02  0.45594000000E+02  0.51100000000E-03 0. -1.
         11   -1    0    0    0    0 -0.00000000000E+00 -0.00000000000E+00 -0.45593999997E+02  0.45594000000E+02  0.51100000000E-03 0.  1.
    9900012    2    1    2    0    0  0.20215569093E+02  0.23564722659E+02  0.72632401148E+01  0.59301952194E+02  0.50000014893E+02 0.  0.
        -12    1    1    2    0    0 -0.20215569093E+02 -0.23564722659E+02 -0.72632401148E+01  0.31886047806E+02  0.00000000000E+00 0.  1.
         11    1    3    3    0    0  0.35644333667E+01  0.27069614188E+01  0.77801161962E+01  0.89756912623E+01  0.51100000000E-03 0. -1.
        -11    1    3    3    0    0  0.37449947661E+01  0.44735347911E+01 -0.20576976696E+02  0.21388068392E+02  0.51100000000E-03 0.  1.
        -12    1    3    3    0    0  0.12906140960E+02  0.16384226449E+02  0.20060100614E+02  0.28938192540E+02  0.00000000000E+00 0.  1.
</event>
<event>
 7    1  0.1096439E-011  0.5930195E+02  0.7816164E-02  0.1266605E+00
        -11   -1    0    0    0    0  0.00000000000E+00  0.00000000000E+00  0.45593999997E+02  0.45594000000E+02  0.51100000000E-03 0.  1.
         11   -1    0    0    0    0 -0.00000000000E+00 -0.00000000000E+00 -0.45593999997E+02  0.45594000000E+02  0.51100000000E-03 0. -1.
    9900012    2    1    2    0    0  0.28635058906E+02 -0.39881371606E+01 -0.13447990101E+02  0.59301948594E+02  0.50000008327E+02 0.  0.
        -12    1    1    2    0    0 -0.28635058906E+02  0.39881371606E+01  0.13447990101E+02  0.31886051406E+02  0.00000000000E+00 0.  1.
         11    1    3    3    0    0 -0.80408991911E+01 -0.14573438975E+02 -0.34142128232E+01  0.16991116291E+02  0.51100000000E-03 0. -1.
        -11    1    3    3    0    0  0.29745858202E+02  0.10685802210E+02 -0.19563785977E+01  0.31667489110E+02  0.51100000000E-03 0.  1.
         12    1    3    3    0    0  0.69300998945E+01 -0.10050039591E+00 -0.80773986799E+01  0.10643343192E+02  0.00000000000E+00 0. -1.
</event>
<event>
 7    1  0.1096439E-011  0.5930193E+02  0.7816164E-02  0.1266605E+00
        -11   -1    0    0    0    0  0.00000000000E+00  0.00000000000E+00  0.45593999997E+02  0.45594000000E+02  0.51100000000E-03 0.  1.
         11   -1    0    0    0    0 -0.00000000000E+00 -0.00000000000E+00 -0.45593999997E+02  0.45594000000E+02  0.51100000000E-03 0. -1.
    9900012    2    1    2    0    0  0.66193633997E+01  0.52579436303E+01 -0.30745069242E+02  0.59301933674E+02  0.49999981118E+02 0.  0.
        -12    1    1    2    0    0 -0.66193633997E+01 -0.52579436303E+01  0.30745069242E+02  0.31886066326E+02  0.00000000000E+00 0.  1.
         11    1    3    3    0    0 -0.75276829496E+01  0.54368929227E+01 -0.34417099291E+02  0.35647756439E+02  0.51100000000E-03 0. -1.
        -11    1    3    3    0    0  0.56736701861E+01 -0.33404575542E+01  0.10450721866E+02  0.12351792495E+02  0.51100000000E-03 0.  1.
         12    1    3    3    0    0  0.84733761632E+01  0.31615082618E+01 -0.67786918165E+01  0.11302384741E+02  0.00000000000E+00 0. -1.
</event>
<event>
 7    1  0.1096439E-011  0.5930197E+02  0.7816164E-02  0.1266605E+00
        -11   -1    0    0    0    0  0.00000000000E+00  0.00000000000E+00  0.45593999997E+02  0.45594000000E+02  0.51100000000E-03 0.  1.
         11   -1    0    0    0    0 -0.00000000000E+00 -0.00000000000E+00 -0.45593999997E+02  0.45594000000E+02  0.51100000000E-03 0. -1.
    9900012    2    1    2    0    0 -0.64827256431E+01 -0.29331816136E+02 -0.10692890736E+02  0.59301967292E+02  0.50000042428E+02 0.  0.
        -12    1    1    2    0    0  0.64827256431E+01  0.29331816136E+02  0.10692890736E+02  0.31886032708E+02  0.00000000000E+00 0.  1.
         11    1    3    3    0    0 -0.12571779062E+02 -0.30554649649E+02  0.10506375631E+02  0.34670162577E+02  0.51100000000E-03 0. -1.
        -11    1    3    3    0    0  0.82249821639E+01  0.39098218292E+01 -0.15638857932E+02  0.18097262666E+02  0.51100000000E-03 0.  1.
         12    1    3    3    0    0 -0.21359287445E+01 -0.26869883161E+01 -0.55604084353E+01  0.65345420482E+01  0.00000000000E+00 0. -1.
</event>
<event>
 7    1  0.1096439E-011  0.5930192E+02  0.7816164E-02  0.1266605E+00
        -11   -1    0    0    0    0  0.00000000000E+00  0.00000000000E+00  0.45593999997E+02  0.45594000000E+02  0.51100000000E-03 0.  1.
         11   -1    0    0    0    0 -0.00000000000E+00 -0.00000000000E+00 -0.45593999997E+02  0.45594000000E+02  0.51100000000E-03 0. -1.
    9900012    2    1    2    0    0  0.13573407273E+02 -0.28117685857E+02  0.64715155408E+01  0.59301919082E+02  0.49999954504E+02 0.  0.
        -12    1    1    2    0    0 -0.13573407273E+02  0.28117685857E+02 -0.64715155408E+01  0.31886080918E+02  0.00000000000E+00 0.  1.
         11    1    3    3    0    0  0.13783950817E+02 -0.21652988915E+02  0.10895588650E+02  0.27884818116E+02  0.51100000000E-03 0. -1.
        -11    1    3    3    0    0 -0.73393755787E+01  0.80792644010E+01 -0.94715886422E+01  0.14451710584E+02  0.51100000000E-03 0.  1.
        -12    1    3    3    0    0  0.71288320346E+01 -0.14543961343E+02  0.50475155327E+01  0.16965390381E+02  0.00000000000E+00 0.  1.
</event>
<event>
 7    1  0.1096439E-011  0.5930195E+02  0.7816164E-02  0.1266605E+00
        -11   -1    0    0    0    0  0.00000000000E+00  0.00000000000E+00  0.45593999997E+02  0.45594000000E+02  0.51100000000E-03 0. -1.
         11   -1    0    0    0    0 -0.00000000000E+00 -0.00000000000E+00 -0.45593999997E+02  0.45594000000E+02  0.51100000000E-03 0.  1.
    9900012    2    1    2    0    0  0.11816346500E+02 -0.35208686920E+01  0.29405745088E+02  0.59301946542E+02  0.50000004586E+02 0.  0.
        -12    1    1    2    0    0 -0.11816346500E+02  0.35208686920E+01 -0.29405745088E+02  0.31886053458E+02  0.00000000000E+00 0.  1.
         11    1    3    3    0    0 -0.10076350361E+02 -0.14297775091E+02  0.17866682300E+02  0.25003550664E+02  0.51100000000E-03 0.  1.
        -11    1    3    3    0    0  0.18561151523E+02  0.46665934170E+00  0.13465428834E+00  0.18567505186E+02  0.51100000000E-03 0. -1.
        -12    1    3    3    0    0  0.33315453375E+01  0.10310247058E+02  0.11404408500E+02  0.15730890692E+02  0.00000000000E+00 0.  1.
</event>
<event>
 7    1  0.1096439E-011  0.5930193E+02  0.7816164E-02  0.1266605E+00
        -11   -1    0    0    0    0  0.00000000000E+00  0.00000000000E+00  0.45593999997E+02  0.45594000000E+02  0.51100000000E-03 0. -1.
         11   -1    0    0    0    0 -0.00000000000E+00 -0.00000000000E+00 -0.45593999997E+02  0.45594000000E+02  0.51100000000E-03 0.  1.
    9900012    2    1    2    0    0 -0.22910418906E+02 -0.25388430439E+01  0.22031536141E+02  0.59301927755E+02  0.49999970323E+02 0.  0.
        -12    1    1    2    0    0  0.22910418906E+02  0.25388430439E+01 -0.22031536141E+02  0.31886072245E+02  0.00000000000E+00 0.  1.
         11    1    3    3    0    0  0.97862276603E+01  0.34623370346E+01  0.10468539395E+02  0.14742738785E+02  0.51100000000E-03 0. -1.
        -11    1    3    3    0    0 -0.20869259007E+02  0.68733992174E+01  0.15180632110E+02  0.26706201149E+02  0.51100000000E-03 0.  1.
         12    1    3    3    0    0 -0.11827387559E+02 -0.12874579296E+02 -0.36176353635E+01  0.17852987821E+02  0.00000000000E+00 0. -1.
</event>
<event>
 7    1  0.1096439E-011  0.5930196E+02  0.7816164E-02  0.1266605E+00
        -11   -1    0    0    0    0  0.00000000000E+00  0.00000000000E+00  0.45593999997E+02  0.45594000000E+02  0.51100000000E-03 0.  1.
         11   -1    0    0    0    0 -0.00000000000E+00 -0.00000000000E+00 -0.45593999997E+02  0.45594000000E+02  0.51100000000E-03 0. -1.
    9900012    2    1    2    0    0  0.49565794571E+00  0.27419975047E+02 -0.16267101650E+02  0.59301963801E+02  0.50000036062E+02 0.  0.
        -12    1    1    2    0    0 -0.49565794571E+00 -0.27419975047E+02  0.16267101650E+02  0.31886036199E+02  0.00000000000E+00 0.  1.
         11    1    3    3    0    0  0.25318855377E+01 -0.74619355792E+01  0.67570040552E+01  0.10380174904E+02  0.51100000000E-03 0.  1.
        -11    1    3    3    0    0 -0.97722373265E+01  0.16452036145E+02 -0.21639009666E+02  0.28886205276E+02  0.51100000000E-03 0. -1.
         12    1    3    3    0    0  0.77360097345E+01  0.18429874481E+02 -0.13850960397E+01  0.20035583621E+02  0.00000000000E+00 0. -1.
</event>
<event>
 7    1  0.1096439E-011  0.5930196E+02  0.7816164E-02  0.1266605E+00
        -11   -1    0    0    0    0  0.00000000000E+00  0.00000000000E+00  0.45593999997E+02  0.45594000000E+02  0.51100000000E-03 0. -1.
         11   -1    0    0    0    0 -0.00000000000E+00 -0.00000000000E+00 -0.45593999997E+02  0.45594000000E+02  0.51100000000E-03 0.  1.
    9900012    2    1    2    0    0 -0.30273758960E+02 -0.15541832046E+01  0.98895646207E+01  0.59301961435E+02  0.50000031746E+02 0.  0.
        -12    1    1    2    0    0  0.30273758960E+02  0.15541832046E+01 -0.98895646207E+01  0.31886038565E+02  0.00000000000E+00 0.  1.
         11    1    3    3    0    0 -0.19044835390E+02 -0.13832974753E+02  0.17241010866E+01  0.23601471784E+02  0.51100000000E-03 0. -1.
        -11    1    3    3    0    0  0.95280078163E+01  0.17192426821E+01  0.77608970494E+01  0.12408474992E+02  0.51100000000E-03 0.  1.
        -12    1    3    3    0    0 -0.20756931386E+02  0.10559548866E+02  0.40456648466E+00  0.23292014659E+02  0.00000000000E+00 0.  1.
</event>
<event>
 7    1  0.1096439E-011  0.5930181E+02  0.7816164E-02  0.1266605E+00
        -11   -1    0    0    0    0  0.00000000000E+00  0.00000000000E+00  0.45593999997E+02  0.45594000000E+02  0.51100000000E-03 0. -1.
         11   -1    0    0    0    0 -0.00000000000E+00 -0.00000000000E+00 -0.45593999997E+02  0.45594000000E+02  0.51100000000E-03 0.  1.
    9900012    2    1    2    0    0  0.63006700012E+01 -0.16791337334E+01  0.31212354639E+02  0.59301811537E+02  0.49999758369E+02 0.  0.
        -12    1    1    2    0    0 -0.63006700012E+01  0.16791337334E+01 -0.31212354639E+02  0.31886188463E+02  0.00000000000E+00 0.  1.
         11    1    3    3    0    0  0.19472825264E+02 -0.16140279945E+02  0.58303138912E+01  0.25955579763E+02  0.51100000000E-03 0. -1.
        -11    1    3    3    0    0 -0.64282097879E+01  0.10182687680E+01  0.63956486697E+01  0.91248602470E+01  0.51100000000E-03 0.  1.
         12    1    3    3    0    0 -0.67439454751E+01  0.13442877444E+02  0.18986392078E+02  0.24221371528E+02  0.00000000000E+00 0. -1.
</event>
<event>
 7    1  0.1096439E-011  0.5930195E+02  0.7816164E-02  0.1266605E+00
        -11   -1    0    0    0    0  0.00000000000E+00  0.00000000000E+00  0.45593999997E+02  0.45594000000E+02  0.51100000000E-03 0.  1.
         11   -1    0    0    0    0 -0.00000000000E+00 -0.00000000000E+00 -0.45593999997E+02  0.45594000000E+02  0.51100000000E-03 0. -1.
    9900012    2    1    2    0    0 -0.29320357001E+02  0.12471654357E+02 -0.12225114312E+01  0.59301952404E+02  0.50000015276E+02 0.  0.
        -12    1    1    2    0    0  0.29320357001E+02 -0.12471654357E+02  0.12225114312E+01  0.31886047596E+02  0.00000000000E+00 0.  1.
         11    1    3    3    0    0 -0.28892641444E+02 -0.53168566396E+01  0.11367991238E+02  0.31500554268E+02  0.51100000000E-03 0.  1.
        -11    1    3    3    0    0  0.71474272323E+01  0.27154921243E+01 -0.58834652733E+01  0.96475270097E+01  0.51100000000E-03 0. -1.
         12    1    3    3    0    0 -0.75751427893E+01  0.15073018873E+02 -0.67070373962E+01  0.18153871126E+02  0.00000000000E+00 0. -1.
</event>
<event>
 7    1  0.1096439E-011  0.5930194E+02  0.7816164E-02  0.1266605E+00
        -11   -1    0    0    0    0  0.00000000000E+00  0.00000000000E+00  0.45593999997E+02  0.45594000000E+02  0.51100000000E-03 0.  1.
         11   -1    0    0    0    0 -0.00000000000E+00 -0.00000000000E+00 -0.45593999997E+02  0.45594000000E+02  0.51100000000E-03 0. -1.
    9900012    2    1    2    0    0  0.23477069674E+02 -0.17677169361E+02 -0.12371979205E+02  0.59301937425E+02  0.49999987958E+02 0.  0.
        -12    1    1    2    0    0 -0.23477069674E+02  0.17677169361E+02  0.12371979205E+02  0.31886062575E+02  0.00000000000E+00 0.  1.
         11    1    3    3    0    0  0.18810135233E+02 -0.10894900611E+02  0.10774458774E+02  0.24261265609E+02  0.51100000000E-03 0.  1.
        -11    1    3    3    0    0 -0.83412624032E+01 -0.48408902163E+01 -0.18902515533E+02  0.21220649621E+02  0.51100000000E-03 0. -1.
        -12    1    3    3    0    0  0.13008196845E+02 -0.19413785337E+01 -0.42439224458E+01  0.13820022196E+02  0.00000000000E+00 0.  1.
</event>
<event>
 7    1  0.1096439E-011  0.5930196E+02  0.7816164E-02  0.1266605E+00
        -11   -1    0    0    0    0  0.00000000000E+00  0.00000000000E+00  0.45593999997E+02  0.45594000000E+02  0.51100000000E-03 0.  1.
         11   -1    0    0    0    0 -0.00000000000E+00 -0.00000000000E+00 -0.45593999997E+02  0.45594000000E+02  0.51100000000E-03 0. -1.
    9900012    2    1    2    0    0 -0.16182233628E+02  0.27369706853E+02 -0.23986925459E+01  0.59301964430E+02  0.50000037210E+02 0.  0.
        -12    1    1    2    0    0  0.16182233628E+02 -0.27369706853E+02  0.23986925459E+01  0.31886035570E+02  0.00000000000E+00 0.  1.
         11    1    3    3    0    0 -0.12632426746E+01 -0.60828438316E+01 -0.50165538894E+01  0.79851477332E+01  0.51100000000E-03 0. -1.
        -11    1    3    3    0    0  0.84120041245E+01  0.24907626455E+02 -0.36170138625E+00  0.26292251656E+02  0.51100000000E-03 0.  1.
        -12    1    3    3    0    0 -0.23330995078E+02  0.85449242296E+01  0.29795627297E+01  0.25024565041E+02  0.00000000000E+00 0.  1.
</event>
<event>
 7    1  0.1096439E-011  0.5930194E+02  0.7816164E-02  0.1266605E+00
        -11   -1    0    0    0    0  0.00000000000E+00  0.00000000000E+00  0.45593999997E+02  0.45594000000E+02  0.51100000000E-03 0.  1.
         11   -1    0    0    0    0 -0.00000000000E+00 -0.00000000000E+00 -0.45593999997E+02  0.45594000000E+02  0.51100000000E-03 0. -1.
    9900012    2    1    2    0    0 -0.15131271055E+02  0.27993298126E+02  0.20348932284E+01  0.59301938873E+02  0.49999990599E+02 0.  0.
        -12    1    1    2    0    0  0.15131271055E+02 -0.27993298126E+02 -0.20348932284E+01  0.31886061127E+02  0.00000000000E+00 0.  1.
         11    1    3    3    0    0 -0.12230962376E+02  0.40165727016E+01 -0.15265106307E+02  0.19968794849E+02  0.51100000000E-03 0. -1.
        -11    1    3    3    0    0  0.11095856935E+02  0.62599919425E+01  0.58880429060E+01  0.14034763616E+02  0.51100000000E-03 0.  1.
        -12    1    3    3    0    0 -0.13996165614E+02  0.17716733482E+02  0.11411956629E+02  0.25298380408E+02  0.00000000000E+00 0.  1.
</event>
<event>
 7    1  0.1096439E-011  0.5930214E+02  0.7816164E-02  0.1266604E+00
        -11   -1    0    0    0    0  0.00000000000E+00  0.00000000000E+00  0.45593999997E+02  0.45594000000E+02  0.51100000000E-03 0.  1.
         11   -1    0    0    0    0 -0.00000000000E+00 -0.00000000000E+00 -0.45593999997E+02  0.45594000000E+02  0.51100000000E-03 0. -1.
    9900012    2    1    2    0    0 -0.22575066540E+02  0.60668571262E+01 -0.21685649938E+02  0.59302144235E+02  0.50000365128E+02 0.  0.
        -12    1    1    2    0    0  0.22575066540E+02 -0.60668571262E+01  0.21685649938E+02  0.31885855765E+02  0.00000000000E+00 0.  1.
         11    1    3    3    0    0 -0.24149259387E+02 -0.29486684755E+01 -0.25712740757E+02  0.35398113117E+02  0.51100000000E-03 0. -1.
        -11    1    3    3    0    0 -0.51937203459E+01  0.13344836043E+02 -0.11182332333E+01  0.14363489335E+02  0.51100000000E-03 0.  1.
         12    1    3    3    0    0  0.67679131933E+01 -0.43293104417E+01  0.51453240529E+01  0.95405417824E+01  0.00000000000E+00 0. -1.
</event>
<event>
 7    1  0.1096439E-011  0.5930194E+02  0.7816164E-02  0.1266605E+00
        -11   -1    0    0    0    0  0.00000000000E+00  0.00000000000E+00  0.45593999997E+02  0.45594000000E+02  0.51100000000E-03 0.  1.
         11   -1    0    0    0    0 -0.00000000000E+00 -0.00000000000E+00 -0.45593999997E+02  0.45594000000E+02  0.51100000000E-03 0. -1.
    9900012    2    1    2    0    0 -0.29338902604E+02 -0.12478985549E+02  0.47412694153E+00  0.59301935917E+02  0.49999985208E+02 0.  0.
        -12    1    1    2    0    0  0.29338902604E+02  0.12478985549E+02 -0.47412694153E+00  0.31886064083E+02  0.00000000000E+00 0.  1.
         11    1    3    3    0    0 -0.18101139568E+02 -0.23278459088E+02 -0.12153841893E+02  0.31894416192E+02  0.51100000000E-03 0. -1.
        -11    1    3    3    0    0 -0.34206831549E+01  0.10862414461E+02 -0.12730233262E+01  0.11459219424E+02  0.51100000000E-03 0.  1.
         12    1    3    3    0    0 -0.78170798815E+01 -0.62940921821E-01  0.13900992161E+02  0.15948300301E+02  0.00000000000E+00 0. -1.
</event>
<event>
 7    1  0.1096439E-011  0.5930195E+02  0.7816164E-02  0.1266605E+00
        -11   -1    0    0    0    0  0.00000000000E+00  0.00000000000E+00  0.45593999997E+02  0.45594000000E+02  0.51100000000E-03 0.  1.
         11   -1    0    0    0    0 -0.00000000000E+00 -0.00000000000E+00 -0.45593999997E+02  0.45594000000E+02  0.51100000000E-03 0. -1.
    9900012    2    1    2    0    0  0.30811071042E+01 -0.31704414573E+02  0.14343085202E+01  0.59301947166E+02  0.50000005723E+02 0.  0.
        -12    1    1    2    0    0 -0.30811071042E+01  0.31704414573E+02 -0.14343085202E+01  0.31886052834E+02  0.00000000000E+00 0.  1.
         11    1    3    3    0    0 -0.20093644350E+01 -0.30282400914E+02 -0.18716809855E+02  0.35656420487E+02  0.51100000000E-03 0. -1.
        -11    1    3    3    0    0  0.62590671159E+01  0.33825441814E+01  0.92014358035E+01  0.11631162771E+02  0.51100000000E-03 0.  1.
         12    1    3    3    0    0 -0.11685955766E+01 -0.48045578408E+01  0.10949682572E+02  0.12014363907E+02  0.00000000000E+00 0. -1.
</event>
<event>
 7    1  0.1096439E-011  0.5930193E+02  0.7816164E-02  0.1266605E+00
        -11   -1    0    0    0    0  0.00000000000E+00  0.00000000000E+00  0.45593999997E+02  0.45594000000E+02  0.51100000000E-03 0.  1.
         11   -1    0    0    0    0 -0.00000000000E+00 -0.00000000000E+00 -0.45593999997E+02  0.45594000000E+02  0.51100000000E-03 0. -1.
    9900012    2    1    2    0    0  0.54629960346E+01 -0.11014525621E+02 -0.29420352435E+02  0.59301933486E+02  0.49999980775E+02 0.  0.
        -12    1    1    2    0    0 -0.54629960346E+01  0.11014525621E+02  0.29420352435E+02  0.31886066514E+02  0.00000000000E+00 0.  1.
         11    1    3    3    0    0  0.25677653572E+01  0.74413312313E+01  0.27925006489E+01  0.83525379112E+01  0.51100000000E-03 0. -1.
        -11    1    3    3    0    0 -0.11180012707E+02 -0.20696628835E+02 -0.12542023558E+02  0.26657934737E+02  0.51100000000E-03 0.  1.
        -12    1    3    3    0    0  0.14075243384E+02  0.22407719826E+01 -0.19670829526E+02  0.24291460838E+02  0.00000000000E+00 0.  1.
</event>
<event>
 7    1  0.1096439E-011  0.5930194E+02  0.7816164E-02  0.1266605E+00
        -11   -1    0    0    0    0  0.00000000000E+00  0.00000000000E+00  0.45593999997E+02  0.45594000000E+02  0.51100000000E-03 0.  1.
         11   -1    0    0    0    0 -0.00000000000E+00 -0.00000000000E+00 -0.45593999997E+02  0.45594000000E+02  0.51100000000E-03 0. -1.
    9900012    2    1    2    0    0  0.22866391838E+02 -0.16227265102E+02 -0.15183053183E+02  0.59301935452E+02  0.49999984360E+02 0.  0.
        -12    1    1    2    0    0 -0.22866391838E+02  0.16227265102E+02  0.15183053183E+02  0.31886064548E+02  0.00000000000E+00 0.  1.
         11    1    3    3    0    0  0.63191949787E+01 -0.11496381294E+02  0.12447749162E+02  0.18084398456E+02  0.51100000000E-03 0.  1.
        -11    1    3    3    0    0  0.15996540614E+02  0.61936223615E+01 -0.24373144484E+02  0.29804369510E+02  0.51100000000E-03 0. -1.
        -12    1    3    3    0    0  0.55065624564E+00 -0.10924506169E+02 -0.32576578610E+01  0.11413167487E+02  0.00000000000E+00 0.  1.
</event>
<event>
 7    1  0.1096439E-011  0.5930193E+02  0.7816164E-02  0.1266605E+00
        -11   -1    0    0    0    0  0.00000000000E+00  0.00000000000E+00  0.45593999997E+02  0.45594000000E+02  0.51100000000E-03 0.  1.
         11   -1    0    0    0    0 -0.00000000000E+00 -0.00000000000E+00 -0.45593999997E+02  0.45594000000E+02  0.51100000000E-03 0. -1.
    9900012    2    1    2    0    0  0.25641786032E+01  0.26290707364E+02 -0.17859042589E+02  0.59301926115E+02  0.49999967331E+02 0.  0.
        -12    1    1    2    0    0 -0.25641786032E+01 -0.26290707364E+02  0.17859042589E+02  0.31886073885E+02  0.00000000000E+00 0.  1.
         11    1    3    3    0    0 -0.88630233909E+01  0.11394685298E+02 -0.14581237848E+02  0.20518395018E+02  0.51100000000E-03 0. -1.
        -11    1    3    3    0    0  0.10972233707E+02 -0.82599551115E+01  0.43387629126E+01  0.14402834264E+02  0.51100000000E-03 0.  1.
        -12    1    3    3    0    0  0.45496828681E+00  0.23155977178E+02 -0.76165676538E+01  0.24380696832E+02  0.00000000000E+00 0.  1.
</event>
<event>
 7    1  0.1096439E-011  0.5930195E+02  0.7816164E-02  0.1266605E+00
        -11   -1    0    0    0    0  0.00000000000E+00  0.00000000000E+00  0.45593999997E+02  0.45594000000E+02  0.51100000000E-03 0. -1.
         11   -1    0    0    0    0 -0.00000000000E+00 -0.00000000000E+00 -0.45593999997E+02  0.45594000000E+02  0.51100000000E-03 0.  1.
    9900012    2    1    2    0    0 -0.10937457072E+02  0.13062578495E+02  0.26952946348E+02  0.59301949116E+02  0.50000009280E+02 0.  0.
        -12    1    1    2    0    0  0.10937457072E+02 -0.13062578495E+02 -0.26952946348E+02  0.31886050884E+02  0.00000000000E+00 0.  1.
         11    1    3    3    0    0 -0.19336889652E+01  0.24378679202E+02  0.12465484343E+02  0.27448997301E+02  0.51100000000E-03 0. -1.
        -11    1    3    3    0    0 -0.80517071051E+01 -0.56813694108E+01 -0.53470991719E+01  0.11211575068E+02  0.51100000000E-03 0.  1.
        -12    1    3    3    0    0 -0.95206100156E+00 -0.56347312967E+01  0.19834561177E+02  0.20641376747E+02  0.00000000000E+00 0.  1.
</event>
<event>
 7    1  0.1096439E-011  0.5930204E+02  0.7816164E-02  0.1266604E+00
        -11   -1    0    0    0    0  0.00000000000E+00  0.00000000000E+00  0.45593999997E+02  0.45594000000E+02  0.51100000000E-03 0. -1.
         11   -1    0    0    0    0 -0.00000000000E+00 -0.00000000000E+00 -0.45593999997E+02  0.45594000000E+02  0.51100000000E-03 0.  1.
    9900012    2    1    2    0    0 -0.23996842362E+02 -0.17822132465E+02  0.11101244633E+02  0.59302039432E+02  0.50000173994E+02 0.  0.
        -12    1    1    2    0    0  0.23996842362E+02  0.17822132465E+02 -0.11101244633E+02  0.31885960568E+02  0.00000000000E+00 0.  1.
         11    1    3    3    0    0 -0.68019127300E+01  0.17711874679E+01  0.25474464850E+02  0.26426340675E+02  0.51100000000E-03 0. -1.
        -11    1    3    3    0    0 -0.15639941347E+02 -0.15700994523E+02 -0.51605283565E+01  0.22754341290E+02  0.51100000000E-03 0.  1.
         12    1    3    3    0    0 -0.15549882852E+01 -0.38923254099E+01 -0.92126918606E+01  0.10121357467E+02  0.00000000000E+00 0. -1.
</event>
<event>
 7    1  0.1096439E-011  0.5930194E+02  0.7816164E-02  0.1266605E+00
        -11   -1    0    0    0    0  0.00000000000E+00  0.00000000000E+00  0.45593999997E+02  0.45594000000E+02  0.51100000000E-03 0.  1.
         11   -1    0    0    0    0 -0.00000000000E+00 -0.00000000000E+00 -0.45593999997E+02  0.45594000000E+02  0.51100000000E-03 0. -1.
    9900012    2    1    2    0    0 -0.13330464524E+02 -0.27411578765E+02  0.93608007613E+01  0.59301944651E+02  0.50000001137E+02 0.  0.
        -12    1    1    2    0    0  0.13330464524E+02  0.27411578765E+02 -0.93608007613E+01  0.31886055349E+02  0.00000000000E+00 0.  1.
         11    1    3    3    0    0  0.15022589844E+02 -0.15976532967E+02 -0.22592743111E+01  0.22046136440E+02  0.51100000000E-03 0. -1.
        -11    1    3    3    0    0 -0.16965404901E+02  0.27320342501E+01  0.64966287567E+01  0.18371041344E+02  0.51100000000E-03 0.  1.
         12    1    3    3    0    0 -0.11387649467E+02 -0.14167080048E+02  0.51234463157E+01  0.18884766867E+02  0.00000000000E+00 0. -1.
</event>
<event>
 7    1  0.1096439E-011  0.5930188E+02  0.7816164E-02  0.1266605E+00
        -11   -1    0    0    0    0  0.00000000000E+00  0.00000000000E+00  0.45593999997E+02  0.45594000000E+02  0.51100000000E-03 0. -1.
         11   -1    0    0    0    0 -0.00000000000E+00 -0.00000000000E+00 -0.45593999997E+02  0.45594000000E+02  0.51100000000E-03 0.  1.
    9900012    2    1    2    0    0 -0.21933685662E+02  0.17807782153E+02 -0.14782451059E+02  0.59301881841E+02  0.49999886587E+02 0.  0.
        -12    1    1    2    0    0  0.21933685662E+02 -0.17807782153E+02  0.14782451059E+02  0.31886118159E+02  0.00000000000E+00 0.  1.
         11    1    3    3    0    0 -0.11938361200E+02 -0.14708218516E+02  0.27264126315E+01  0.19138690816E+02  0.51100000000E-03 0. -1.
        -11    1    3    3    0    0 -0.95462507767E+01  0.16701649989E+02 -0.14424553635E+02  0.24044620274E+02  0.51100000000E-03 0.  1.
         12    1    3    3    0    0 -0.44907368529E+00  0.15814350679E+02 -0.30843100549E+01  0.16118570752E+02  0.00000000000E+00 0. -1.
</event>
<event>
 7    1  0.1096439E-011  0.5930195E+02  0.7816164E-02  0.1266605E+00
        -11   -1    0    0    0    0  0.00000000000E+00  0.00000000000E+00  0.45593999997E+02  0.45594000000E+02  0.51100000000E-03 0. -1.
         11   -1    0    0    0    0 -0.00000000000E+00 -0.00000000000E+00 -0.45593999997E+02  0.45594000000E+02  0.51100000000E-03 0.  1.
    9900012    2    1    2    0    0  0.19865215459E+02  0.10328920829E+02  0.22702567933E+02  0.59301953186E+02  0.50000016702E+02 0.  0.
        -12    1    1    2    0    0 -0.19865215459E+02 -0.10328920829E+02 -0.22702567933E+02  0.31886046814E+02  0.00000000000E+00 0.  1.
         11    1    3    3    0    0  0.66279782127E+01  0.11635913786E+02  0.34959046733E+02  0.37436072625E+02  0.51100000000E-03 0. -1.
        -11    1    3    3    0    0  0.54398872302E+01  0.49043743440E+01 -0.20658671372E+01  0.76100636051E+01  0.51100000000E-03 0.  1.
         12    1    3    3    0    0  0.77973500158E+01 -0.62113673011E+01 -0.10190611663E+02  0.14255816956E+02  0.00000000000E+00 0. -1.
</event>
<event>
 7    1  0.1096439E-011  0.5930194E+02  0.7816164E-02  0.1266605E+00
        -11   -1    0    0    0    0  0.00000000000E+00  0.00000000000E+00  0.45593999997E+02  0.45594000000E+02  0.51100000000E-03 0.  1.
         11   -1    0    0    0    0 -0.00000000000E+00 -0.00000000000E+00 -0.45593999997E+02  0.45594000000E+02  0.51100000000E-03 0. -1.
    9900012    2    1    2    0    0 -0.57437463276E+01  0.62480846543E+01 -0.30735835286E+02  0.59301941064E+02  0.49999994595E+02 0.  0.
        -12    1    1    2    0    0  0.57437463276E+01 -0.62480846543E+01  0.30735835286E+02  0.31886058936E+02  0.00000000000E+00 0.  1.
         11    1    3    3    0    0  0.93680628148E+01 -0.55422363832E+01  0.49051319793E+01  0.11938898820E+02  0.51100000000E-03 0. -1.
        -11    1    3    3    0    0 -0.20756914414E+02  0.44197505321E+01 -0.19926374062E+02  0.29110892708E+02  0.51100000000E-03 0.  1.
        -12    1    3    3    0    0  0.56451052720E+01  0.73705705054E+01 -0.15714593204E+02  0.18252149536E+02  0.00000000000E+00 0.  1.
</event>
<event>
 7    1  0.1096439E-011  0.5930197E+02  0.7816164E-02  0.1266605E+00
        -11   -1    0    0    0    0  0.00000000000E+00  0.00000000000E+00  0.45593999997E+02  0.45594000000E+02  0.51100000000E-03 0. -1.
         11   -1    0    0    0    0 -0.00000000000E+00 -0.00000000000E+00 -0.45593999997E+02  0.45594000000E+02  0.51100000000E-03 0.  1.
    9900012    2    1    2    0    0  0.19326851669E+02  0.21514810197E+02 -0.13427751408E+02  0.59301972321E+02  0.50000051600E+02 0.  0.
        -12    1    1    2    0    0 -0.19326851669E+02 -0.21514810197E+02  0.13427751408E+02  0.31886027679E+02  0.00000000000E+00 0.  1.
         11    1    3    3    0    0  0.23911391510E+01  0.74176263823E+01  0.74205401986E+01  0.10761186955E+02  0.51100000000E-03 0. -1.
        -11    1    3    3    0    0  0.46200053785E+01  0.25953747605E+02 -0.94986204163E+01  0.28020800390E+02  0.51100000000E-03 0.  1.
        -12    1    3    3    0    0  0.12315707140E+02 -0.11856563790E+02 -0.11349671191E+02  0.20519984975E+02  0.00000000000E+00 0.  1.
</event>
<event>
 7    1  0.1096439E-011  0.5930195E+02  0.7816164E-02  0.1266605E+00
        -11   -1    0    0    0    0  0.00000000000E+00  0.00000000000E+00  0.45593999997E+02  0.45594000000E+02  0.51100000000E-03 0.  1.
         11   -1    0    0    0    0 -0.00000000000E+00 -0.00000000000E+00 -0.45593999997E+02  0.45594000000E+02  0.51100000000E-03 0. -1.
    9900012    2    1    2    0    0 -0.19627490733E+02  0.27690144325E+01 -0.24976278647E+02  0.59301947744E+02  0.50000006778E+02 0.  0.
        -12    1    1    2    0    0  0.19627490733E+02 -0.27690144325E+01  0.24976278647E+02  0.31886052256E+02  0.00000000000E+00 0.  1.
         11    1    3    3    0    0 -0.11777788558E+02 -0.16527532495E+01 -0.21952945846E+01  0.12094098362E+02  0.51100000000E-03 0. -1.
        -11    1    3    3    0    0  0.47661917007E+01  0.20409766489E+02 -0.10776245340E+02  0.23566981464E+02  0.51100000000E-03 0.  1.
        -12    1    3    3    0    0 -0.12615893875E+02 -0.15987998807E+02 -0.12004738723E+02  0.23640867918E+02  0.00000000000E+00 0.  1.
</event>
<event>
 7    1  0.1096439E-011  0.5930193E+02  0.7816164E-02  0.1266605E+00
        -11   -1    0    0    0    0  0.00000000000E+00  0.00000000000E+00  0.45593999997E+02  0.45594000000E+02  0.51100000000E-03 0. -1.
         11   -1    0    0    0    0 -0.00000000000E+00 -0.00000000000E+00 -0.45593999997E+02  0.45594000000E+02  0.51100000000E-03 0.  1.
    9900012    2    1    2    0    0 -0.11580778001E+02  0.17615205118E+02  0.23923028137E+02  0.59301934929E+02  0.49999983406E+02 0.  0.
        -12    1    1    2    0    0  0.11580778001E+02 -0.17615205118E+02 -0.23923028137E+02  0.31886065071E+02  0.00000000000E+00 0.  1.
         11    1    3    3    0    0  0.26087081045E+00 -0.70756318349E+01 -0.62907787096E+01  0.94713524101E+01  0.51100000000E-03 0.  1.
        -11    1    3    3    0    0 -0.17906967320E+02  0.13181736015E+02  0.29309794618E+02  0.36789695619E+02  0.51100000000E-03 0. -1.
         12    1    3    3    0    0  0.60653185089E+01  0.11509100938E+02  0.90401222933E+00  0.13040886899E+02  0.00000000000E+00 0. -1.
</event>
<event>
 7    1  0.1096439E-011  0.5930193E+02  0.7816164E-02  0.1266605E+00
        -11   -1    0    0    0    0  0.00000000000E+00  0.00000000000E+00  0.45593999997E+02  0.45594000000E+02  0.51100000000E-03 0.  1.
         11   -1    0    0    0    0 -0.00000000000E+00 -0.00000000000E+00 -0.45593999997E+02  0.45594000000E+02  0.51100000000E-03 0. -1.
    9900012    2    1    2    0    0 -0.13315654461E+02  0.26316713823E+02 -0.12117982412E+02  0.59301928151E+02  0.49999971045E+02 0.  0.
        -12    1    1    2    0    0  0.13315654461E+02 -0.26316713823E+02  0.12117982412E+02  0.31886071849E+02  0.00000000000E+00 0.  1.
         11    1    3    3    0    0  0.11055680906E+02  0.20025333400E+02 -0.74652094375E+01  0.24061824750E+02  0.51100000000E-03 0. -1.
        -11    1    3    3    0    0 -0.22582147923E+02 -0.59979596765E+00 -0.11511607278E+02  0.25354097546E+02  0.51100000000E-03 0.  1.
         12    1    3    3    0    0 -0.17891874446E+01  0.68911763906E+01  0.68588343034E+01  0.98860058548E+01  0.00000000000E+00 0. -1.
</event>
<event>
 7    1  0.1096439E-011  0.5930194E+02  0.7816164E-02  0.1266605E+00
        -11   -1    0    0    0    0  0.00000000000E+00  0.00000000000E+00  0.45593999997E+02  0.45594000000E+02  0.51100000000E-03 0.  1.
         11   -1    0    0    0    0 -0.00000000000E+00 -0.00000000000E+00 -0.45593999997E+02  0.45594000000E+02  0.51100000000E-03 0. -1.
    9900012    2    1    2    0    0  0.17652413602E+02  0.26505287929E+02 -0.16071071060E+01  0.59301940548E+02  0.49999993653E+02 0.  0.
        -12    1    1    2    0    0 -0.17652413602E+02 -0.26505287929E+02  0.16071071060E+01  0.31886059452E+02  0.00000000000E+00 0.  1.
         11    1    3    3    0    0 -0.52692106406E+01 -0.85575170023E+01 -0.37519937238E+01  0.10727214698E+02  0.51100000000E-03 0. -1.
        -11    1    3    3    0    0  0.26537705378E+02  0.22821664192E+02 -0.22547727609E+01  0.35073667668E+02  0.51100000000E-03 0.  1.
        -12    1    3    3    0    0 -0.36160811356E+01  0.12241140739E+02  0.43996593787E+01  0.13501058181E+02  0.00000000000E+00 0.  1.
</event>
<event>
 7    1  0.1151526E-011  0.5930195E+02  0.7816164E-02  0.1266605E+00
        -11   -1    0    0    0    0  0.00000000000E+00  0.00000000000E+00  0.45593999997E+02  0.45594000000E+02  0.51100000000E-03 0.  1.
         11   -1    0    0    0    0 -0.00000000000E+00 -0.00000000000E+00 -0.45593999997E+02  0.45594000000E+02  0.51100000000E-03 0. -1.
    9900012    2    1    2    0    0  0.20557284395E+02 -0.20724795583E+02  0.12829704581E+02  0.59301946414E+02  0.50000004352E+02 0.  0.
        -12    1    1    2    0    0 -0.20557284395E+02  0.20724795583E+02 -0.12829704581E+02  0.31886053586E+02  0.00000000000E+00 0.  1.
         11    1    3    3    0    0  0.14180056796E+02 -0.24072141375E+01  0.12624554748E+02  0.19137608876E+02  0.51100000000E-03 0. -1.
        -11    1    3    3    0    0  0.97236371090E+01 -0.22336870223E+02 -0.11800393586E+02  0.27069063136E+02  0.51100000000E-03 0.  1.
        -12    1    3    3    0    0 -0.33464095104E+01  0.40192887772E+01  0.12005543419E+02  0.13095274402E+02  0.00000000000E+00 0.  1.
</event>
<event>
 7    1  0.1096439E-011  0.5930196E+02  0.7816164E-02  0.1266605E+00
        -11   -1    0    0    0    0  0.00000000000E+00  0.00000000000E+00  0.45593999997E+02  0.45594000000E+02  0.51100000000E-03 0.  1.
         11   -1    0    0    0    0 -0.00000000000E+00 -0.00000000000E+00 -0.45593999997E+02  0.45594000000E+02  0.51100000000E-03 0. -1.
    9900012    2    1    2    0    0 -0.20900456166E+02 -0.18785613185E+02 -0.15066217249E+02  0.59301964924E+02  0.50000038109E+02 0.  0.
        -12    1    1    2    0    0  0.20900456166E+02  0.18785613185E+02  0.15066217249E+02  0.31886035076E+02  0.00000000000E+00 0.  1.
         11    1    3    3    0    0 -0.22486647790E+02  0.29883079714E+00 -0.22092150001E+02  0.31524620864E+02  0.51100000000E-03 0. -1.
        -11    1    3    3    0    0 -0.35611670460E+01 -0.75635039240E+01  0.11649224894E+02  0.14338512588E+02  0.51100000000E-03 0.  1.
         12    1    3    3    0    0  0.51473586701E+01 -0.11520940058E+02 -0.46232921423E+01  0.13438831472E+02  0.00000000000E+00 0. -1.
</event>
<event>
 7    1  0.1096439E-011  0.5930196E+02  0.7816164E-02  0.1266605E+00
        -11   -1    0    0    0    0  0.00000000000E+00  0.00000000000E+00  0.45593999997E+02  0.45594000000E+02  0.51100000000E-03 0.  1.
         11   -1    0    0    0    0 -0.00000000000E+00 -0.00000000000E+00 -0.45593999997E+02  0.45594000000E+02  0.51100000000E-03 0. -1.
    9900012    2    1    2    0    0 -0.11644794325E+02  0.27183180733E+02 -0.11924470169E+02  0.59301960132E+02  0.50000029371E+02 0.  0.
        -12    1    1    2    0    0  0.11644794325E+02 -0.27183180733E+02  0.11924470169E+02  0.31886039868E+02  0.00000000000E+00 0.  1.
         11    1    3    3    0    0 -0.15796280200E+02  0.29110774412E+02 -0.46888975920E+01  0.33450641487E+02  0.51100000000E-03 0. -1.
        -11    1    3    3    0    0 -0.78889735948E+01 -0.37072603301E+01  0.37184463814E+01  0.94766305873E+01  0.51100000000E-03 0.  1.
         12    1    3    3    0    0  0.12040459470E+02  0.17796666513E+01 -0.10954018959E+02  0.16374688058E+02  0.00000000000E+00 0. -1.
</event>
<event>
 7    1  0.1096439E-011  0.5930196E+02  0.7816164E-02  0.1266605E+00
        -11   -1    0    0    0    0  0.00000000000E+00  0.00000000000E+00  0.45593999997E+02  0.45594000000E+02  0.51100000000E-03 0. -1.
         11   -1    0    0    0    0 -0.00000000000E+00 -0.00000000000E+00 -0.45593999997E+02  0.45594000000E+02  0.51100000000E-03 0.  1.
    9900012    2    1    2    0    0  0.16982273418E+01  0.24852389792E+02  0.19904624059E+02  0.59301963662E+02  0.50000035807E+02 0.  0.
        -12    1    1    2    0    0 -0.16982273418E+01 -0.24852389792E+02 -0.19904624059E+02  0.31886036338E+02  0.00000000000E+00 0.  1.
         11    1    3    3    0    0 -0.90767645615E+00  0.98417740393E+01  0.17257833818E+02  0.19887614767E+02  0.51100000000E-03 0. -1.
        -11    1    3    3    0    0  0.92781122898E+01  0.25234708867E+02 -0.16194318633E+00  0.26886802062E+02  0.51100000000E-03 0.  1.
         12    1    3    3    0    0 -0.66722084919E+01 -0.10224093115E+02  0.28087334274E+01  0.12527546833E+02  0.00000000000E+00 0. -1.
</event>
<event>
 7    1  0.1096439E-011  0.5930195E+02  0.7816164E-02  0.1266605E+00
        -11   -1    0    0    0    0  0.00000000000E+00  0.00000000000E+00  0.45593999997E+02  0.45594000000E+02  0.51100000000E-03 0.  1.
         11   -1    0    0    0    0 -0.00000000000E+00 -0.00000000000E+00 -0.45593999997E+02  0.45594000000E+02  0.51100000000E-03 0. -1.
    9900012    2    1    2    0    0 -0.20198099092E+02  0.32903278089E+01 -0.24452621655E+02  0.59301950232E+02  0.50000011315E+02 0.  0.
        -12    1    1    2    0    0  0.20198099092E+02 -0.32903278089E+01  0.24452621655E+02  0.31886049768E+02  0.00000000000E+00 0.  1.
         11    1    3    3    0    0 -0.28462417433E+02  0.25080319107E+01 -0.20015891182E+02  0.34886033456E+02  0.51100000000E-03 0. -1.
        -11    1    3    3    0    0  0.40209820511E+00 -0.24204827882E+01  0.85530116725E+01  0.88980013951E+01  0.51100000000E-03 0.  1.
         12    1    3    3    0    0  0.78622201362E+01  0.32027786865E+01 -0.12989742145E+02  0.15517915381E+02  0.00000000000E+00 0. -1.
</event>
<event>
 7    1  0.1096439E-011  0.5930192E+02  0.7816164E-02  0.1266605E+00
        -11   -1    0    0    0    0  0.00000000000E+00  0.00000000000E+00  0.45593999997E+02  0.45594000000E+02  0.51100000000E-03 0. -1.
         11   -1    0    0    0    0 -0.00000000000E+00 -0.00000000000E+00 -0.45593999997E+02  0.45594000000E+02  0.51100000000E-03 0.  1.
    9900012    2    1    2    0    0 -0.13104204985E+02 -0.10112898867E+02  0.27253091511E+02  0.59301922965E+02  0.49999961587E+02 0.  0.
        -12    1    1    2    0    0  0.13104204985E+02  0.10112898867E+02 -0.27253091511E+02  0.31886077035E+02  0.00000000000E+00 0.  1.
         11    1    3    3    0    0 -0.12236786400E+02  0.18035781275E+01  0.14764339609E+02  0.19260777757E+02  0.51100000000E-03 0. -1.
        -11    1    3    3    0    0 -0.99016297268E+01 -0.21608349039E+02  0.34878755960E+01  0.24023494664E+02  0.51100000000E-03 0.  1.
        -12    1    3    3    0    0  0.90342111419E+01  0.96918720441E+01  0.90008763062E+01  0.16017650544E+02  0.00000000000E+00 0.  1.
</event>
<event>
 7    1  0.1096439E-011  0.5930195E+02  0.7816164E-02  0.1266605E+00
        -11   -1    0    0    0    0  0.00000000000E+00  0.00000000000E+00  0.45593999997E+02  0.45594000000E+02  0.51100000000E-03 0. -1.
         11   -1    0    0    0    0 -0.00000000000E+00 -0.00000000000E+00 -0.45593999997E+02  0.45594000000E+02  0.51100000000E-03 0.  1.
    9900012    2    1    2    0    0  0.16086017496E+02 -0.17778253086E+02  0.21021269574E+02  0.59301952641E+02  0.50000015709E+02 0.  0.
        -12    1    1    2    0    0 -0.16086017496E+02  0.17778253086E+02 -0.21021269574E+02  0.31886047359E+02  0.00000000000E+00 0.  1.
         11    1    3    3    0    0 -0.41451682158E+01  0.36330152511E+01 -0.12999930795E+02  0.14120177772E+02  0.51100000000E-03 0.  1.
        -11    1    3    3    0    0  0.20025493436E+02 -0.20958025968E+02  0.34005626059E+02  0.44683798448E+02  0.51100000000E-03 0. -1.
        -12    1    3    3    0    0  0.20569227540E+00 -0.45324236909E+00  0.15574310251E-01  0.49797642157E+00  0.00000000000E+00 0.  1.
</event>
<event>
 7    1  0.1096439E-011  0.5930202E+02  0.7816164E-02  0.1266604E+00
        -11   -1    0    0    0    0  0.00000000000E+00  0.00000000000E+00  0.45593999997E+02  0.45594000000E+02  0.51100000000E-03 0. -1.
         11   -1    0    0    0    0 -0.00000000000E+00 -0.00000000000E+00 -0.45593999997E+02  0.45594000000E+02  0.51100000000E-03 0.  1.
    9900012    2    1    2    0    0  0.20698775934E+02  0.21083112704E+02  0.11990765965E+02  0.59302024479E+02  0.50000146724E+02 0.  0.
        -12    1    1    2    0    0 -0.20698775934E+02 -0.21083112704E+02 -0.11990765965E+02  0.31885975521E+02  0.00000000000E+00 0.  1.
         11    1    3    3    0    0 -0.13306231962E+02 -0.44656193076E+01  0.69870234792E+01  0.15678522322E+02  0.51100000000E-03 0. -1.
        -11    1    3    3    0    0  0.15146519353E+02  0.13605690773E+02 -0.13790978208E+01  0.20406709215E+02  0.51100000000E-03 0.  1.
         12    1    3    3    0    0  0.18858488543E+02  0.11943041239E+02  0.63828403068E+01  0.23216792943E+02  0.00000000000E+00 0. -1.
</event>
<event>
 7    1  0.1096439E-011  0.5930195E+02  0.7816164E-02  0.1266605E+00
        -11   -1    0    0    0    0  0.00000000000E+00  0.00000000000E+00  0.45593999997E+02  0.45594000000E+02  0.51100000000E-03 0.  1.
         11   -1    0    0    0    0 -0.00000000000E+00 -0.00000000000E+00 -0.45593999997E+02  0.45594000000E+02  0.51100000000E-03 0. -1.
    9900012    2    1    2    0    0 -0.93927929928E+01 -0.19889740364E+02 -0.23084496109E+02  0.59301948307E+02  0.50000007805E+02 0.  0.
        -12    1    1    2    0    0  0.93927929928E+01  0.19889740364E+02  0.23084496109E+02  0.31886051693E+02  0.00000000000E+00 0.  1.
         11    1    3    3    0    0 -0.26828832514E+02 -0.82918494672E+01 -0.30320487181E+01  0.28244191285E+02  0.51100000000E-03 0. -1.
        -11    1    3    3    0    0  0.12273525404E+02 -0.11877261671E+02 -0.10099458964E+02  0.19842072530E+02  0.51100000000E-03 0.  1.
         12    1    3    3    0    0  0.51625141170E+01  0.27937077442E+00 -0.99529884264E+01  0.11215684493E+02  0.00000000000E+00 0. -1.
</event>
<event>
 7    1  0.1096439E-011  0.5930190E+02  0.7816164E-02  0.1266605E+00
        -11   -1    0    0    0    0  0.00000000000E+00  0.00000000000E+00  0.45593999997E+02  0.45594000000E+02  0.51100000000E-03 0. -1.
         11   -1    0    0    0    0 -0.00000000000E+00 -0.00000000000E+00 -0.45593999997E+02  0.45594000000E+02  0.51100000000E-03 0.  1.
    9900012    2    1    2    0    0  0.31351371891E+02 -0.57752423366E+01  0.67909571175E+00  0.59301904057E+02  0.49999927103E+02 0.  0.
        -12    1    1    2    0    0 -0.31351371891E+02  0.57752423366E+01 -0.67909571175E+00  0.31886095943E+02  0.00000000000E+00 0.  1.
         11    1    3    3    0    0  0.21931122554E+02  0.56914072632E+01  0.29216113333E+01  0.22845175994E+02  0.51100000000E-03 0. -1.
        -11    1    3    3    0    0 -0.23669417678E+01 -0.14863197543E+02 -0.13192216077E+02  0.20013785744E+02  0.51100000000E-03 0.  1.
        -12    1    3    3    0    0  0.11787191105E+02  0.33965479430E+01  0.10949700455E+02  0.16442942319E+02  0.00000000000E+00 0.  1.
</event>
<event>
 7    1  0.1096439E-011  0.5930194E+02  0.7816164E-02  0.1266605E+00
        -11   -1    0    0    0    0  0.00000000000E+00  0.00000000000E+00  0.45593999997E+02  0.45594000000E+02  0.51100000000E-03 0. -1.
         11   -1    0    0    0    0 -0.00000000000E+00 -0.00000000000E+00 -0.45593999997E+02  0.45594000000E+02  0.51100000000E-03 0.  1.
    9900012    2    1    2    0    0 -0.36559013600E+01  0.90253205614E+01  0.30362783147E+02  0.59301943072E+02  0.49999998258E+02 0.  0.
        -12    1    1    2    0    0  0.36559013600E+01 -0.90253205614E+01 -0.30362783147E+02  0.31886056928E+02  0.00000000000E+00 0.  1.
         11    1    3    3    0    0  0.36365212756E+01 -0.80250189604E+01  0.12563398223E+02  0.15344842504E+02  0.51100000000E-03 0. -1.
        -11    1    3    3    0    0  0.79602690770E+01  0.21022068947E+02  0.36436811772E+01  0.22772125051E+02  0.51100000000E-03 0.  1.
        -12    1    3    3    0    0 -0.15252691713E+02 -0.39717294247E+01  0.14155703747E+02  0.21184975517E+02  0.00000000000E+00 0.  1.
</event>
<event>
 7    1  0.1096439E-011  0.5930196E+02  0.7816164E-02  0.1266605E+00
        -11   -1    0    0    0    0  0.00000000000E+00  0.00000000000E+00  0.45593999997E+02  0.45594000000E+02  0.51100000000E-03 0.  1.
         11   -1    0    0    0    0 -0.00000000000E+00 -0.00000000000E+00 -0.45593999997E+02  0.45594000000E+02  0.51100000000E-03 0. -1.
    9900012    2    1    2    0    0 -0.12722667666E+02  0.23691226972E+02 -0.17134155833E+02  0.59301955967E+02  0.50000021774E+02 0.  0.
        -12    1    1    2    0    0  0.12722667666E+02 -0.23691226972E+02  0.17134155833E+02  0.31886044033E+02  0.00000000000E+00 0.  1.
         11    1    3    3    0    0 -0.81302006117E+01 -0.13518796899E+02 -0.10475962400E+02  0.18936837647E+02  0.51100000000E-03 0. -1.
        -11    1    3    3    0    0 -0.43542650943E+01  0.20492853909E+02  0.28314596847E+01  0.21140810061E+02  0.51100000000E-03 0.  1.
         12    1    3    3    0    0 -0.23820196016E+00  0.16717169962E+02 -0.94896531173E+01  0.19224308258E+02  0.00000000000E+00 0. -1.
</event>
<event>
 7    1  0.1096439E-011  0.5930201E+02  0.7816164E-02  0.1266605E+00
        -11   -1    0    0    0    0  0.00000000000E+00  0.00000000000E+00  0.45593999997E+02  0.45594000000E+02  0.51100000000E-03 0. -1.
         11   -1    0    0    0    0 -0.00000000000E+00 -0.00000000000E+00 -0.45593999997E+02  0.45594000000E+02  0.51100000000E-03 0.  1.
    9900012    2    1    2    0    0  0.13899141857E+02  0.93626061624E+01  0.27126953517E+02  0.59302013335E+02  0.50000126399E+02 0.  0.
        -12    1    1    2    0    0 -0.13899141857E+02 -0.93626061624E+01 -0.27126953517E+02  0.31885986665E+02  0.00000000000E+00 0.  1.
         11    1    3    3    0    0  0.56851009786E+00 -0.47919968005E+01  0.22841892739E+02  0.23346059651E+02  0.51100000000E-03 0. -1.
        -11    1    3    3    0    0  0.22818356571E+01  0.21881876106E+02  0.45697925602E+01  0.22470119719E+02  0.51100000000E-03 0.  1.
        -12    1    3    3    0    0  0.11048796102E+02 -0.77272731434E+01 -0.28473178182E+00  0.13485833965E+02  0.00000000000E+00 0.  1.
</event>
<event>
 7    1  0.1096439E-011  0.5930192E+02  0.7816164E-02  0.1266605E+00
        -11   -1    0    0    0    0  0.00000000000E+00  0.00000000000E+00  0.45593999997E+02  0.45594000000E+02  0.51100000000E-03 0.  1.
         11   -1    0    0    0    0 -0.00000000000E+00 -0.00000000000E+00 -0.45593999997E+02  0.45594000000E+02  0.51100000000E-03 0. -1.
    9900012    2    1    2    0    0 -0.31773912995E+02 -0.22005001116E+01  0.15159421824E+01  0.59301924223E+02  0.49999963881E+02 0.  0.
        -12    1    1    2    0    0  0.31773912995E+02  0.22005001116E+01 -0.15159421824E+01  0.31886075777E+02  0.00000000000E+00 0.  1.
         11    1    3    3    0    0 -0.97676338193E+01  0.11045879044E+02  0.11317549108E+00  0.14745539096E+02  0.51100000000E-03 0. -1.
        -11    1    3    3    0    0  0.32413258489E+01 -0.15419578592E+02  0.89427750544E+01  0.18117472869E+02  0.51100000000E-03 0.  1.
        -12    1    3    3    0    0 -0.25247605025E+02  0.21731994370E+01 -0.75400083631E+01  0.26438912258E+02  0.00000000000E+00 0.  1.
</event>
<event>
 7    1  0.1290601E-011  0.5930197E+02  0.7816164E-02  0.1266605E+00
        -11   -1    0    0    0    0  0.00000000000E+00  0.00000000000E+00  0.45593999997E+02  0.45594000000E+02  0.51100000000E-03 0.  1.
         11   -1    0    0    0    0 -0.00000000000E+00 -0.00000000000E+00 -0.45593999997E+02  0.45594000000E+02  0.51100000000E-03 0. -1.
    9900012    2    1    2    0    0 -0.30257152499E+02 -0.11513131004E+01 -0.99949127846E+01  0.59301967309E+02  0.50000042460E+02 0.  0.
        -12    1    1    2    0    0  0.30257152499E+02  0.11513131004E+01  0.99949127846E+01  0.31886032691E+02  0.00000000000E+00 0.  1.
         11    1    3    3    0    0 -0.18448381512E+02  0.12819730252E+02 -0.17591728043E+02  0.28533439329E+02  0.51100000000E-03 0. -1.
        -11    1    3    3    0    0 -0.11760784711E+02 -0.36948600177E+01  0.14005199279E+02  0.18657804122E+02  0.51100000000E-03 0.  1.
        -12    1    3    3    0    0 -0.47986276374E-01 -0.10276183335E+02 -0.64083840208E+01  0.12110723858E+02  0.00000000000E+00 0.  1.
</event>
<event>
 7    1  0.1096439E-011  0.5930184E+02  0.7816164E-02  0.1266605E+00
        -11   -1    0    0    0    0  0.00000000000E+00  0.00000000000E+00  0.45593999997E+02  0.45594000000E+02  0.51100000000E-03 0.  1.
         11   -1    0    0    0    0 -0.00000000000E+00 -0.00000000000E+00 -0.45593999997E+02  0.45594000000E+02  0.51100000000E-03 0. -1.
    9900012    2    1    2    0    0  0.17833032097E+02 -0.16301879431E+02 -0.20807659001E+02  0.59301843445E+02  0.49999816561E+02 0.  0.
        -12    1    1    2    0    0 -0.17833032097E+02  0.16301879431E+02  0.20807659001E+02  0.31886156555E+02  0.00000000000E+00 0.  1.
         11    1    3    3    0    0 -0.12410630116E+02  0.26948311981E+01 -0.17352993438E+02  0.21503772613E+02  0.51100000000E-03 0. -1.
        -11    1    3    3    0    0  0.19621546921E+02 -0.11939274723E+02  0.35608315037E+01  0.23242867847E+02  0.51100000000E-03 0.  1.
         12    1    3    3    0    0  0.10622115292E+02 -0.70574359062E+01 -0.70154970662E+01  0.14555202985E+02  0.00000000000E+00 0. -1.
</event>
<event>
 7    1  0.1096439E-011  0.5930194E+02  0.7816164E-02  0.1266605E+00
        -11   -1    0    0    0    0  0.00000000000E+00  0.00000000000E+00  0.45593999997E+02  0.45594000000E+02  0.51100000000E-03 0.  1.
         11   -1    0    0    0    0 -0.00000000000E+00 -0.00000000000E+00 -0.45593999997E+02  0.45594000000E+02  0.51100000000E-03 0. -1.
    9900012    2    1    2    0    0  0.99631071421E+01 -0.10314467073E+02 -0.28479280284E+02  0.59301935012E+02  0.49999983558E+02 0.  0.
        -12    1    1    2    0    0 -0.99631071421E+01  0.10314467073E+02  0.28479280284E+02  0.31886064988E+02  0.00000000000E+00 0.  1.
         11    1    3    3    0    0 -0.45374580389E+01 -0.19786938526E+02 -0.32494476337E+02  0.38314520150E+02  0.51100000000E-03 0. -1.
        -11    1    3    3    0    0  0.10408997591E+02  0.14071763179E+00  0.20998246459E+01  0.10619618454E+02  0.51100000000E-03 0.  1.
         12    1    3    3    0    0  0.40915675901E+01  0.93317538216E+01  0.19153714070E+01  0.10367796408E+02  0.00000000000E+00 0. -1.
</event>
<event>
 7    1  0.1096439E-011  0.5930196E+02  0.7816164E-02  0.1266605E+00
        -11   -1    0    0    0    0  0.00000000000E+00  0.00000000000E+00  0.45593999997E+02  0.45594000000E+02  0.51100000000E-03 0. -1.
         11   -1    0    0    0    0 -0.00000000000E+00 -0.00000000000E+00 -0.45593999997E+02  0.45594000000E+02  0.51100000000E-03 0.  1.
    9900012    2    1    2    0    0  0.31350539614E+02  0.44578649084E+01 -0.37404127076E+01  0.59301959468E+02  0.50000028159E+02 0.  0.
        -12    1    1    2    0    0 -0.31350539614E+02 -0.44578649084E+01  0.37404127076E+01  0.31886040532E+02  0.00000000000E+00 0.  1.
         11    1    3    3    0    0  0.24895547197E+02 -0.21127705660E+02 -0.24580735654E+01  0.32744623110E+02  0.51100000000E-03 0. -1.
        -11    1    3    3    0    0  0.61581333651E+01  0.23060568348E+02 -0.41890133524E+00  0.23872324932E+02  0.51100000000E-03 0.  1.
         12    1    3    3    0    0  0.29685905122E+00  0.25250022207E+01 -0.86343780702E+00  0.26850114259E+01  0.00000000000E+00 0. -1.
</event>
<event>
 7    1  0.1096439E-011  0.5930196E+02  0.7816164E-02  0.1266605E+00
        -11   -1    0    0    0    0  0.00000000000E+00  0.00000000000E+00  0.45593999997E+02  0.45594000000E+02  0.51100000000E-03 0.  1.
         11   -1    0    0    0    0 -0.00000000000E+00 -0.00000000000E+00 -0.45593999997E+02  0.45594000000E+02  0.51100000000E-03 0. -1.
    9900012    2    1    2    0    0 -0.30129363781E+02  0.16832244942E+01  0.10300848757E+02  0.59301964002E+02  0.50000036428E+02 0.  0.
        -12    1    1    2    0    0  0.30129363781E+02 -0.16832244942E+01 -0.10300848757E+02  0.31886035998E+02  0.00000000000E+00 0.  1.
         11    1    3    3    0    0  0.20948388664E+01 -0.12357000082E+02  0.11067268792E+01  0.12582076360E+02  0.51100000000E-03 0. -1.
        -11    1    3    3    0    0 -0.33411666835E+02  0.60142561959E+01  0.14616371419E+02  0.36961453868E+02  0.51100000000E-03 0.  1.
         12    1    3    3    0    0  0.11874641874E+01  0.80259683799E+01 -0.54222495414E+01  0.97584337739E+01  0.00000000000E+00 0. -1.
</event>
<event>
 7    1  0.1096439E-011  0.5930192E+02  0.7816164E-02  0.1266605E+00
        -11   -1    0    0    0    0  0.00000000000E+00  0.00000000000E+00  0.45593999997E+02  0.45594000000E+02  0.51100000000E-03 0.  1.
         11   -1    0    0    0    0 -0.00000000000E+00 -0.00000000000E+00 -0.45593999997E+02  0.45594000000E+02  0.51100000000E-03 0. -1.
    9900012    2    1    2    0    0 -0.28705991651E+02 -0.13814027664E+02 -0.13641909297E+01  0.59301916298E+02  0.49999949427E+02 0.  0.
        -12    1    1    2    0    0  0.28705991651E+02  0.13814027664E+02  0.13641909297E+01  0.31886083702E+02  0.00000000000E+00 0.  1.
         11    1    3    3    0    0 -0.21988131373E+02 -0.13838720464E+02  0.10917084961E+02  0.28181037058E+02  0.51100000000E-03 0. -1.
        -11    1    3    3    0    0 -0.35974660432E-01 -0.11362512701E+02 -0.13749119213E+02  0.17836655192E+02  0.51100000000E-03 0.  1.
         12    1    3    3    0    0 -0.66818856175E+01  0.11387205501E+02  0.14678433224E+01  0.13284224048E+02  0.00000000000E+00 0. -1.
</event>
<event>
 7    1  0.1096439E-011  0.5930197E+02  0.7816164E-02  0.1266605E+00
        -11   -1    0    0    0    0  0.00000000000E+00  0.00000000000E+00  0.45593999997E+02  0.45594000000E+02  0.51100000000E-03 0.  1.
         11   -1    0    0    0    0 -0.00000000000E+00 -0.00000000000E+00 -0.45593999997E+02  0.45594000000E+02  0.51100000000E-03 0. -1.
    9900012    2    1    2    0    0  0.30264216139E+02  0.80363890205E+00  0.10007519362E+02  0.59301967670E+02  0.50000043118E+02 0.  0.
        -12    1    1    2    0    0 -0.30264216139E+02 -0.80363890205E+00 -0.10007519362E+02  0.31886032330E+02  0.00000000000E+00 0.  1.
         11    1    3    3    0    0  0.10194521692E+02  0.55389366669E+01 -0.56922643196E+01  0.12923233545E+02  0.51100000000E-03 0. -1.
        -11    1    3    3    0    0  0.25077903909E+02 -0.16464014142E+02  0.15164217707E+02  0.33614260740E+02  0.51100000000E-03 0.  1.
        -12    1    3    3    0    0 -0.50082094620E+01  0.11728716378E+02  0.53556597461E+00  0.12764473385E+02  0.00000000000E+00 0.  1.
</event>
<event>
 7    1  0.1096439E-011  0.5930190E+02  0.7816164E-02  0.1266605E+00
        -11   -1    0    0    0    0  0.00000000000E+00  0.00000000000E+00  0.45593999997E+02  0.45594000000E+02  0.51100000000E-03 0.  1.
         11   -1    0    0    0    0 -0.00000000000E+00 -0.00000000000E+00 -0.45593999997E+02  0.45594000000E+02  0.51100000000E-03 0. -1.
    9900012    2    1    2    0    0  0.62553296777E+01  0.19200906010E+02 -0.24676296297E+02  0.59301897385E+02  0.49999914935E+02 0.  0.
        -12    1    1    2    0    0 -0.62553296777E+01 -0.19200906010E+02  0.24676296297E+02  0.31886102615E+02  0.00000000000E+00 0.  1.
         11    1    3    3    0    0  0.14113006720E+02  0.19097782619E+02  0.17339311906E+01  0.23809846225E+02  0.51100000000E-03 0. -1.
        -11    1    3    3    0    0 -0.25421584881E+01  0.44861794072E+01 -0.27959041829E+02  0.28430553911E+02  0.51100000000E-03 0.  1.
        -12    1    3    3    0    0 -0.53155185539E+01 -0.43830560161E+01  0.15488143405E+01  0.70614972490E+01  0.00000000000E+00 0.  1.
</event>
<event>
 7    1  0.1096439E-011  0.5930192E+02  0.7816164E-02  0.1266605E+00
        -11   -1    0    0    0    0  0.00000000000E+00  0.00000000000E+00  0.45593999997E+02  0.45594000000E+02  0.51100000000E-03 0.  1.
         11   -1    0    0    0    0 -0.00000000000E+00 -0.00000000000E+00 -0.45593999997E+02  0.45594000000E+02  0.51100000000E-03 0. -1.
    9900012    2    1    2    0    0 -0.23701264606E+02 -0.21231514915E+02  0.20481606086E+01  0.59301919473E+02  0.49999955217E+02 0.  0.
        -12    1    1    2    0    0  0.23701264606E+02  0.21231514915E+02 -0.20481606086E+01  0.31886080527E+02  0.00000000000E+00 0.  1.
         11    1    3    3    0    0 -0.16404985766E+01  0.10590485408E+01 -0.52139693696E+01  0.55676113585E+01  0.51100000000E-03 0. -1.
        -11    1    3    3    0    0 -0.13579260038E+02 -0.34303101274E+02 -0.92329251997E+00  0.36904627481E+02  0.51100000000E-03 0.  1.
        -12    1    3    3    0    0 -0.84815059919E+01  0.12012537818E+02  0.81854224981E+01  0.16829680633E+02  0.00000000000E+00 0.  1.
</event>
<event>
 7    1  0.1096439E-011  0.5930191E+02  0.7816164E-02  0.1266605E+00
        -11   -1    0    0    0    0  0.00000000000E+00  0.00000000000E+00  0.45593999997E+02  0.45594000000E+02  0.51100000000E-03 0. -1.
         11   -1    0    0    0    0 -0.00000000000E+00 -0.00000000000E+00 -0.45593999997E+02  0.45594000000E+02  0.51100000000E-03 0.  1.
    9900012    2    1    2    0    0 -0.21558000449E+01 -0.31587809015E+02 -0.37796642234E+01  0.59301905635E+02  0.49999929980E+02 0.  0.
        -12    1    1    2    0    0  0.21558000449E+01  0.31587809015E+02  0.37796642234E+01  0.31886094365E+02  0.00000000000E+00 0.  1.
         11    1    3    3    0    0 -0.11922257266E+01 -0.41829448103E+02 -0.13811954696E+02  0.44066928910E+02  0.51100000000E-03 0. -1.
        -11    1    3    3    0    0 -0.21635630602E+01  0.83054106659E+01  0.55894601351E+01  0.10242212471E+02  0.51100000000E-03 0.  1.
         12    1    3    3    0    0  0.11999887419E+01  0.19362284213E+01  0.44428303379E+01  0.49927642536E+01  0.00000000000E+00 0. -1.
</event>
<event>
 7    1  0.1096439E-011  0.5930171E+02  0.7816164E-02  0.1266606E+00
        -11   -1    0    0    0    0  0.00000000000E+00  0.00000000000E+00  0.45593999997E+02  0.45594000000E+02  0.51100000000E-03 0.  1.
         11   -1    0    0    0    0 -0.00000000000E+00 -0.00000000000E+00 -0.45593999997E+02  0.45594000000E+02  0.51100000000E-03 0. -1.
    9900012    2    1    2    0    0 -0.24447443628E+02  0.18776190582E+02 -0.81555128031E+01  0.59301714205E+02  0.49999580858E+02 0.  0.
        -12    1    1    2    0    0  0.24447443628E+02 -0.18776190582E+02  0.81555128031E+01  0.31886285795E+02  0.00000000000E+00 0.  1.
         11    1    3    3    0    0 -0.14816603280E+02  0.13535254719E+02 -0.73877279820E+01  0.21384886674E+02  0.51100000000E-03 0. -1.
        -11    1    3    3    0    0 -0.59259762731E+00 -0.12368789188E+02 -0.10150761623E+02  0.16011748178E+02  0.51100000000E-03 0.  1.
        -12    1    3    3    0    0 -0.90382427205E+01  0.17609725050E+02  0.93829768021E+01  0.21905079354E+02  0.00000000000E+00 0.  1.
</event>
<event>
 7    1  0.1096439E-011  0.5930207E+02  0.7816164E-02  0.1266604E+00
        -11   -1    0    0    0    0  0.00000000000E+00  0.00000000000E+00  0.45593999997E+02  0.45594000000E+02  0.51100000000E-03 0.  1.
         11   -1    0    0    0    0 -0.00000000000E+00 -0.00000000000E+00 -0.45593999997E+02  0.45594000000E+02  0.51100000000E-03 0. -1.
    9900012    2    1    2    0    0 -0.15312643698E+02  0.10304693195E+01 -0.27949478825E+02  0.59302073785E+02  0.50000236645E+02 0.  0.
        -12    1    1    2    0    0  0.15312643698E+02 -0.10304693195E+01  0.27949478825E+02  0.31885926215E+02  0.00000000000E+00 0.  1.
         11    1    3    3    0    0 -0.16433803291E+02 -0.94328523270E+01  0.72821562572E+01  0.20299714127E+02  0.51100000000E-03 0. -1.
        -11    1    3    3    0    0  0.63666057181E+01  0.88519387022E+01 -0.19504107236E+02  0.22345037178E+02  0.51100000000E-03 0.  1.
         12    1    3    3    0    0 -0.52454461248E+01  0.16113829443E+01 -0.15727527846E+02  0.16657322479E+02  0.00000000000E+00 0. -1.
</event>
<event>
 7    1  0.1096439E-011  0.5930197E+02  0.7816164E-02  0.1266605E+00
        -11   -1    0    0    0    0  0.00000000000E+00  0.00000000000E+00  0.45593999997E+02  0.45594000000E+02  0.51100000000E-03 0. -1.
         11   -1    0    0    0    0 -0.00000000000E+00 -0.00000000000E+00 -0.45593999997E+02  0.45594000000E+02  0.51100000000E-03 0.  1.
    9900012    2    1    2    0    0 -0.25427585372E+02  0.57497265520E+01 -0.18360221665E+02  0.59301965551E+02  0.50000039254E+02 0.  0.
        -12    1    1    2    0    0  0.25427585372E+02 -0.57497265520E+01  0.18360221665E+02  0.31886034449E+02  0.00000000000E+00 0.  1.
         11    1    3    3    0    0  0.51649810914E+01 -0.29295805114E+01 -0.18108404761E+02  0.19057119270E+02  0.51100000000E-03 0.  1.
        -11    1    3    3    0    0 -0.26512269130E+02  0.16637478702E+02 -0.28516557027E+00  0.31301556377E+02  0.51100000000E-03 0. -1.
        -12    1    3    3    0    0 -0.40802973338E+01 -0.79581716388E+01  0.33348666322E-01  0.89432899035E+01  0.00000000000E+00 0.  1.
</event>
<event>
 7    1  0.1096439E-011  0.5930200E+02  0.7816164E-02  0.1266605E+00
        -11   -1    0    0    0    0  0.00000000000E+00  0.00000000000E+00  0.45593999997E+02  0.45594000000E+02  0.51100000000E-03 0.  1.
         11   -1    0    0    0    0 -0.00000000000E+00 -0.00000000000E+00 -0.45593999997E+02  0.45594000000E+02  0.51100000000E-03 0. -1.
    9900012    2    1    2    0    0  0.71680819533E+01 -0.60854270869E+01 -0.30468064142E+02  0.59302003790E+02  0.50000108992E+02 0.  0.
        -12    1    1    2    0    0 -0.71680819533E+01  0.60854270869E+01  0.30468064142E+02  0.31885996210E+02  0.00000000000E+00 0.  1.
         11    1    3    3    0    0  0.29062625537E+01 -0.72943572050E+01 -0.27999861503E+02  0.29079997481E+02  0.51100000000E-03 0. -1.
        -11    1    3    3    0    0  0.62591999214E+01  0.11859542460E+02  0.76140431614E+01  0.15420764719E+02  0.51100000000E-03 0.  1.
         12    1    3    3    0    0 -0.19973805217E+01 -0.10650612341E+02 -0.10082245801E+02  0.14801241589E+02  0.00000000000E+00 0. -1.
</event>
<event>
 7    1  0.1096439E-011  0.5930197E+02  0.7816164E-02  0.1266605E+00
        -11   -1    0    0    0    0  0.00000000000E+00  0.00000000000E+00  0.45593999997E+02  0.45594000000E+02  0.51100000000E-03 0.  1.
         11   -1    0    0    0    0 -0.00000000000E+00 -0.00000000000E+00 -0.45593999997E+02  0.45594000000E+02  0.51100000000E-03 0. -1.
    9900012    2    1    2    0    0 -0.57192260717E+00  0.31352485151E+02 -0.57804610372E+01  0.59301966217E+02  0.50000040468E+02 0.  0.
        -12    1    1    2    0    0  0.57192260717E+00 -0.31352485151E+02  0.57804610372E+01  0.31886033783E+02  0.00000000000E+00 0.  1.
         11    1    3    3    0    0  0.13387621489E+02  0.17232689282E+01 -0.56741760771E+01  0.14642210877E+02  0.51100000000E-03 0. -1.
        -11    1    3    3    0    0 -0.16118237383E+02  0.99814709102E+01 -0.11173606764E+02  0.22006290606E+02  0.51100000000E-03 0.  1.
        -12    1    3    3    0    0  0.21586932867E+01  0.19647745312E+02  0.11067321804E+02  0.22653464734E+02  0.00000000000E+00 0.  1.
</event>
<event>
 7    1  0.1096439E-011  0.5930194E+02  0.7816164E-02  0.1266605E+00
        -11   -1    0    0    0    0  0.00000000000E+00  0.00000000000E+00  0.45593999997E+02  0.45594000000E+02  0.51100000000E-03 0.  1.
         11   -1    0    0    0    0 -0.00000000000E+00 -0.00000000000E+00 -0.45593999997E+02  0.45594000000E+02  0.51100000000E-03 0. -1.
    9900012    2    1    2    0    0  0.28991935207E+02  0.12911209447E+02  0.30804602234E+01  0.59301939227E+02  0.49999991244E+02 0.  0.
        -12    1    1    2    0    0 -0.28991935207E+02 -0.12911209447E+02 -0.30804602234E+01  0.31886060773E+02  0.00000000000E+00 0.  1.
         11    1    3    3    0    0  0.46190867206E+01 -0.13014613731E+02 -0.81501091250E+01  0.16035598265E+02  0.51100000000E-03 0. -1.
        -11    1    3    3    0    0 -0.36836280265E+01  0.63645788281E+01  0.37529915750E+01  0.82560235658E+01  0.51100000000E-03 0.  1.
         12    1    3    3    0    0  0.28056476513E+02  0.19561244349E+02  0.74775777735E+01  0.35010317396E+02  0.00000000000E+00 0. -1.
</event>
<event>
 7    1  0.1096439E-011  0.5930194E+02  0.7816164E-02  0.1266605E+00
        -11   -1    0    0    0    0  0.00000000000E+00  0.00000000000E+00  0.45593999997E+02  0.45594000000E+02  0.51100000000E-03 0. -1.
         11   -1    0    0    0    0 -0.00000000000E+00 -0.00000000000E+00 -0.45593999997E+02  0.45594000000E+02  0.51100000000E-03 0.  1.
    9900012    2    1    2    0    0  0.43019501192E+01 -0.36802954248E+01  0.31379447949E+02  0.59301935601E+02  0.49999984632E+02 0.  0.
        -12    1    1    2    0    0 -0.43019501192E+01  0.36802954248E+01 -0.31379447949E+02  0.31886064399E+02  0.00000000000E+00 0.  1.
         11    1    3    3    0    0  0.94592972433E+01  0.28494405724E+01  0.29222040012E+02  0.30846802730E+02  0.51100000000E-03 0. -1.
        -11    1    3    3    0    0  0.26802889538E+01 -0.21986053907E+01 -0.11562779802E+02  0.12071275474E+02  0.51100000000E-03 0.  1.
        -12    1    3    3    0    0 -0.78376360779E+01 -0.43311306066E+01  0.13720187739E+02  0.16383857398E+02  0.00000000000E+00 0.  1.
</event>
<event>
 7    1  0.1096439E-011  0.5930190E+02  0.7816164E-02  0.1266605E+00
        -11   -1    0    0    0    0  0.00000000000E+00  0.00000000000E+00  0.45593999997E+02  0.45594000000E+02  0.51100000000E-03 0.  1.
         11   -1    0    0    0    0 -0.00000000000E+00 -0.00000000000E+00 -0.45593999997E+02  0.45594000000E+02  0.51100000000E-03 0. -1.
    9900012    2    1    2    0    0  0.16252437604E+02 -0.21481824969E+02 -0.17062026522E+02  0.59301901444E+02  0.49999922338E+02 0.  0.
        -12    1    1    2    0    0 -0.16252437604E+02  0.21481824969E+02  0.17062026522E+02  0.31886098556E+02  0.00000000000E+00 0.  1.
         11    1    3    3    0    0  0.66283501181E+01 -0.17210720853E+02 -0.13116624240E+02  0.22631609958E+02  0.51100000000E-03 0. -1.
        -11    1    3    3    0    0 -0.15371612399E+01 -0.13360162537E+02  0.98992340940E+01  0.16698851566E+02  0.51100000000E-03 0.  1.
        -12    1    3    3    0    0  0.11161248726E+02  0.90890584216E+01 -0.13844636376E+02  0.19971439921E+02  0.00000000000E+00 0.  1.
</event>
<event>
 7    1  0.1096439E-011  0.5930195E+02  0.7816164E-02  0.1266605E+00
        -11   -1    0    0    0    0  0.00000000000E+00  0.00000000000E+00  0.45593999997E+02  0.45594000000E+02  0.51100000000E-03 0. -1.
         11   -1    0    0    0    0 -0.00000000000E+00 -0.00000000000E+00 -0.45593999997E+02  0.45594000000E+02  0.51100000000E-03 0.  1.
    9900012    2    1    2    0    0 -0.10077203294E+02 -0.17347420938E+02  0.24783814082E+02  0.59301945370E+02  0.50000002448E+02 0.  0.
        -12    1    1    2    0    0  0.10077203294E+02  0.17347420938E+02 -0.24783814082E+02  0.31886054630E+02  0.00000000000E+00 0.  1.
         11    1    3    3    0    0 -0.69963988710E+00 -0.27398968765E+02  0.28436680121E+02  0.39494781452E+02  0.51100000000E-03 0. -1.
        -11    1    3    3    0    0 -0.12060054051E+02  0.41817525025E+01 -0.91657417053E+00  0.12797346060E+02  0.51100000000E-03 0.  1.
         12    1    3    3    0    0  0.26824906444E+01  0.58697953247E+01 -0.27362918684E+01  0.70098178578E+01  0.00000000000E+00 0. -1.
</event>
<event>
 7    1  0.1096439E-011  0.5930187E+02  0.7816164E-02  0.1266605E+00
        -11   -1    0    0    0    0  0.00000000000E+00  0.00000000000E+00  0.45593999997E+02  0.45594000000E+02  0.51100000000E-03 0.  1.
         11   -1    0    0    0    0 -0.00000000000E+00 -0.00000000000E+00 -0.45593999997E+02  0.45594000000E+02  0.51100000000E-03 0. -1.
    9900012    2    1    2    0    0  0.19024979068E+02  0.24475753906E+02 -0.74641180204E+01  0.59301867973E+02  0.49999861295E+02 0.  0.
        -12    1    1    2    0    0 -0.19024979068E+02 -0.24475753906E+02  0.74641180204E+01  0.31886132027E+02  0.00000000000E+00 0.  1.
         11    1    3    3    0    0  0.14499076462E+02  0.90959248604E+01  0.15121359962E+02  0.22838883394E+02  0.51100000000E-03 0. -1.
        -11    1    3    3    0    0  0.90684296697E+01  0.16628594714E+02 -0.24842370758E+02  0.31239237570E+02  0.51100000000E-03 0.  1.
        -12    1    3    3    0    0 -0.45425270635E+01 -0.12487656688E+01  0.22568927753E+01  0.52237470093E+01  0.00000000000E+00 0.  1.
</event>
<event>
 7    1  0.1096439E-011  0.5930196E+02  0.7816164E-02  0.1266605E+00
        -11   -1    0    0    0    0  0.00000000000E+00  0.00000000000E+00  0.45593999997E+02  0.45594000000E+02  0.51100000000E-03 0.  1.
         11   -1    0    0    0    0 -0.00000000000E+00 -0.00000000000E+00 -0.45593999997E+02  0.45594000000E+02  0.51100000000E-03 0. -1.
    9900012    2    1    2    0    0  0.17157996417E+02  0.60798370884E+01 -0.26179346967E+02  0.59301961242E+02  0.50000031394E+02 0.  0.
        -12    1    1    2    0    0 -0.17157996417E+02 -0.60798370884E+01  0.26179346967E+02  0.31886038758E+02  0.00000000000E+00 0.  1.
         11    1    3    3    0    0 -0.29769517319E+01  0.14120374373E+02 -0.32022183351E+02  0.35123602333E+02  0.51100000000E-03 0. -1.
        -11    1    3    3    0    0  0.16971315365E+02 -0.98232020973E+01  0.36793424144E+01  0.19951401091E+02  0.51100000000E-03 0.  1.
         12    1    3    3    0    0  0.31636327844E+01  0.17826648128E+01  0.21634939697E+01  0.42269578169E+01  0.00000000000E+00 0. -1.
</event>
<event>
 7    1  0.1096439E-011  0.5930194E+02  0.7816164E-02  0.1266605E+00
        -11   -1    0    0    0    0  0.00000000000E+00  0.00000000000E+00  0.45593999997E+02  0.45594000000E+02  0.51100000000E-03 0. -1.
         11   -1    0    0    0    0 -0.00000000000E+00 -0.00000000000E+00 -0.45593999997E+02  0.45594000000E+02  0.51100000000E-03 0.  1.
    9900012    2    1    2    0    0  0.47320776374E+01  0.21750096118E+02  0.22831148141E+02  0.59301944029E+02  0.50000000002E+02 0.  0.
        -12    1    1    2    0    0 -0.47320776374E+01 -0.21750096118E+02 -0.22831148141E+02  0.31886055971E+02  0.00000000000E+00 0.  1.
         11    1    3    3    0    0  0.54392419591E+01  0.64795887191E+01  0.26211806061E+02  0.27543224218E+02  0.51100000000E-03 0. -1.
        -11    1    3    3    0    0  0.70603709288E+01  0.13453082693E+02 -0.12477045134E+02  0.19659881157E+02  0.51100000000E-03 0.  1.
         12    1    3    3    0    0 -0.77675352505E+01  0.18174247065E+01  0.90963872140E+01  0.12098838654E+02  0.00000000000E+00 0. -1.
</event>
<event>
 7    1  0.1096439E-011  0.5930193E+02  0.7816164E-02  0.1266605E+00
        -11   -1    0    0    0    0  0.00000000000E+00  0.00000000000E+00  0.45593999997E+02  0.45594000000E+02  0.51100000000E-03 0. -1.
         11   -1    0    0    0    0 -0.00000000000E+00 -0.00000000000E+00 -0.45593999997E+02  0.45594000000E+02  0.51100000000E-03 0.  1.
    9900012    2    1    2    0    0  0.28145276784E+02 -0.56173731525E+01  0.13892808209E+02  0.59301927706E+02  0.49999970234E+02 0.  0.
        -12    1    1    2    0    0 -0.28145276784E+02  0.56173731525E+01 -0.13892808209E+02  0.31886072294E+02  0.00000000000E+00 0.  1.
         11    1    3    3    0    0 -0.15972736904E+01 -0.92885249906E+01  0.21117418754E+02  0.23125167131E+02  0.51100000000E-03 0. -1.
        -11    1    3    3    0    0  0.15854325312E+02  0.95513826975E+01 -0.96941475373E+01  0.20894138874E+02  0.51100000000E-03 0.  1.
         12    1    3    3    0    0  0.13888225162E+02 -0.58802308594E+01  0.24695369919E+01  0.15282621701E+02  0.00000000000E+00 0. -1.
</event>
<event>
 7    1  0.1096439E-011  0.5930198E+02  0.7816164E-02  0.1266605E+00
        -11   -1    0    0    0    0  0.00000000000E+00  0.00000000000E+00  0.45593999997E+02  0.45594000000E+02  0.51100000000E-03 0.  1.
         11   -1    0    0    0    0 -0.00000000000E+00 -0.00000000000E+00 -0.45593999997E+02  0.45594000000E+02  0.51100000000E-03 0. -1.
    9900012    2    1    2    0    0 -0.16448142466E+02  0.10806135371E+02 -0.25087936706E+02  0.59301976096E+02  0.50000058485E+02 0.  0.
        -12    1    1    2    0    0  0.16448142466E+02 -0.10806135371E+02  0.25087936706E+02  0.31886023904E+02  0.00000000000E+00 0.  1.
         11    1    3    3    0    0  0.31483467499E+01  0.25420277343E+01  0.13214282963E+02  0.13819958999E+02  0.51100000000E-03 0.  1.
        -11    1    3    3    0    0 -0.19056769719E+02  0.64446199068E+01 -0.38631744629E+02  0.43555772192E+02  0.51100000000E-03 0. -1.
         12    1    3    3    0    0 -0.53971949701E+00  0.18194877301E+01  0.32952496014E+00  0.19262449052E+01  0.00000000000E+00 0. -1.
</event>
<event>
 7    1  0.1096439E-011  0.5930193E+02  0.7816164E-02  0.1266605E+00
        -11   -1    0    0    0    0  0.00000000000E+00  0.00000000000E+00  0.45593999997E+02  0.45594000000E+02  0.51100000000E-03 0.  1.
         11   -1    0    0    0    0 -0.00000000000E+00 -0.00000000000E+00 -0.45593999997E+02  0.45594000000E+02  0.51100000000E-03 0. -1.
    9900012    2    1    2    0    0 -0.31779869443E+02  0.64156138774E+00  0.25199339166E+01  0.59301925143E+02  0.49999965558E+02 0.  0.
        -12    1    1    2    0    0  0.31779869443E+02 -0.64156138774E+00 -0.25199339166E+01  0.31886074857E+02  0.00000000000E+00 0.  1.
         11    1    3    3    0    0 -0.20190272040E+01  0.16409584210E+01 -0.62112981016E+01  0.67341992662E+01  0.51100000000E-03 0. -1.
        -11    1    3    3    0    0 -0.57054792807E+01 -0.13594146918E+02  0.18548989440E+02  0.23694267952E+02  0.51100000000E-03 0.  1.
        -12    1    3    3    0    0 -0.24055362959E+02  0.12594749885E+02 -0.98177574218E+01  0.28873457925E+02  0.00000000000E+00 0.  1.
</event>
<event>
 7    1  0.1096439E-011  0.5930195E+02  0.7816164E-02  0.1266605E+00
        -11   -1    0    0    0    0  0.00000000000E+00  0.00000000000E+00  0.45593999997E+02  0.45594000000E+02  0.51100000000E-03 0.  1.
         11   -1    0    0    0    0 -0.00000000000E+00 -0.00000000000E+00 -0.45593999997E+02  0.45594000000E+02  0.51100000000E-03 0. -1.
    9900012    2    1    2    0    0  0.26308085294E+02 -0.21310314052E+01 -0.17890317598E+02  0.59301951163E+02  0.50000013013E+02 0.  0.
        -12    1    1    2    0    0 -0.26308085294E+02  0.21310314052E+01  0.17890317598E+02  0.31886048837E+02  0.00000000000E+00 0.  1.
         11    1    3    3    0    0  0.32667994102E+02 -0.17160382077E+02 -0.11585709514E+02  0.38676933912E+02  0.51100000000E-03 0. -1.
        -11    1    3    3    0    0 -0.15226623389E+01  0.11804175395E+02 -0.82642260966E+01  0.14489806437E+02  0.51100000000E-03 0.  1.
        -12    1    3    3    0    0 -0.48372464688E+01  0.32251752766E+01  0.19596180128E+01  0.61352108131E+01  0.00000000000E+00 0.  1.
</event>
<event>
 7    1  0.1096439E-011  0.5930195E+02  0.7816164E-02  0.1266605E+00
        -11   -1    0    0    0    0  0.00000000000E+00  0.00000000000E+00  0.45593999997E+02  0.45594000000E+02  0.51100000000E-03 0.  1.
         11   -1    0    0    0    0 -0.00000000000E+00 -0.00000000000E+00 -0.45593999997E+02  0.45594000000E+02  0.51100000000E-03 0. -1.
    9900012    2    1    2    0    0  0.74183783140E+01 -0.30781717583E+02  0.37648163528E+01  0.59301947934E+02  0.50000007125E+02 0.  0.
        -12    1    1    2    0    0 -0.74183783140E+01  0.30781717583E+02 -0.37648163528E+01  0.31886052066E+02  0.00000000000E+00 0.  1.
         11    1    3    3    0    0 -0.18758381333E+01 -0.96032330058E+01 -0.12049248830E+02  0.15521766990E+02  0.51100000000E-03 0. -1.
        -11    1    3    3    0    0  0.43197396632E+01 -0.15266015717E+02  0.26324116773E+02  0.30735492688E+02  0.51100000000E-03 0.  1.
        -12    1    3    3    0    0  0.49744767841E+01 -0.59124688601E+01 -0.10510051590E+02  0.13044688257E+02  0.00000000000E+00 0.  1.
</event>
<event>
 7    1  0.1096439E-011  0.5930193E+02  0.7816164E-02  0.1266605E+00
        -11   -1    0    0    0    0  0.00000000000E+00  0.00000000000E+00  0.45593999997E+02  0.45594000000E+02  0.51100000000E-03 0. -1.
         11   -1    0    0    0    0 -0.00000000000E+00 -0.00000000000E+00 -0.45593999997E+02  0.45594000000E+02  0.51100000000E-03 0.  1.
    9900012    2    1    2    0    0  0.19387500487E+02  0.38764176072E+00  0.25311973476E+02  0.59301930275E+02  0.49999974918E+02 0.  0.
        -12    1    1    2    0    0 -0.19387500487E+02 -0.38764176072E+00 -0.25311973476E+02  0.31886069725E+02  0.00000000000E+00 0.  1.
         11    1    3    3    0    0 -0.11581481038E+02  0.11165712360E+02  0.13375893235E+01  0.16142892584E+02  0.51100000000E-03 0. -1.
        -11    1    3    3    0    0  0.26865413090E+02 -0.14187544576E+02  0.21820603509E+02  0.37405555461E+02  0.51100000000E-03 0.  1.
        -12    1    3    3    0    0  0.41035684350E+01  0.34094739773E+01  0.21537806433E+01  0.57534822293E+01  0.00000000000E+00 0.  1.
</event>
<event>
 7    1  0.1096439E-011  0.5930195E+02  0.7816164E-02  0.1266605E+00
        -11   -1    0    0    0    0  0.00000000000E+00  0.00000000000E+00  0.45593999997E+02  0.45594000000E+02  0.51100000000E-03 0.  1.
         11   -1    0    0    0    0 -0.00000000000E+00 -0.00000000000E+00 -0.45593999997E+02  0.45594000000E+02  0.51100000000E-03 0. -1.
    9900012    2    1    2    0    0  0.17034106145E+02 -0.83242318581E+01 -0.25637212328E+02  0.59301948753E+02  0.50000008618E+02 0.  0.
        -12    1    1    2    0    0 -0.17034106145E+02  0.83242318581E+01  0.25637212328E+02  0.31886051247E+02  0.00000000000E+00 0.  1.
         11    1    3    3    0    0  0.15346783848E+02 -0.22298631445E+02 -0.17230239476E+02  0.32087908805E+02  0.51100000000E-03 0. -1.
        -11    1    3    3    0    0  0.63271276890E+01  0.42679384934E+01  0.56620705549E+01  0.95029935813E+01  0.51100000000E-03 0.  1.
        -12    1    3    3    0    0 -0.46398053919E+01  0.97064610939E+01 -0.14069043406E+02  0.17711046367E+02  0.00000000000E+00 0.  1.
</event>
<event>
 7    1  0.1096439E-011  0.5930192E+02  0.7816164E-02  0.1266605E+00
        -11   -1    0    0    0    0  0.00000000000E+00  0.00000000000E+00  0.45593999997E+02  0.45594000000E+02  0.51100000000E-03 0. -1.
         11   -1    0    0    0    0 -0.00000000000E+00 -0.00000000000E+00 -0.45593999997E+02  0.45594000000E+02  0.51100000000E-03 0.  1.
    9900012    2    1    2    0    0  0.75872981325E+01  0.65803135951E+01  0.30263084238E+02  0.59301923296E+02  0.49999962191E+02 0.  0.
        -12    1    1    2    0    0 -0.75872981325E+01 -0.65803135951E+01 -0.30263084238E+02  0.31886076704E+02  0.00000000000E+00 0.  1.
         11    1    3    3    0    0 -0.19875832371E+00  0.12071467558E+02  0.21968004573E+02  0.25066971477E+02  0.51100000000E-03 0. -1.
        -11    1    3    3    0    0 -0.69458870848E+00 -0.33109515571E+01 -0.11821066130E+02  0.12295627613E+02  0.51100000000E-03 0.  1.
         12    1    3    3    0    0  0.84806451647E+01 -0.21802024055E+01  0.20116145796E+02  0.21939324206E+02  0.00000000000E+00 0. -1.
</event>
<event>
 7    1  0.1096439E-011  0.5930196E+02  0.7816164E-02  0.1266605E+00
        -11   -1    0    0    0    0  0.00000000000E+00  0.00000000000E+00  0.45593999997E+02  0.45594000000E+02  0.51100000000E-03 0. -1.
         11   -1    0    0    0    0 -0.00000000000E+00 -0.00000000000E+00 -0.45593999997E+02  0.45594000000E+02  0.51100000000E-03 0.  1.
    9900012    2    1    2    0    0 -0.11346207684E+01  0.20795691880E+02  0.24144795333E+02  0.59301963766E+02  0.50000035998E+02 0.  0.
        -12    1    1    2    0    0  0.11346207684E+01 -0.20795691880E+02 -0.24144795333E+02  0.31886036234E+02  0.00000000000E+00 0.  1.
         11    1    3    3    0    0 -0.10138390566E+02  0.15970378867E+02  0.34366988644E+02  0.39229196692E+02  0.51100000000E-03 0. -1.
        -11    1    3    3    0    0  0.90947201906E+01 -0.25680124607E+01 -0.79156853856E+01  0.12327477387E+02  0.51100000000E-03 0.  1.
        -12    1    3    3    0    0 -0.90950393268E-01  0.73933254730E+01 -0.23065079254E+01  0.77452896869E+01  0.00000000000E+00 0.  1.
</event>
<event>
 7    1  0.1096439E-011  0.5930195E+02  0.7816164E-02  0.1266605E+00
        -11   -1    0    0    0    0  0.00000000000E+00  0.00000000000E+00  0.45593999997E+02  0.45594000000E+02  0.51100000000E-03 0. -1.
         11   -1    0    0    0    0 -0.00000000000E+00 -0.00000000000E+00 -0.45593999997E+02  0.45594000000E+02  0.51100000000E-03 0.  1.
    9900012    2    1    2    0    0 -0.62651483748E+00  0.12751986916E+02  0.29218390256E+02  0.59301952576E+02  0.50000015591E+02 0.  0.
        -12    1    1    2    0    0  0.62651483748E+00 -0.12751986916E+02 -0.29218390256E+02  0.31886047424E+02  0.00000000000E+00 0.  1.
         11    1    3    3    0    0 -0.16352659735E+02 -0.12820602621E+02  0.78193887467E+01  0.22201805616E+02  0.51100000000E-03 0. -1.
        -11    1    3    3    0    0  0.11653505202E+02  0.15594311219E+02  0.12626538736E+02  0.23203797245E+02  0.51100000000E-03 0.  1.
         12    1    3    3    0    0  0.40726396956E+01  0.99782783186E+01  0.87724627731E+01  0.13896349715E+02  0.00000000000E+00 0. -1.
</event>
<event>
 7    1  0.1096439E-011  0.5930194E+02  0.7816164E-02  0.1266605E+00
        -11   -1    0    0    0    0  0.00000000000E+00  0.00000000000E+00  0.45593999997E+02  0.45594000000E+02  0.51100000000E-03 0. -1.
         11   -1    0    0    0    0 -0.00000000000E+00 -0.00000000000E+00 -0.45593999997E+02  0.45594000000E+02  0.51100000000E-03 0.  1.
    9900012    2    1    2    0    0 -0.24049455248E+02  0.20708993756E+02  0.30792741401E+01  0.59301942713E+02  0.49999997601E+02 0.  0.
        -12    1    1    2    0    0  0.24049455248E+02 -0.20708993756E+02 -0.30792741401E+01  0.31886057287E+02  0.00000000000E+00 0.  1.
         11    1    3    3    0    0 -0.13875444334E+02 -0.78154869994E+01  0.17541064382E+02  0.23691743972E+02  0.51100000000E-03 0. -1.
        -11    1    3    3    0    0 -0.11768909456E+02  0.28607164868E+02 -0.13947135761E+02  0.33932281205E+02  0.51100000000E-03 0.  1.
         12    1    3    3    0    0  0.15948985423E+01 -0.82684112731E-01 -0.51465448123E+00  0.16779175361E+01  0.00000000000E+00 0. -1.
</event>
<event>
 7    1  0.1096439E-011  0.5930196E+02  0.7816164E-02  0.1266605E+00
        -11   -1    0    0    0    0  0.00000000000E+00  0.00000000000E+00  0.45593999997E+02  0.45594000000E+02  0.51100000000E-03 0.  1.
         11   -1    0    0    0    0 -0.00000000000E+00 -0.00000000000E+00 -0.45593999997E+02  0.45594000000E+02  0.51100000000E-03 0. -1.
    9900012    2    1    2    0    0  0.26962621422E+02 -0.81623572348E+01 -0.14936959081E+02  0.59301956405E+02  0.50000022573E+02 0.  0.
        -12    1    1    2    0    0 -0.26962621422E+02  0.81623572348E+01  0.14936959081E+02  0.31886043595E+02  0.00000000000E+00 0.  1.
         11    1    3    3    0    0  0.14039181509E+02 -0.17723352661E+02 -0.22317645821E+02  0.31769374596E+02  0.51100000000E-03 0. -1.
        -11    1    3    3    0    0  0.30748849158E+01  0.12437350262E+02 -0.27612529677E+01  0.13105995460E+02  0.51100000000E-03 0.  1.
         12    1    3    3    0    0  0.98485549967E+01 -0.28763548352E+01  0.10141939707E+02  0.14426586349E+02  0.00000000000E+00 0. -1.
</event>
<event>
 7    1  0.1096439E-011  0.5930192E+02  0.7816164E-02  0.1266605E+00
        -11   -1    0    0    0    0  0.00000000000E+00  0.00000000000E+00  0.45593999997E+02  0.45594000000E+02  0.51100000000E-03 0.  1.
         11   -1    0    0    0    0 -0.00000000000E+00 -0.00000000000E+00 -0.45593999997E+02  0.45594000000E+02  0.51100000000E-03 0. -1.
    9900012    2    1    2    0    0  0.18951463930E+02  0.19412731154E+02 -0.16754393660E+02  0.59301924311E+02  0.49999964042E+02 0.  0.
        -12    1    1    2    0    0 -0.18951463930E+02 -0.19412731154E+02  0.16754393660E+02  0.31886075689E+02  0.00000000000E+00 0.  1.
         11    1    3    3    0    0  0.37848109500E+01  0.20035412819E+02  0.36372937683E+01  0.20711650513E+02  0.51100000000E-03 0.  1.
        -11    1    3    3    0    0  0.62448849064E+00 -0.13329150302E+02 -0.98802222452E+01  0.16603464263E+02  0.51100000000E-03 0. -1.
         12    1    3    3    0    0  0.14542164489E+02  0.12706468636E+02 -0.10511465183E+02  0.21986809535E+02  0.00000000000E+00 0. -1.
</event>
<event>
 7    1  0.1096439E-011  0.5930198E+02  0.7816164E-02  0.1266605E+00
        -11   -1    0    0    0    0  0.00000000000E+00  0.00000000000E+00  0.45593999997E+02  0.45594000000E+02  0.51100000000E-03 0.  1.
         11   -1    0    0    0    0 -0.00000000000E+00 -0.00000000000E+00 -0.45593999997E+02  0.45594000000E+02  0.51100000000E-03 0. -1.
    9900012    2    1    2    0    0  0.26603251825E+02  0.17085488999E+02  0.41317700280E+01  0.59301976956E+02  0.50000060054E+02 0.  0.
        -12    1    1    2    0    0 -0.26603251825E+02 -0.17085488999E+02 -0.41317700280E+01  0.31886023044E+02  0.00000000000E+00 0.  1.
         11    1    3    3    0    0  0.13891043985E+02  0.49248954608E+01 -0.20192598883E+02  0.24999134949E+02  0.51100000000E-03 0. -1.
        -11    1    3    3    0    0 -0.11371237098E+01  0.94497503458E+01  0.13497944655E+02  0.16516214521E+02  0.51100000000E-03 0.  1.
         12    1    3    3    0    0  0.13849331550E+02  0.27108431920E+01  0.10826424255E+02  0.17786627487E+02  0.00000000000E+00 0. -1.
</event>
<event>
 7    1  0.1096439E-011  0.5930195E+02  0.7816164E-02  0.1266605E+00
        -11   -1    0    0    0    0  0.00000000000E+00  0.00000000000E+00  0.45593999997E+02  0.45594000000E+02  0.51100000000E-03 0. -1.
         11   -1    0    0    0    0 -0.00000000000E+00 -0.00000000000E+00 -0.45593999997E+02  0.45594000000E+02  0.51100000000E-03 0.  1.
    9900012    2    1    2    0    0  0.29987841698E+02 -0.10804676398E+02  0.84180026115E+00  0.59301948043E+02  0.50000007322E+02 0.  0.
        -12    1    1    2    0    0 -0.29987841698E+02  0.10804676398E+02 -0.84180026115E+00  0.31886051957E+02  0.00000000000E+00 0.  1.
         11    1    3    3    0    0  0.32351532982E+02 -0.15496959041E+02 -0.16522431285E+02  0.39493900309E+02  0.51100000000E-03 0.  1.
        -11    1    3    3    0    0 -0.42134976282E+01  0.10396689626E+01  0.13491450180E+02  0.14172286408E+02  0.51100000000E-03 0. -1.
        -12    1    3    3    0    0  0.18498063440E+01  0.36526136802E+01  0.38727813663E+01  0.56357613255E+01  0.00000000000E+00 0.  1.
</event>
<event>
 7    1  0.1096439E-011  0.5930194E+02  0.7816164E-02  0.1266605E+00
        -11   -1    0    0    0    0  0.00000000000E+00  0.00000000000E+00  0.45593999997E+02  0.45594000000E+02  0.51100000000E-03 0. -1.
         11   -1    0    0    0    0 -0.00000000000E+00 -0.00000000000E+00 -0.45593999997E+02  0.45594000000E+02  0.51100000000E-03 0.  1.
    9900012    2    1    2    0    0 -0.29637980432E+02  0.94982341265E+01  0.69350315007E+01  0.59301937253E+02  0.49999987644E+02 0.  0.
        -12    1    1    2    0    0  0.29637980432E+02 -0.94982341265E+01 -0.69350315007E+01  0.31886062747E+02  0.00000000000E+00 0.  1.
         11    1    3    3    0    0 -0.36910896463E+01 -0.12195946140E+02 -0.68315896571E+01  0.14458072573E+02  0.51100000000E-03 0.  1.
        -11    1    3    3    0    0 -0.37158356115E+00  0.10739510253E+02 -0.44038886144E+01  0.11613328119E+02  0.51100000000E-03 0. -1.
         12    1    3    3    0    0 -0.25575307224E+02  0.10954670013E+02  0.18170509772E+02  0.33230536560E+02  0.00000000000E+00 0. -1.
</event>
<event>
 7    1  0.1096439E-011  0.5930189E+02  0.7816164E-02  0.1266605E+00
        -11   -1    0    0    0    0  0.00000000000E+00  0.00000000000E+00  0.45593999997E+02  0.45594000000E+02  0.51100000000E-03 0. -1.
         11   -1    0    0    0    0 -0.00000000000E+00 -0.00000000000E+00 -0.45593999997E+02  0.45594000000E+02  0.51100000000E-03 0.  1.
    9900012    2    1    2    0    0  0.15805085290E+02 -0.24947998701E+02  0.12021681593E+02  0.59301887215E+02  0.49999896387E+02 0.  0.
        -12    1    1    2    0    0 -0.15805085290E+02  0.24947998701E+02 -0.12021681593E+02  0.31886112785E+02  0.00000000000E+00 0.  1.
         11    1    3    3    0    0  0.18869402304E+02  0.19705289056E+01  0.21773478747E+02  0.28879433936E+02  0.51100000000E-03 0. -1.
        -11    1    3    3    0    0 -0.24967206919E+01 -0.12666686293E+02 -0.97182091882E+01  0.16159274301E+02  0.51100000000E-03 0.  1.
         12    1    3    3    0    0 -0.56759632168E+00 -0.14251841313E+02 -0.33587965316E-01  0.14263178978E+02  0.00000000000E+00 0. -1.
</event>
<event>
 7    1  0.1096439E-011  0.5930198E+02  0.7816164E-02  0.1266605E+00
        -11   -1    0    0    0    0  0.00000000000E+00  0.00000000000E+00  0.45593999997E+02  0.45594000000E+02  0.51100000000E-03 0.  1.
         11   -1    0    0    0    0 -0.00000000000E+00 -0.00000000000E+00 -0.45593999997E+02  0.45594000000E+02  0.51100000000E-03 0. -1.
    9900012    2    1    2    0    0 -0.31215538776E+00 -0.50722861923E+01 -0.31478451690E+02  0.59301977215E+02  0.50000060526E+02 0.  0.
        -12    1    1    2    0    0  0.31215538776E+00  0.50722861923E+01  0.31478451690E+02  0.31886022785E+02  0.00000000000E+00 0.  1.
         11    1    3    3    0    0 -0.17386634875E+02  0.24857404525E+00 -0.27329484780E+02  0.32392245985E+02  0.51100000000E-03 0. -1.
        -11    1    3    3    0    0  0.18571462408E+02 -0.93821159808E+01 -0.67325398952E+01  0.21868937102E+02  0.51100000000E-03 0.  1.
         12    1    3    3    0    0 -0.14969829209E+01  0.40612557433E+01  0.25835729850E+01  0.50407941286E+01  0.00000000000E+00 0. -1.
</event>
<event>
 7    1  0.1207095E-011  0.5930194E+02  0.7816164E-02  0.1266605E+00
        -11   -1    0    0    0    0  0.00000000000E+00  0.00000000000E+00  0.45593999997E+02  0.45594000000E+02  0.51100000000E-03 0.  1.
         11   -1    0    0    0    0 -0.00000000000E+00 -0.00000000000E+00 -0.45593999997E+02  0.45594000000E+02  0.51100000000E-03 0. -1.
    9900012    2    1    2    0    0 -0.22768386770E+02  0.12036431815E+02 -0.18800144141E+02  0.59301944323E+02  0.50000000539E+02 0.  0.
        -12    1    1    2    0    0  0.22768386770E+02 -0.12036431815E+02  0.18800144141E+02  0.31886055677E+02  0.00000000000E+00 0.  1.
         11    1    3    3    0    0 -0.15616670878E+02  0.63473836023E+01 -0.23524184626E+02  0.28940576194E+02  0.51100000000E-03 0. -1.
        -11    1    3    3    0    0 -0.11347635185E+02  0.14945576987E+02  0.68531794178E+01  0.19977616579E+02  0.51100000000E-03 0.  1.
        -12    1    3    3    0    0  0.41959192931E+01 -0.92565287741E+01 -0.21291389327E+01  0.10383751550E+02  0.00000000000E+00 0.  1.
</event>
<event>
 7    1  0.1096439E-011  0.5930195E+02  0.7816164E-02  0.1266605E+00
        -11   -1    0    0    0    0  0.00000000000E+00  0.00000000000E+00  0.45593999997E+02  0.45594000000E+02  0.51100000000E-03 0. -1.
         11   -1    0    0    0    0 -0.00000000000E+00 -0.00000000000E+00 -0.45593999997E+02  0.45594000000E+02  0.51100000000E-03 0.  1.
    9900012    2    1    2    0    0  0.82565798860E+01  0.26729898149E+02  0.15299072981E+02  0.59301949750E+02  0.50000010435E+02 0.  0.
        -12    1    1    2    0    0 -0.82565798860E+01 -0.26729898149E+02 -0.15299072981E+02  0.31886050250E+02  0.00000000000E+00 0.  1.
         11    1    3    3    0    0  0.22893490086E+01  0.26078098330E+02  0.26266474896E+02  0.37084174996E+02  0.51100000000E-03 0. -1.
        -11    1    3    3    0    0  0.11430906216E+02  0.26647397688E+00 -0.12075111467E+02  0.16629640480E+02  0.51100000000E-03 0.  1.
        -12    1    3    3    0    0 -0.54636753388E+01  0.38532584216E+00  0.11077095523E+01  0.55881342740E+01  0.00000000000E+00 0.  1.
</event>
<event>
 7    1  0.1096439E-011  0.5930194E+02  0.7816164E-02  0.1266605E+00
        -11   -1    0    0    0    0  0.00000000000E+00  0.00000000000E+00  0.45593999997E+02  0.45594000000E+02  0.51100000000E-03 0.  1.
         11   -1    0    0    0    0 -0.00000000000E+00 -0.00000000000E+00 -0.45593999997E+02  0.45594000000E+02  0.51100000000E-03 0. -1.
    9900012    2    1    2    0    0  0.61307961990E+01  0.31289528138E+02 -0.31583123604E+00  0.59301937488E+02  0.49999988073E+02 0.  0.
        -12    1    1    2    0    0 -0.61307961990E+01 -0.31289528138E+02  0.31583123604E+00  0.31886062512E+02  0.00000000000E+00 0.  1.
         11    1    3    3    0    0 -0.55075969669E+01  0.14139776327E+02 -0.88796830762E+01  0.17581685663E+02  0.51100000000E-03 0. -1.
        -11    1    3    3    0    0  0.22437183570E+02  0.18855590633E+02  0.30226888070E+01  0.29463488466E+02  0.51100000000E-03 0.  1.
        -12    1    3    3    0    0 -0.10798790404E+02 -0.17058388228E+01  0.55411630331E+01  0.12256763359E+02  0.00000000000E+00 0.  1.
</event>
<event>
 7    1  0.1096439E-011  0.5930195E+02  0.7816164E-02  0.1266605E+00
        -11   -1    0    0    0    0  0.00000000000E+00  0.00000000000E+00  0.45593999997E+02  0.45594000000E+02  0.51100000000E-03 0.  1.
         11   -1    0    0    0    0 -0.00000000000E+00 -0.00000000000E+00 -0.45593999997E+02  0.45594000000E+02  0.51100000000E-03 0. -1.
    9900012    2    1    2    0    0 -0.17569652489E+02 -0.10744403040E+02 -0.24343078456E+02  0.59301947343E+02  0.50000006047E+02 0.  0.
        -12    1    1    2    0    0  0.17569652489E+02  0.10744403040E+02  0.24343078456E+02  0.31886052657E+02  0.00000000000E+00 0.  1.
         11    1    3    3    0    0  0.10384258304E+02  0.46860015514E+01 -0.14855789805E+02  0.18721269243E+02  0.51100000000E-03 0. -1.
        -11    1    3    3    0    0 -0.22641443105E+02 -0.12969501327E+02  0.35076930646E+01  0.26327681657E+02  0.51100000000E-03 0.  1.
         12    1    3    3    0    0 -0.53124676890E+01 -0.24609032651E+01 -0.12994981716E+02  0.14252996444E+02  0.00000000000E+00 0. -1.
</event>
<event>
 7    1  0.1096439E-011  0.5930195E+02  0.7816164E-02  0.1266605E+00
        -11   -1    0    0    0    0  0.00000000000E+00  0.00000000000E+00  0.45593999997E+02  0.45594000000E+02  0.51100000000E-03 0. -1.
         11   -1    0    0    0    0 -0.00000000000E+00 -0.00000000000E+00 -0.45593999997E+02  0.45594000000E+02  0.51100000000E-03 0.  1.
    9900012    2    1    2    0    0  0.10286210293E+02 -0.21632458647E+02  0.21046397071E+02  0.59301949461E+02  0.50000009909E+02 0.  0.
        -12    1    1    2    0    0 -0.10286210293E+02  0.21632458647E+02 -0.21046397071E+02  0.31886050539E+02  0.00000000000E+00 0.  1.
         11    1    3    3    0    0 -0.37236990878E+01  0.41236311643E+01 -0.11987718419E+01  0.56839531196E+01  0.51100000000E-03 0. -1.
        -11    1    3    3    0    0  0.22511486652E+02 -0.60592031675E+01  0.22160229724E+02  0.32164526361E+02  0.51100000000E-03 0.  1.
        -12    1    3    3    0    0 -0.85015772712E+01 -0.19696886644E+02  0.84939188650E-01  0.21453469981E+02  0.00000000000E+00 0.  1.
</event>
<event>
 7    1  0.1096439E-011  0.5930194E+02  0.7816164E-02  0.1266605E+00
        -11   -1    0    0    0    0  0.00000000000E+00  0.00000000000E+00  0.45593999997E+02  0.45594000000E+02  0.51100000000E-03 0.  1.
         11   -1    0    0    0    0 -0.00000000000E+00 -0.00000000000E+00 -0.45593999997E+02  0.45594000000E+02  0.51100000000E-03 0. -1.
    9900012    2    1    2    0    0  0.48584676732E+01  0.31486695060E+02 -0.13055018334E+01  0.59301937074E+02  0.49999987318E+02 0.  0.
        -12    1    1    2    0    0 -0.48584676732E+01 -0.31486695060E+02  0.13055018334E+01  0.31886062926E+02  0.00000000000E+00 0.  1.
         11    1    3    3    0    0  0.81777791048E+01  0.14573586320E+02 -0.89522585103E+01  0.18958070103E+02  0.51100000000E-03 0. -1.
        -11    1    3    3    0    0 -0.14746700286E+02 -0.15699878910E+01  0.10854513374E+02  0.18377989340E+02  0.51100000000E-03 0.  1.
        -12    1    3    3    0    0  0.11427388855E+02  0.18483096630E+02 -0.32077566976E+01  0.21965877631E+02  0.00000000000E+00 0.  1.
</event>
<event>
 7    1  0.1096439E-011  0.5930198E+02  0.7816164E-02  0.1266605E+00
        -11   -1    0    0    0    0  0.00000000000E+00  0.00000000000E+00  0.45593999997E+02  0.45594000000E+02  0.51100000000E-03 0.  1.
         11   -1    0    0    0    0 -0.00000000000E+00 -0.00000000000E+00 -0.45593999997E+02  0.45594000000E+02  0.51100000000E-03 0. -1.
    9900012    2    1    2    0    0 -0.28037756880E+02 -0.42300760005E+01 -0.14584552910E+02  0.59301975830E+02  0.50000057999E+02 0.  0.
        -12    1    1    2    0    0  0.28037756880E+02  0.42300760005E+01  0.14584552910E+02  0.31886024170E+02  0.00000000000E+00 0.  1.
         11    1    3    3    0    0 -0.21965894720E+02 -0.12754284606E+02 -0.36941325942E+01  0.25667468176E+02  0.51100000000E-03 0. -1.
        -11    1    3    3    0    0 -0.29831647338E+01  0.19334913709E+02 -0.10891685357E+02  0.22391225294E+02  0.51100000000E-03 0.  1.
        -12    1    3    3    0    0 -0.30886974253E+01 -0.10810705103E+02  0.12650411365E-02  0.11243282360E+02  0.00000000000E+00 0.  1.
</event>
<event>
 7    1  0.1096439E-011  0.5930196E+02  0.7816164E-02  0.1266605E+00
        -11   -1    0    0    0    0  0.00000000000E+00  0.00000000000E+00  0.45593999997E+02  0.45594000000E+02  0.51100000000E-03 0. -1.
         11   -1    0    0    0    0 -0.00000000000E+00 -0.00000000000E+00 -0.45593999997E+02  0.45594000000E+02  0.51100000000E-03 0.  1.
    9900012    2    1    2    0    0  0.99449219068E+01  0.12019209871E+02  0.27809296535E+02  0.59301955224E+02  0.50000020420E+02 0.  0.
        -12    1    1    2    0    0 -0.99449219068E+01 -0.12019209871E+02 -0.27809296535E+02  0.31886044776E+02  0.00000000000E+00 0.  1.
         11    1    3    3    0    0  0.55990571475E+01  0.15881014512E+02  0.60647516845E+01  0.17897968492E+02  0.51100000000E-03 0. -1.
        -11    1    3    3    0    0  0.52603014937E+01 -0.19063527289E+02  0.14604187028E+02  0.24583960696E+02  0.51100000000E-03 0.  1.
        -12    1    3    3    0    0 -0.91443673443E+00  0.15201722649E+02  0.71403578227E+01  0.16820026036E+02  0.00000000000E+00 0.  1.
</event>
<event>
 7    1  0.1096439E-011  0.5930199E+02  0.7816164E-02  0.1266605E+00
        -11   -1    0    0    0    0  0.00000000000E+00  0.00000000000E+00  0.45593999997E+02  0.45594000000E+02  0.51100000000E-03 0. -1.
         11   -1    0    0    0    0 -0.00000000000E+00 -0.00000000000E+00 -0.45593999997E+02  0.45594000000E+02  0.51100000000E-03 0.  1.
    9900012    2    1    2    0    0 -0.20971366322E+02 -0.66294791014E+01 -0.23086136192E+02  0.59301986093E+02  0.50000076718E+02 0.  0.
        -12    1    1    2    0    0  0.20971366322E+02  0.66294791014E+01  0.23086136192E+02  0.31886013907E+02  0.00000000000E+00 0.  1.
         11    1    3    3    0    0 -0.49649644650E+01 -0.50682118907E+01  0.69146582634E+01  0.99070754044E+01  0.51100000000E-03 0. -1.
        -11    1    3    3    0    0  0.72694162052E+01 -0.95708984637E+01 -0.18887341920E+02  0.22387009502E+02  0.51100000000E-03 0.  1.
        -12    1    3    3    0    0 -0.23275818062E+02  0.80096312530E+01 -0.11113452536E+02  0.27007901187E+02  0.00000000000E+00 0.  1.
</event>
<event>
 7    1  0.1096439E-011  0.5930190E+02  0.7816164E-02  0.1266605E+00
        -11   -1    0    0    0    0  0.00000000000E+00  0.00000000000E+00  0.45593999997E+02  0.45594000000E+02  0.51100000000E-03 0.  1.
         11   -1    0    0    0    0 -0.00000000000E+00 -0.00000000000E+00 -0.45593999997E+02  0.45594000000E+02  0.51100000000E-03 0. -1.
    9900012    2    1    2    0    0 -0.32347178462E+01 -0.28712891702E+02  0.13484417476E+02  0.59301904847E+02  0.49999928543E+02 0.  0.
        -12    1    1    2    0    0  0.32347178462E+01  0.28712891702E+02 -0.13484417476E+02  0.31886095153E+02  0.00000000000E+00 0.  1.
         11    1    3    3    0    0  0.11408645110E+02 -0.23987881873E+02  0.65584920276E+01  0.27360363264E+02  0.51100000000E-03 0.  1.
        -11    1    3    3    0    0 -0.15604674562E+02  0.57904777668E+01  0.11708067458E+02  0.20349799626E+02  0.51100000000E-03 0. -1.
         12    1    3    3    0    0  0.96131160629E+00 -0.10515487596E+02 -0.47821420097E+01  0.11591741956E+02  0.00000000000E+00 0. -1.
</event>
<event>
 7    1  0.1096439E-011  0.5930194E+02  0.7816164E-02  0.1266605E+00
        -11   -1    0    0    0    0  0.00000000000E+00  0.00000000000E+00  0.45593999997E+02  0.45594000000E+02  0.51100000000E-03 0.  1.
         11   -1    0    0    0    0 -0.00000000000E+00 -0.00000000000E+00 -0.45593999997E+02  0.45594000000E+02  0.51100000000E-03 0. -1.
    9900012    2    1    2    0    0 -0.84674859754E+01  0.11081474474E+02 -0.28674443243E+02  0.59301935794E+02  0.49999984983E+02 0.  0.
        -12    1    1    2    0    0  0.84674859754E+01 -0.11081474474E+02  0.28674443243E+02  0.31886064206E+02  0.00000000000E+00 0.  1.
         11    1    3    3    0    0  0.20254524332E+01  0.15939695869E+02 -0.18677761032E+01  0.16176061009E+02  0.51100000000E-03 0. -1.
        -11    1    3    3    0    0 -0.15641199732E+02 -0.10662974136E+01 -0.11383834165E+00  0.15677916911E+02  0.51100000000E-03 0.  1.
         12    1    3    3    0    0  0.51482613238E+01 -0.37919239811E+01 -0.26692828799E+02  0.27447957873E+02  0.00000000000E+00 0. -1.
</event>
<event>
 7    1  0.1096439E-011  0.5930195E+02  0.7816164E-02  0.1266605E+00
        -11   -1    0    0    0    0  0.00000000000E+00  0.00000000000E+00  0.45593999997E+02  0.45594000000E+02  0.51100000000E-03 0.  1.
         11   -1    0    0    0    0 -0.00000000000E+00 -0.00000000000E+00 -0.45593999997E+02  0.45594000000E+02  0.51100000000E-03 0. -1.
    9900012    2    1    2    0    0  0.20605955994E+02  0.23169088777E+02  0.74369336040E+01  0.59301951662E+02  0.50000013923E+02 0.  0.
        -12    1    1    2    0    0 -0.20605955994E+02 -0.23169088777E+02 -0.74369336040E+01  0.31886048338E+02  0.00000000000E+00 0.  1.
         11    1    3    3    0    0  0.27607226773E+02  0.17639899854E+02 -0.85705745240E+01  0.33864137149E+02  0.51100000000E-03 0. -1.
        -11    1    3    3    0    0 -0.12833019433E+02  0.29485501930E+01  0.12518912125E+02  0.18168750564E+02  0.51100000000E-03 0.  1.
        -12    1    3    3    0    0  0.58317486542E+01  0.25806387297E+01  0.34885960029E+01  0.72690639487E+01  0.00000000000E+00 0.  1.
</event>
<event>
 7    1  0.1096439E-011  0.5930195E+02  0.7816164E-02  0.1266605E+00
        -11   -1    0    0    0    0  0.00000000000E+00  0.00000000000E+00  0.45593999997E+02  0.45594000000E+02  0.51100000000E-03 0.  1.
         11   -1    0    0    0    0 -0.00000000000E+00 -0.00000000000E+00 -0.45593999997E+02  0.45594000000E+02  0.51100000000E-03 0. -1.
    9900012    2    1    2    0    0 -0.12863345751E+02 -0.25196627985E+01 -0.29067265302E+02  0.59301948556E+02  0.50000008259E+02 0.  0.
        -12    1    1    2    0    0  0.12863345751E+02  0.25196627985E+01  0.29067265302E+02  0.31886051444E+02  0.00000000000E+00 0.  1.
         11    1    3    3    0    0  0.13717511519E+01 -0.11494672597E+02 -0.39720126962E+01  0.12238712532E+02  0.51100000000E-03 0. -1.
        -11    1    3    3    0    0  0.63939646352E+01  0.10515489188E+02 -0.23235290602E+02  0.26293288616E+02  0.51100000000E-03 0.  1.
        -12    1    3    3    0    0 -0.20629061538E+02 -0.15404793896E+01 -0.18599620039E+01  0.20769947408E+02  0.00000000000E+00 0.  1.
</event>
<event>
 7    1  0.1096439E-011  0.5930189E+02  0.7816164E-02  0.1266605E+00
        -11   -1    0    0    0    0  0.00000000000E+00  0.00000000000E+00  0.45593999997E+02  0.45594000000E+02  0.51100000000E-03 0. -1.
         11   -1    0    0    0    0 -0.00000000000E+00 -0.00000000000E+00 -0.45593999997E+02  0.45594000000E+02  0.51100000000E-03 0.  1.
    9900012    2    1    2    0    0  0.20379573030E+01 -0.36397498638E+01  0.31612065673E+02  0.59301894168E+02  0.49999909067E+02 0.  0.
        -12    1    1    2    0    0 -0.20379573030E+01  0.36397498638E+01 -0.31612065673E+02  0.31886105832E+02  0.00000000000E+00 0.  1.
         11    1    3    3    0    0 -0.54004616000E+01 -0.15643777972E+02 -0.13481838342E+01  0.16604528739E+02  0.51100000000E-03 0. -1.
        -11    1    3    3    0    0  0.17655752643E+01  0.90826646156E+01  0.13084641519E+00  0.92536032754E+01  0.51100000000E-03 0.  1.
         12    1    3    3    0    0  0.56728436387E+01  0.29213634927E+01  0.32829403092E+02  0.33443762153E+02  0.00000000000E+00 0. -1.
</event>
<event>
 7    1  0.1096439E-011  0.5930194E+02  0.7816164E-02  0.1266605E+00
        -11   -1    0    0    0    0  0.00000000000E+00  0.00000000000E+00  0.45593999997E+02  0.45594000000E+02  0.51100000000E-03 0.  1.
         11   -1    0    0    0    0 -0.00000000000E+00 -0.00000000000E+00 -0.45593999997E+02  0.45594000000E+02  0.51100000000E-03 0. -1.
    9900012    2    1    2    0    0 -0.31411674092E+02 -0.12333395034E+01 -0.53391390997E+01  0.59301940320E+02  0.49999993238E+02 0.  0.
        -12    1    1    2    0    0  0.31411674092E+02  0.12333395034E+01  0.53391390997E+01  0.31886059680E+02  0.00000000000E+00 0.  1.
         11    1    3    3    0    0 -0.90828532372E+01 -0.21794128963E+02 -0.90916215338E+01  0.25300985407E+02  0.51100000000E-03 0. -1.
        -11    1    3    3    0    0 -0.18200073000E+02  0.10106424803E+02 -0.27765194332E+01  0.21002179409E+02  0.51100000000E-03 0.  1.
         12    1    3    3    0    0 -0.41287478551E+01  0.10454364657E+02  0.65290018673E+01  0.12998775504E+02  0.00000000000E+00 0. -1.
</event>
<event>
 7    1  0.1096439E-011  0.5930195E+02  0.7816164E-02  0.1266605E+00
        -11   -1    0    0    0    0  0.00000000000E+00  0.00000000000E+00  0.45593999997E+02  0.45594000000E+02  0.51100000000E-03 0. -1.
         11   -1    0    0    0    0 -0.00000000000E+00 -0.00000000000E+00 -0.45593999997E+02  0.45594000000E+02  0.51100000000E-03 0.  1.
    9900012    2    1    2    0    0 -0.24551540676E+02 -0.97919922381E+01  0.17834201703E+02  0.59301952708E+02  0.50000015830E+02 0.  0.
        -12    1    1    2    0    0  0.24551540676E+02  0.97919922381E+01 -0.17834201703E+02  0.31886047292E+02  0.00000000000E+00 0.  1.
         11    1    3    3    0    0 -0.42893227136E+01  0.54705663358E+01  0.18070810644E+01  0.71826824801E+01  0.51100000000E-03 0. -1.
        -11    1    3    3    0    0 -0.26875798281E+02 -0.25313096206E+02  0.15600510293E+02  0.40080385408E+02  0.51100000000E-03 0.  1.
        -12    1    3    3    0    0  0.66135803187E+01  0.10050537632E+02  0.42661034549E+00  0.12038884820E+02  0.00000000000E+00 0.  1.
</event>
<event>
 7    1  0.1096439E-011  0.5930195E+02  0.7816164E-02  0.1266605E+00
        -11   -1    0    0    0    0  0.00000000000E+00  0.00000000000E+00  0.45593999997E+02  0.45594000000E+02  0.51100000000E-03 0.  1.
         11   -1    0    0    0    0 -0.00000000000E+00 -0.00000000000E+00 -0.45593999997E+02  0.45594000000E+02  0.51100000000E-03 0. -1.
    9900012    2    1    2    0    0 -0.30388203501E+02  0.34129503771E+00 -0.96519746086E+01  0.59301952767E+02  0.50000015938E+02 0.  0.
        -12    1    1    2    0    0  0.30388203501E+02 -0.34129503771E+00  0.96519746086E+01  0.31886047233E+02  0.00000000000E+00 0.  1.
         11    1    3    3    0    0 -0.15019199180E+01 -0.92910923784E+01  0.26808545084E+01  0.97860687807E+01  0.51100000000E-03 0. -1.
        -11    1    3    3    0    0 -0.28958103861E+02  0.58462166649E+01 -0.23484029579E+02  0.37739232558E+02  0.51100000000E-03 0.  1.
        -12    1    3    3    0    0  0.71820277783E-01  0.37861707512E+01  0.11151200462E+02  0.11776651428E+02  0.00000000000E+00 0.  1.
</event>
<event>
 7    1  0.1096439E-011  0.5930194E+02  0.7816164E-02  0.1266605E+00
        -11   -1    0    0    0    0  0.00000000000E+00  0.00000000000E+00  0.45593999997E+02  0.45594000000E+02  0.51100000000E-03 0.  1.
         11   -1    0    0    0    0 -0.00000000000E+00 -0.00000000000E+00 -0.45593999997E+02  0.45594000000E+02  0.51100000000E-03 0. -1.
    9900012    2    1    2    0    0  0.28943144737E+02 -0.89501536032E+01  0.99453385655E+01  0.59301942922E+02  0.49999997984E+02 0.  0.
        -12    1    1    2    0    0 -0.28943144737E+02  0.89501536032E+01 -0.99453385655E+01  0.31886057078E+02  0.00000000000E+00 0.  1.
         11    1    3    3    0    0  0.41748175509E+01  0.10451157699E+01  0.13075207647E+02  0.13765261487E+02  0.51100000000E-03 0.  1.
        -11    1    3    3    0    0  0.24045459311E+02 -0.16255106806E+01 -0.16879630669E+02  0.29423601585E+02  0.51100000000E-03 0. -1.
        -12    1    3    3    0    0  0.72286787502E+00 -0.83697586924E+01  0.13749761588E+02  0.16113079850E+02  0.00000000000E+00 0.  1.
</event>
<event>
 7    1  0.1096439E-011  0.5930191E+02  0.7816164E-02  0.1266605E+00
        -11   -1    0    0    0    0  0.00000000000E+00  0.00000000000E+00  0.45593999997E+02  0.45594000000E+02  0.51100000000E-03 0. -1.
         11   -1    0    0    0    0 -0.00000000000E+00 -0.00000000000E+00 -0.45593999997E+02  0.45594000000E+02  0.51100000000E-03 0.  1.
    9900012    2    1    2    0    0  0.91809072579E+01 -0.30102100342E+02  0.51281022399E+01  0.59301906861E+02  0.49999932217E+02 0.  0.
        -12    1    1    2    0    0 -0.91809072579E+01  0.30102100342E+02 -0.51281022399E+01  0.31886093139E+02  0.00000000000E+00 0.  1.
         11    1    3    3    0    0 -0.69766052255E+01 -0.26510096255E+01  0.47422298699E+01  0.88424892936E+01  0.51100000000E-03 0. -1.
        -11    1    3    3    0    0  0.58974614979E+01 -0.17171068337E+02 -0.18971460966E+02  0.26259131200E+02  0.51100000000E-03 0.  1.
        -12    1    3    3    0    0  0.10260050985E+02 -0.10280022380E+02  0.19357333336E+02  0.24200286367E+02  0.00000000000E+00 0.  1.
</event>
<event>
 7    1  0.1096439E-011  0.5930194E+02  0.7816164E-02  0.1266605E+00
        -11   -1    0    0    0    0  0.00000000000E+00  0.00000000000E+00  0.45593999997E+02  0.45594000000E+02  0.51100000000E-03 0.  1.
         11   -1    0    0    0    0 -0.00000000000E+00 -0.00000000000E+00 -0.45593999997E+02  0.45594000000E+02  0.51100000000E-03 0. -1.
    9900012    2    1    2    0    0 -0.40927142978E+01 -0.64971732165E+01 -0.30947650622E+02  0.59301942716E+02  0.49999997607E+02 0.  0.
        -12    1    1    2    0    0  0.40927142978E+01  0.64971732165E+01  0.30947650622E+02  0.31886057284E+02  0.00000000000E+00 0.  1.
         11    1    3    3    0    0  0.10627370014E+02  0.46704258415E+01 -0.16921445657E+02  0.20520457947E+02  0.51100000000E-03 0. -1.
        -11    1    3    3    0    0 -0.10636457898E+02 -0.18039789620E+02  0.18323917626E+01  0.21022033821E+02  0.51100000000E-03 0.  1.
        -12    1    3    3    0    0 -0.40836264137E+01  0.68721905617E+01 -0.15858596728E+02  0.17759450948E+02  0.00000000000E+00 0.  1.
</event>
<event>
 7    1  0.1096439E-011  0.5930192E+02  0.7816164E-02  0.1266605E+00
        -11   -1    0    0    0    0  0.00000000000E+00  0.00000000000E+00  0.45593999997E+02  0.45594000000E+02  0.51100000000E-03 0.  1.
         11   -1    0    0    0    0 -0.00000000000E+00 -0.00000000000E+00 -0.45593999997E+02  0.45594000000E+02  0.51100000000E-03 0. -1.
    9900012    2    1    2    0    0  0.18152034661E+01  0.19459833478E+02 -0.25194090696E+02  0.59301917007E+02  0.49999950720E+02 0.  0.
        -12    1    1    2    0    0 -0.18152034661E+01 -0.19459833478E+02  0.25194090696E+02  0.31886082993E+02  0.00000000000E+00 0.  1.
         11    1    3    3    0    0  0.11705252352E+02  0.22961735789E+02  0.39727344563E+01  0.26077516416E+02  0.51100000000E-03 0. -1.
        -11    1    3    3    0    0  0.24021726223E+01 -0.26657115409E+01 -0.67955155103E+01  0.76847565113E+01  0.51100000000E-03 0.  1.
         12    1    3    3    0    0 -0.12292221508E+02 -0.83619077010E+00 -0.22371309642E+02  0.25539644080E+02  0.00000000000E+00 0. -1.
</event>
<event>
 7    1  0.1096439E-011  0.5930196E+02  0.7816164E-02  0.1266605E+00
        -11   -1    0    0    0    0  0.00000000000E+00  0.00000000000E+00  0.45593999997E+02  0.45594000000E+02  0.51100000000E-03 0.  1.
         11   -1    0    0    0    0 -0.00000000000E+00 -0.00000000000E+00 -0.45593999997E+02  0.45594000000E+02  0.51100000000E-03 0. -1.
    9900012    2    1    2    0    0  0.18693778373E+02 -0.76491996158E+01 -0.24672902036E+02  0.59301957607E+02  0.50000024765E+02 0.  0.
        -12    1    1    2    0    0 -0.18693778373E+02  0.76491996158E+01  0.24672902036E+02  0.31886042393E+02  0.00000000000E+00 0.  1.
         11    1    3    3    0    0  0.82025007933E+01 -0.79033498245E+00 -0.53969176770E+01  0.98505009681E+01  0.51100000000E-03 0. -1.
        -11    1    3    3    0    0 -0.98604077737E+01  0.71965293007E+01 -0.21389540832E+02  0.24627832481E+02  0.51100000000E-03 0.  1.
        -12    1    3    3    0    0  0.20351685354E+02 -0.14055393934E+02  0.21135564732E+01  0.24823624158E+02  0.00000000000E+00 0.  1.
</event>
<event>
 7    1  0.1096439E-011  0.5930187E+02  0.7816164E-02  0.1266605E+00
        -11   -1    0    0    0    0  0.00000000000E+00  0.00000000000E+00  0.45593999997E+02  0.45594000000E+02  0.51100000000E-03 0.  1.
         11   -1    0    0    0    0 -0.00000000000E+00 -0.00000000000E+00 -0.45593999997E+02  0.45594000000E+02  0.51100000000E-03 0. -1.
    9900012    2    1    2    0    0 -0.98443487885E+01  0.86950833714E+01 -0.29055282016E+02  0.59301873065E+02  0.49999870580E+02 0.  0.
        -12    1    1    2    0    0  0.98443487885E+01 -0.86950833714E+01  0.29055282016E+02  0.31886126935E+02  0.00000000000E+00 0.  1.
         11    1    3    3    0    0 -0.14596591243E+02  0.26342742640E+02 -0.22920034612E+02  0.37846116744E+02  0.51100000000E-03 0. -1.
        -11    1    3    3    0    0  0.58660875212E+01 -0.11340335146E+02 -0.26924324532E+00  0.12770539386E+02  0.51100000000E-03 0.  1.
        -12    1    3    3    0    0 -0.11138450672E+01 -0.63073241224E+01 -0.58660041585E+01  0.86852169349E+01  0.00000000000E+00 0.  1.
</event>
<event>
 7    1  0.1096439E-011  0.5930191E+02  0.7816164E-02  0.1266605E+00
        -11   -1    0    0    0    0  0.00000000000E+00  0.00000000000E+00  0.45593999997E+02  0.45594000000E+02  0.51100000000E-03 0.  1.
         11   -1    0    0    0    0 -0.00000000000E+00 -0.00000000000E+00 -0.45593999997E+02  0.45594000000E+02  0.51100000000E-03 0. -1.
    9900012    2    1    2    0    0  0.23207552208E+02 -0.20806941950E+02 -0.67233481769E+01  0.59301910188E+02  0.49999938284E+02 0.  0.
        -12    1    1    2    0    0 -0.23207552208E+02  0.20806941950E+02  0.67233481769E+01  0.31886089812E+02  0.00000000000E+00 0.  1.
         11    1    3    3    0    0 -0.19708532497E+01 -0.22854847040E+02 -0.95526115293E+01  0.24849158598E+02  0.51100000000E-03 0. -1.
        -11    1    3    3    0    0  0.22112360165E+02  0.77320134225E+01 -0.53527361444E+01  0.24028988496E+02  0.51100000000E-03 0.  1.
         12    1    3    3    0    0  0.30660452928E+01 -0.56841083324E+01  0.81819994967E+01  0.10423763094E+02  0.00000000000E+00 0. -1.
</event>
<event>
 7    1  0.1096439E-011  0.5930193E+02  0.7816164E-02  0.1266605E+00
        -11   -1    0    0    0    0  0.00000000000E+00  0.00000000000E+00  0.45593999997E+02  0.45594000000E+02  0.51100000000E-03 0.  1.
         11   -1    0    0    0    0 -0.00000000000E+00 -0.00000000000E+00 -0.45593999997E+02  0.45594000000E+02  0.51100000000E-03 0. -1.
    9900012    2    1    2    0    0  0.11127622638E+02  0.11391566361E+02 -0.27624801001E+02  0.59301930940E+02  0.49999976131E+02 0.  0.
        -12    1    1    2    0    0 -0.11127622638E+02 -0.11391566361E+02  0.27624801001E+02  0.31886069060E+02  0.00000000000E+00 0.  1.
         11    1    3    3    0    0  0.20678879061E+02 -0.12441850949E+02 -0.20291214712E+02  0.31530129860E+02  0.51100000000E-03 0. -1.
        -11    1    3    3    0    0 -0.43955013869E+01  0.94828705486E+01 -0.68862829581E+01  0.12516635312E+02  0.51100000000E-03 0.  1.
         12    1    3    3    0    0 -0.51557550360E+01  0.14350546762E+02 -0.44730333113E+00  0.15255165768E+02  0.00000000000E+00 0. -1.
</event>
<event>
 7    1  0.1096439E-011  0.5930195E+02  0.7816164E-02  0.1266605E+00
        -11   -1    0    0    0    0  0.00000000000E+00  0.00000000000E+00  0.45593999997E+02  0.45594000000E+02  0.51100000000E-03 0. -1.
         11   -1    0    0    0    0 -0.00000000000E+00 -0.00000000000E+00 -0.45593999997E+02  0.45594000000E+02  0.51100000000E-03 0.  1.
    9900012    2    1    2    0    0  0.22937295722E+02 -0.21734429062E+02  0.42678959544E+01  0.59301954815E+02  0.50000019673E+02 0.  0.
        -12    1    1    2    0    0 -0.22937295722E+02  0.21734429062E+02 -0.42678959544E+01  0.31886045185E+02  0.00000000000E+00 0.  1.
         11    1    3    3    0    0  0.12492763912E+02 -0.14851752898E+02  0.18171045010E+02  0.26586285775E+02  0.51100000000E-03 0. -1.
        -11    1    3    3    0    0 -0.54021236253E+01  0.66346279988E+01 -0.59449488287E+01  0.10418428153E+02  0.51100000000E-03 0.  1.
        -12    1    3    3    0    0  0.15846655435E+02 -0.13517304163E+02 -0.79582002264E+01  0.22297240887E+02  0.00000000000E+00 0.  1.
</event>
<event>
 7    1  0.1096439E-011  0.5930192E+02  0.7816164E-02  0.1266605E+00
        -11   -1    0    0    0    0  0.00000000000E+00  0.00000000000E+00  0.45593999997E+02  0.45594000000E+02  0.51100000000E-03 0.  1.
         11   -1    0    0    0    0 -0.00000000000E+00 -0.00000000000E+00 -0.45593999997E+02  0.45594000000E+02  0.51100000000E-03 0. -1.
    9900012    2    1    2    0    0  0.21924632109E+00  0.31845642831E+02 -0.15902499967E+01  0.59301922610E+02  0.49999960939E+02 0.  0.
        -12    1    1    2    0    0 -0.21924632109E+00 -0.31845642831E+02  0.15902499967E+01  0.31886077390E+02  0.00000000000E+00 0.  1.
         11    1    3    3    0    0  0.13341302107E+02  0.31153754560E+02 -0.10642430344E+02  0.35521938137E+02  0.51100000000E-03 0. -1.
        -11    1    3    3    0    0 -0.45794419499E+01  0.79293131779E+01  0.86194021521E+01  0.12575348495E+02  0.51100000000E-03 0.  1.
         12    1    3    3    0    0 -0.85426138358E+01 -0.72374249075E+01  0.43277819559E+00  0.11204635978E+02  0.00000000000E+00 0. -1.
</event>
<event>
 7    1  0.1096439E-011  0.5930194E+02  0.7816164E-02  0.1266605E+00
        -11   -1    0    0    0    0  0.00000000000E+00  0.00000000000E+00  0.45593999997E+02  0.45594000000E+02  0.51100000000E-03 0.  1.
         11   -1    0    0    0    0 -0.00000000000E+00 -0.00000000000E+00 -0.45593999997E+02  0.45594000000E+02  0.51100000000E-03 0. -1.
    9900012    2    1    2    0    0 -0.16475846915E+02 -0.58896323044E+01 -0.26656702208E+02  0.59301936072E+02  0.49999985490E+02 0.  0.
        -12    1    1    2    0    0  0.16475846915E+02  0.58896323044E+01  0.26656702208E+02  0.31886063928E+02  0.00000000000E+00 0.  1.
         11    1    3    3    0    0 -0.15416019477E+02  0.13175830841E+02 -0.26113909304E+02  0.33063460713E+02  0.51100000000E-03 0. -1.
        -11    1    3    3    0    0 -0.69827515094E+01 -0.57758799602E+01  0.53695785689E+01  0.10533374684E+02  0.51100000000E-03 0.  1.
         12    1    3    3    0    0  0.59229240714E+01 -0.13289583186E+02 -0.59123714722E+01  0.15705100676E+02  0.00000000000E+00 0. -1.
</event>
<event>
 7    1  0.1096439E-011  0.5930193E+02  0.7816164E-02  0.1266605E+00
        -11   -1    0    0    0    0  0.00000000000E+00  0.00000000000E+00  0.45593999997E+02  0.45594000000E+02  0.51100000000E-03 0.  1.
         11   -1    0    0    0    0 -0.00000000000E+00 -0.00000000000E+00 -0.45593999997E+02  0.45594000000E+02  0.51100000000E-03 0. -1.
    9900012    2    1    2    0    0 -0.25352078152E+02  0.17238716492E+02 -0.87647013758E+01  0.59301934029E+02  0.49999981764E+02 0.  0.
        -12    1    1    2    0    0  0.25352078152E+02 -0.17238716492E+02  0.87647013758E+01  0.31886065971E+02  0.00000000000E+00 0.  1.
         11    1    3    3    0    0 -0.47575818614E+01  0.27258652206E+02  0.54929992393E+01  0.28210667241E+02  0.51100000000E-03 0. -1.
        -11    1    3    3    0    0 -0.70249472388E+01 -0.38096175880E+01  0.27623501718E+01  0.84553916886E+01  0.51100000000E-03 0.  1.
         12    1    3    3    0    0 -0.13569549052E+02 -0.62103181267E+01 -0.17020050787E+02  0.22635875099E+02  0.00000000000E+00 0. -1.
</event>
<event>
 7    1  0.1096439E-011  0.5930193E+02  0.7816164E-02  0.1266605E+00
        -11   -1    0    0    0    0  0.00000000000E+00  0.00000000000E+00  0.45593999997E+02  0.45594000000E+02  0.51100000000E-03 0.  1.
         11   -1    0    0    0    0 -0.00000000000E+00 -0.00000000000E+00 -0.45593999997E+02  0.45594000000E+02  0.51100000000E-03 0. -1.
    9900012    2    1    2    0    0 -0.79417916880E+01  0.48779072248E+01 -0.30493527336E+02  0.59301933396E+02  0.49999980610E+02 0.  0.
        -12    1    1    2    0    0  0.79417916880E+01 -0.48779072248E+01  0.30493527336E+02  0.31886066604E+02  0.00000000000E+00 0.  1.
         11    1    3    3    0    0 -0.15732636105E+01  0.34796918324E+01 -0.92192002105E+00  0.39285303134E+01  0.51100000000E-03 0. -1.
        -11    1    3    3    0    0  0.70045425517E+01 -0.18032163492E+02 -0.24552283878E+02  0.31257593964E+02  0.51100000000E-03 0.  1.
        -12    1    3    3    0    0 -0.13373070629E+02  0.19430378885E+02 -0.50193234370E+01  0.24115809118E+02  0.00000000000E+00 0.  1.
</event>
<event>
 7    1  0.1096439E-011  0.5930193E+02  0.7816164E-02  0.1266605E+00
        -11   -1    0    0    0    0  0.00000000000E+00  0.00000000000E+00  0.45593999997E+02  0.45594000000E+02  0.51100000000E-03 0.  1.
         11   -1    0    0    0    0 -0.00000000000E+00 -0.00000000000E+00 -0.45593999997E+02  0.45594000000E+02  0.51100000000E-03 0. -1.
    9900012    2    1    2    0    0 -0.23467706967E+02  0.17103645537E+02 -0.13170168605E+02  0.59301932478E+02  0.49999978935E+02 0.  0.
        -12    1    1    2    0    0  0.23467706967E+02 -0.17103645537E+02  0.13170168605E+02  0.31886067522E+02  0.00000000000E+00 0.  1.
         11    1    3    3    0    0 -0.15228638784E+02 -0.38862026200E+01 -0.12143997096E+02  0.19861789339E+02  0.51100000000E-03 0. -1.
        -11    1    3    3    0    0  0.54890584590E+00 -0.62544105957E+01  0.72988345087E+01  0.96276650843E+01  0.51100000000E-03 0.  1.
        -12    1    3    3    0    0 -0.87879740285E+01  0.27244258753E+02 -0.83250060180E+01  0.29812478054E+02  0.00000000000E+00 0.  1.
</event>
<event>
 7    1  0.1096439E-011  0.5930194E+02  0.7816164E-02  0.1266605E+00
        -11   -1    0    0    0    0  0.00000000000E+00  0.00000000000E+00  0.45593999997E+02  0.45594000000E+02  0.51100000000E-03 0. -1.
         11   -1    0    0    0    0 -0.00000000000E+00 -0.00000000000E+00 -0.45593999997E+02  0.45594000000E+02  0.51100000000E-03 0.  1.
    9900012    2    1    2    0    0 -0.16759031545E+02 -0.12386592687E+02  0.24133542396E+02  0.59301942149E+02  0.49999996573E+02 0.  0.
        -12    1    1    2    0    0  0.16759031545E+02  0.12386592687E+02 -0.24133542396E+02  0.31886057851E+02  0.00000000000E+00 0.  1.
         11    1    3    3    0    0  0.54314437879E+01  0.98559341128E+01  0.16116530016E+02  0.19656616160E+02  0.51100000000E-03 0.  1.
        -11    1    3    3    0    0 -0.18030856198E+02 -0.22933676669E+01  0.61210088298E+01  0.19179104771E+02  0.51100000000E-03 0. -1.
         12    1    3    3    0    0 -0.41596191352E+01 -0.19949159132E+02  0.18960035503E+01  0.20466221217E+02  0.00000000000E+00 0. -1.
</event>
<event>
 7    1  0.1096439E-011  0.5930180E+02  0.7816164E-02  0.1266605E+00
        -11   -1    0    0    0    0  0.00000000000E+00  0.00000000000E+00  0.45593999997E+02  0.45594000000E+02  0.51100000000E-03 0. -1.
         11   -1    0    0    0    0 -0.00000000000E+00 -0.00000000000E+00 -0.45593999997E+02  0.45594000000E+02  0.51100000000E-03 0.  1.
    9900012    2    1    2    0    0 -0.26907435460E+01 -0.21563041870E+01  0.31699208811E+02  0.59301802550E+02  0.49999741978E+02 0.  0.
        -12    1    1    2    0    0  0.26907435460E+01  0.21563041870E+01 -0.31699208811E+02  0.31886197450E+02  0.00000000000E+00 0.  1.
         11    1    3    3    0    0 -0.17637165145E+01 -0.11939522413E+02  0.81984599859E+01  0.14590326857E+02  0.51100000000E-03 0. -1.
        -11    1    3    3    0    0 -0.16151079363E+01  0.17191592060E+02 -0.26979266771E+01  0.17476790891E+02  0.51100000000E-03 0.  1.
        -12    1    3    3    0    0  0.68808090478E+00 -0.74083738345E+01  0.26198675502E+02  0.27234684802E+02  0.00000000000E+00 0.  1.
</event>
<event>
 7    1  0.1096439E-011  0.5930191E+02  0.7816164E-02  0.1266605E+00
        -11   -1    0    0    0    0  0.00000000000E+00  0.00000000000E+00  0.45593999997E+02  0.45594000000E+02  0.51100000000E-03 0. -1.
         11   -1    0    0    0    0 -0.00000000000E+00 -0.00000000000E+00 -0.45593999997E+02  0.45594000000E+02  0.51100000000E-03 0.  1.
    9900012    2    1    2    0    0 -0.26710442138E+02  0.17163184484E+02  0.29495673236E+01  0.59301912622E+02  0.49999942724E+02 0.  0.
        -12    1    1    2    0    0  0.26710442138E+02 -0.17163184484E+02 -0.29495673236E+01  0.31886087378E+02  0.00000000000E+00 0.  1.
         11    1    3    3    0    0 -0.33606771910E+01  0.13650778924E+02  0.12178624768E+02  0.18599914460E+02  0.51100000000E-03 0. -1.
        -11    1    3    3    0    0 -0.18990628816E+02  0.11058981520E+02 -0.17948309658E+02  0.28374052846E+02  0.51100000000E-03 0.  1.
         12    1    3    3    0    0 -0.43591361313E+01 -0.75465759606E+01  0.87192522135E+01  0.12327945316E+02  0.00000000000E+00 0. -1.
</event>
<event>
 7    1  0.1096439E-011  0.5930197E+02  0.7816164E-02  0.1266605E+00
        -11   -1    0    0    0    0  0.00000000000E+00  0.00000000000E+00  0.45593999997E+02  0.45594000000E+02  0.51100000000E-03 0.  1.
         11   -1    0    0    0    0 -0.00000000000E+00 -0.00000000000E+00 -0.45593999997E+02  0.45594000000E+02  0.51100000000E-03 0. -1.
    9900012    2    1    2    0    0 -0.20653399658E+02  0.18940421820E+02 -0.15212386530E+02  0.59301965438E+02  0.50000039047E+02 0.  0.
        -12    1    1    2    0    0  0.20653399658E+02 -0.18940421820E+02  0.15212386530E+02  0.31886034562E+02  0.00000000000E+00 0.  1.
         11    1    3    3    0    0  0.68173582598E-01  0.20348875227E+02 -0.19604095104E+02  0.28256006720E+02  0.51100000000E-03 0. -1.
        -11    1    3    3    0    0 -0.11650600234E+02  0.41676705324E+01  0.12556016182E+02  0.17628372191E+02  0.51100000000E-03 0.  1.
         12    1    3    3    0    0 -0.90709730071E+01 -0.55761239392E+01 -0.81643076087E+01  0.13417586527E+02  0.00000000000E+00 0. -1.
</event>
<event>
 7    1  0.1096439E-011  0.5930192E+02  0.7816164E-02  0.1266605E+00
        -11   -1    0    0    0    0  0.00000000000E+00  0.00000000000E+00  0.45593999997E+02  0.45594000000E+02  0.51100000000E-03 0.  1.
         11   -1    0    0    0    0 -0.00000000000E+00 -0.00000000000E+00 -0.45593999997E+02  0.45594000000E+02  0.51100000000E-03 0. -1.
    9900012    2    1    2    0    0  0.20483442833E+02 -0.21944979454E+02 -0.10750280687E+02  0.59301920147E+02  0.49999956448E+02 0.  0.
        -12    1    1    2    0    0 -0.20483442833E+02  0.21944979454E+02  0.10750280687E+02  0.31886079853E+02  0.00000000000E+00 0.  1.
         11    1    3    3    0    0 -0.23209270044E+01 -0.10114907786E+02 -0.23780091499E+02  0.25945920944E+02  0.51100000000E-03 0. -1.
        -11    1    3    3    0    0  0.30880715795E+01 -0.15079816426E+01  0.10391857748E+02  0.10945359859E+02  0.51100000000E-03 0.  1.
         12    1    3    3    0    0  0.19716298258E+02 -0.10322090025E+02  0.26379530637E+01  0.22410639345E+02  0.00000000000E+00 0. -1.
</event>
<event>
 7    1  0.1096439E-011  0.5930194E+02  0.7816164E-02  0.1266605E+00
        -11   -1    0    0    0    0  0.00000000000E+00  0.00000000000E+00  0.45593999997E+02  0.45594000000E+02  0.51100000000E-03 0. -1.
         11   -1    0    0    0    0 -0.00000000000E+00 -0.00000000000E+00 -0.45593999997E+02  0.45594000000E+02  0.51100000000E-03 0.  1.
    9900012    2    1    2    0    0 -0.17354764541E+02 -0.23388802566E+02  0.12980629442E+02  0.59301942256E+02  0.49999996769E+02 0.  0.
        -12    1    1    2    0    0  0.17354764541E+02  0.23388802566E+02 -0.12980629442E+02  0.31886057744E+02  0.00000000000E+00 0.  1.
         11    1    3    3    0    0 -0.47764145118E+01 -0.24610320458E+02  0.25337347545E+02  0.35643557476E+02  0.51100000000E-03 0. -1.
        -11    1    3    3    0    0 -0.73714725220E+01 -0.71130010158E+01 -0.51058999728E+01  0.11445680643E+02  0.51100000000E-03 0.  1.
         12    1    3    3    0    0 -0.52068775068E+01  0.83345189086E+01 -0.72508181294E+01  0.12212704138E+02  0.00000000000E+00 0. -1.
</event>
<event>
 7    1  0.1096439E-011  0.5930193E+02  0.7816164E-02  0.1266605E+00
        -11   -1    0    0    0    0  0.00000000000E+00  0.00000000000E+00  0.45593999997E+02  0.45594000000E+02  0.51100000000E-03 0.  1.
         11   -1    0    0    0    0 -0.00000000000E+00 -0.00000000000E+00 -0.45593999997E+02  0.45594000000E+02  0.51100000000E-03 0. -1.
    9900012    2    1    2    0    0 -0.15182606575E+02  0.11584703230E+02 -0.25534377215E+02  0.59301932335E+02  0.49999978676E+02 0.  0.
        -12    1    1    2    0    0  0.15182606575E+02 -0.11584703230E+02  0.25534377215E+02  0.31886067665E+02  0.00000000000E+00 0.  1.
         11    1    3    3    0    0 -0.10211533749E+02  0.88515667309E+01 -0.34625709169E+02  0.37169414723E+02  0.51100000000E-03 0. -1.
        -11    1    3    3    0    0  0.54784602194E+01  0.95557371573E+00  0.10053695428E+02  0.11489274978E+02  0.51100000000E-03 0.  1.
        -12    1    3    3    0    0 -0.10449533046E+02  0.17775627839E+01 -0.96236347339E+00  0.10643242635E+02  0.00000000000E+00 0.  1.
</event>
<event>
 7    1  0.1096439E-011  0.5930194E+02  0.7816164E-02  0.1266605E+00
        -11   -1    0    0    0    0  0.00000000000E+00  0.00000000000E+00  0.45593999997E+02  0.45594000000E+02  0.51100000000E-03 0.  1.
         11   -1    0    0    0    0 -0.00000000000E+00 -0.00000000000E+00 -0.45593999997E+02  0.45594000000E+02  0.51100000000E-03 0. -1.
    9900012    2    1    2    0    0  0.28381380293E+02  0.14139936688E+02  0.33586306931E+01  0.59301937888E+02  0.49999988802E+02 0.  0.
        -12    1    1    2    0    0 -0.28381380293E+02 -0.14139936688E+02 -0.33586306931E+01  0.31886062112E+02  0.00000000000E+00 0.  1.
         11    1    3    3    0    0  0.40770668004E+01 -0.13808148293E+02  0.73430197733E+01  0.16161911169E+02  0.51100000000E-03 0. -1.
        -11    1    3    3    0    0  0.23257588704E+02  0.30768089611E+02 -0.66289438544E+01  0.39134814009E+02  0.51100000000E-03 0.  1.
        -12    1    3    3    0    0  0.10467247888E+01 -0.28200046300E+01  0.26445547742E+01  0.40052127098E+01  0.00000000000E+00 0.  1.
</event>
<event>
 7    1  0.1096439E-011  0.5930194E+02  0.7816164E-02  0.1266605E+00
        -11   -1    0    0    0    0  0.00000000000E+00  0.00000000000E+00  0.45593999997E+02  0.45594000000E+02  0.51100000000E-03 0.  1.
         11   -1    0    0    0    0 -0.00000000000E+00 -0.00000000000E+00 -0.45593999997E+02  0.45594000000E+02  0.51100000000E-03 0. -1.
    9900012    2    1    2    0    0  0.14356098882E+02  0.12690946722E+02 -0.25486533342E+02  0.59301935871E+02  0.49999985125E+02 0.  0.
        -12    1    1    2    0    0 -0.14356098882E+02 -0.12690946722E+02  0.25486533342E+02  0.31886064129E+02  0.00000000000E+00 0.  1.
         11    1    3    3    0    0  0.15915399798E+02  0.16505799000E+02 -0.30439429775E+02  0.38109057148E+02  0.51100000000E-03 0. -1.
        -11    1    3    3    0    0 -0.10662221322E+02  0.15695887710E+00  0.22195123760E+01  0.10891916041E+02  0.51100000000E-03 0.  1.
        -12    1    3    3    0    0  0.91029204060E+01 -0.39718111556E+01  0.27333840572E+01  0.10300962682E+02  0.00000000000E+00 0.  1.
</event>
<event>
 7    1  0.1096439E-011  0.5930193E+02  0.7816164E-02  0.1266605E+00
        -11   -1    0    0    0    0  0.00000000000E+00  0.00000000000E+00  0.45593999997E+02  0.45594000000E+02  0.51100000000E-03 0.  1.
         11   -1    0    0    0    0 -0.00000000000E+00 -0.00000000000E+00 -0.45593999997E+02  0.45594000000E+02  0.51100000000E-03 0. -1.
    9900012    2    1    2    0    0  0.10226317895E+02 -0.29753319539E+02 -0.51849393766E+01  0.59301934115E+02  0.49999981922E+02 0.  0.
        -12    1    1    2    0    0 -0.10226317895E+02  0.29753319539E+02  0.51849393766E+01  0.31886065885E+02  0.00000000000E+00 0.  1.
         11    1    3    3    0    0  0.17212906604E+02 -0.17240401510E+02 -0.15833605246E+02  0.29055441028E+02  0.51100000000E-03 0. -1.
        -11    1    3    3    0    0 -0.96782004487E+01  0.47609650442E+01  0.32682391332E+01  0.11270125970E+02  0.51100000000E-03 0.  1.
         12    1    3    3    0    0  0.26916117404E+01 -0.17273883073E+02  0.73804267363E+01  0.18976367117E+02  0.00000000000E+00 0. -1.
</event>
<event>
 7    1  0.1096439E-011  0.5930201E+02  0.7816164E-02  0.1266605E+00
        -11   -1    0    0    0    0  0.00000000000E+00  0.00000000000E+00  0.45593999997E+02  0.45594000000E+02  0.51100000000E-03 0.  1.
         11   -1    0    0    0    0 -0.00000000000E+00 -0.00000000000E+00 -0.45593999997E+02  0.45594000000E+02  0.51100000000E-03 0. -1.
    9900012    2    1    2    0    0 -0.18618029162E+02 -0.51724786256E+01 -0.25363961989E+02  0.59302013850E+02  0.50000127339E+02 0.  0.
        -12    1    1    2    0    0  0.18618029162E+02  0.51724786256E+01  0.25363961989E+02  0.31885986150E+02  0.00000000000E+00 0.  1.
         11    1    3    3    0    0 -0.22544977161E+02 -0.63101218058E+00 -0.12211166809E+01  0.22586839039E+02  0.51100000000E-03 0. -1.
        -11    1    3    3    0    0 -0.43857347781E+01 -0.13842819414E+02 -0.89517558590E+01  0.17058495013E+02  0.51100000000E-03 0.  1.
         12    1    3    3    0    0  0.83126827776E+01  0.93013529694E+01 -0.15191089449E+02  0.19656679798E+02  0.00000000000E+00 0. -1.
</event>
<event>
 7    1  0.1096439E-011  0.5930194E+02  0.7816164E-02  0.1266605E+00
        -11   -1    0    0    0    0  0.00000000000E+00  0.00000000000E+00  0.45593999997E+02  0.45594000000E+02  0.51100000000E-03 0. -1.
         11   -1    0    0    0    0 -0.00000000000E+00 -0.00000000000E+00 -0.45593999997E+02  0.45594000000E+02  0.51100000000E-03 0.  1.
    9900012    2    1    2    0    0 -0.96151100825E+01 -0.25622494819E+02 -0.16363328459E+02  0.59301935632E+02  0.49999984688E+02 0.  0.
        -12    1    1    2    0    0  0.96151100825E+01  0.25622494819E+02  0.16363328459E+02  0.31886064368E+02  0.00000000000E+00 0.  1.
         11    1    3    3    0    0 -0.25596833756E+02 -0.19726407363E+02 -0.20970369936E+02  0.38523829785E+02  0.51100000000E-03 0. -1.
        -11    1    3    3    0    0  0.16004417329E+02 -0.57806697160E+01  0.69871824246E+01  0.18395060068E+02  0.51100000000E-03 0.  1.
        -12    1    3    3    0    0 -0.22693656015E-01 -0.11541773979E+00 -0.23801409470E+01  0.23830457789E+01  0.00000000000E+00 0.  1.
</event>
<event>
 7    1  0.1096439E-011  0.5930234E+02  0.7816164E-02  0.1266603E+00
        -11   -1    0    0    0    0  0.00000000000E+00  0.00000000000E+00  0.45593999997E+02  0.45594000000E+02  0.51100000000E-03 0.  1.
         11   -1    0    0    0    0 -0.00000000000E+00 -0.00000000000E+00 -0.45593999997E+02  0.45594000000E+02  0.51100000000E-03 0. -1.
    9900012    2    1    2    0    0  0.11518289481E+02  0.28992060279E+02  0.65942821912E+01  0.59302343202E+02  0.50000727994E+02 0.  0.
        -12    1    1    2    0    0 -0.11518289481E+02 -0.28992060279E+02 -0.65942821912E+01  0.31885656798E+02  0.00000000000E+00 0.  1.
         11    1    3    3    0    0  0.39507094441E+01  0.46786474171E+01 -0.20234456834E+02  0.21140744792E+02  0.51100000000E-03 0. -1.
        -11    1    3    3    0    0  0.45655811670E+01  0.49451085790E+01  0.11314199326E+02  0.13164715603E+02  0.51100000000E-03 0.  1.
         12    1    3    3    0    0  0.30019988699E+01  0.19368304283E+02  0.15514539699E+02  0.24996882807E+02  0.00000000000E+00 0. -1.
</event>
<event>
 7    1  0.1096439E-011  0.5930194E+02  0.7816164E-02  0.1266605E+00
        -11   -1    0    0    0    0  0.00000000000E+00  0.00000000000E+00  0.45593999997E+02  0.45594000000E+02  0.51100000000E-03 0.  1.
         11   -1    0    0    0    0 -0.00000000000E+00 -0.00000000000E+00 -0.45593999997E+02  0.45594000000E+02  0.51100000000E-03 0. -1.
    9900012    2    1    2    0    0 -0.26425925498E+02 -0.25848194167E+01 -0.17655311784E+02  0.59301939346E+02  0.49999991461E+02 0.  0.
        -12    1    1    2    0    0  0.26425925498E+02  0.25848194167E+01  0.17655311784E+02  0.31886060654E+02  0.00000000000E+00 0.  1.
         11    1    3    3    0    0 -0.34610460377E+01 -0.24896097803E+01 -0.15797962595E+02  0.16363148198E+02  0.51100000000E-03 0. -1.
        -11    1    3    3    0    0 -0.24201391230E+01 -0.76162336540E+01  0.13860926682E+02  0.15999668034E+02  0.51100000000E-03 0.  1.
        -12    1    3    3    0    0 -0.20544740337E+02  0.75210240176E+01 -0.15718275871E+02  0.26939123114E+02  0.00000000000E+00 0.  1.
</event>
<event>
 7    1  0.1096439E-011  0.5930194E+02  0.7816164E-02  0.1266605E+00
        -11   -1    0    0    0    0  0.00000000000E+00  0.00000000000E+00  0.45593999997E+02  0.45594000000E+02  0.51100000000E-03 0.  1.
         11   -1    0    0    0    0 -0.00000000000E+00 -0.00000000000E+00 -0.45593999997E+02  0.45594000000E+02  0.51100000000E-03 0. -1.
    9900012    2    1    2    0    0 -0.21778908356E+02  0.11755896090E+01 -0.23259795434E+02  0.59301938096E+02  0.49999989182E+02 0.  0.
        -12    1    1    2    0    0  0.21778908356E+02 -0.11755896090E+01  0.23259795434E+02  0.31886061904E+02  0.00000000000E+00 0.  1.
         11    1    3    3    0    0  0.11415269167E+02  0.94580388990E+01 -0.63135023466E+01  0.16112826633E+02  0.51100000000E-03 0.  1.
        -11    1    3    3    0    0 -0.35781310462E+02 -0.92118259124E+01 -0.15346028065E+02  0.40008255306E+02  0.51100000000E-03 0. -1.
         12    1    3    3    0    0  0.25871329389E+01  0.92937662232E+00 -0.16002650219E+01  0.31808561567E+01  0.00000000000E+00 0. -1.
</event>
<event>
 7    1  0.1096439E-011  0.5930192E+02  0.7816164E-02  0.1266605E+00
        -11   -1    0    0    0    0  0.00000000000E+00  0.00000000000E+00  0.45593999997E+02  0.45594000000E+02  0.51100000000E-03 0. -1.
         11   -1    0    0    0    0 -0.00000000000E+00 -0.00000000000E+00 -0.45593999997E+02  0.45594000000E+02  0.51100000000E-03 0.  1.
    9900012    2    1    2    0    0  0.57780094861E+01 -0.19227270452E+01  0.31299197738E+02  0.59301920718E+02  0.49999957489E+02 0.  0.
        -12    1    1    2    0    0 -0.57780094861E+01  0.19227270452E+01 -0.31299197738E+02  0.31886079282E+02  0.00000000000E+00 0.  1.
         11    1    3    3    0    0  0.17886386354E+02 -0.11209422838E+02  0.80438634631E+01  0.22589327499E+02  0.51100000000E-03 0. -1.
        -11    1    3    3    0    0 -0.68273900794E+01  0.16600284002E+02  0.96243149002E+01  0.20366887877E+02  0.51100000000E-03 0.  1.
         12    1    3    3    0    0 -0.52809867889E+01 -0.73135882090E+01  0.13631019375E+02  0.16345705343E+02  0.00000000000E+00 0. -1.
</event>
<event>
 7    1  0.1096439E-011  0.5930196E+02  0.7816164E-02  0.1266605E+00
        -11   -1    0    0    0    0  0.00000000000E+00  0.00000000000E+00  0.45593999997E+02  0.45594000000E+02  0.51100000000E-03 0.  1.
         11   -1    0    0    0    0 -0.00000000000E+00 -0.00000000000E+00 -0.45593999997E+02  0.45594000000E+02  0.51100000000E-03 0. -1.
    9900012    2    1    2    0    0  0.14711908031E+02  0.13480553693E+02 -0.24870751709E+02  0.59301955147E+02  0.50000020279E+02 0.  0.
        -12    1    1    2    0    0 -0.14711908031E+02 -0.13480553693E+02  0.24870751709E+02  0.31886044853E+02  0.00000000000E+00 0.  1.
         11    1    3    3    0    0  0.22572395294E+02 -0.54007674764E+01 -0.49451849174E+01  0.23730490361E+02  0.51100000000E-03 0.  1.
        -11    1    3    3    0    0 -0.11353475296E+02  0.15010386670E+01 -0.10280590549E+02  0.15389771300E+02  0.51100000000E-03 0. -1.
        -12    1    3    3    0    0  0.34929880329E+01  0.17380282502E+02 -0.96449762424E+01  0.20181693486E+02  0.00000000000E+00 0.  1.
</event>
<event>
 7    1  0.1096439E-011  0.5930199E+02  0.7816164E-02  0.1266605E+00
        -11   -1    0    0    0    0  0.00000000000E+00  0.00000000000E+00  0.45593999997E+02  0.45594000000E+02  0.51100000000E-03 0.  1.
         11   -1    0    0    0    0 -0.00000000000E+00 -0.00000000000E+00 -0.45593999997E+02  0.45594000000E+02  0.51100000000E-03 0. -1.
    9900012    2    1    2    0    0 -0.15119010425E+02 -0.23456484977E+02 -0.15424859400E+02  0.59301992862E+02  0.50000089061E+02 0.  0.
        -12    1    1    2    0    0  0.15119010425E+02  0.23456484977E+02  0.15424859400E+02  0.31886007138E+02  0.00000000000E+00 0.  1.
         11    1    3    3    0    0 -0.89081513228E+01 -0.34095542802E+02 -0.66551983082E+00  0.35246334786E+02  0.51100000000E-03 0. -1.
        -11    1    3    3    0    0 -0.79630159057E+01  0.88364510322E+01 -0.33289500414E+01  0.12352100947E+02  0.51100000000E-03 0.  1.
         12    1    3    3    0    0  0.17521568032E+01  0.18026067925E+01 -0.11430389527E+02  0.11703557129E+02  0.00000000000E+00 0. -1.
</event>
<event>
 7    1  0.1096439E-011  0.5930196E+02  0.7816164E-02  0.1266605E+00
        -11   -1    0    0    0    0  0.00000000000E+00  0.00000000000E+00  0.45593999997E+02  0.45594000000E+02  0.51100000000E-03 0. -1.
         11   -1    0    0    0    0 -0.00000000000E+00 -0.00000000000E+00 -0.45593999997E+02  0.45594000000E+02  0.51100000000E-03 0.  1.
    9900012    2    1    2    0    0  0.94642312909E+01 -0.17367075899E+02  0.25010643188E+02  0.59301964312E+02  0.50000036994E+02 0.  0.
        -12    1    1    2    0    0 -0.94642312909E+01  0.17367075899E+02 -0.25010643188E+02  0.31886035688E+02  0.00000000000E+00 0.  1.
         11    1    3    3    0    0  0.30310173977E+01 -0.75744115472E+00  0.31299258776E+02  0.31454799057E+02  0.51100000000E-03 0. -1.
        -11    1    3    3    0    0  0.86368115498E+01 -0.49970149530E+01 -0.11241842378E+02  0.15031423502E+02  0.51100000000E-03 0.  1.
        -12    1    3    3    0    0 -0.22035976566E+01 -0.11612619791E+02  0.49532267904E+01  0.12815741753E+02  0.00000000000E+00 0.  1.
</event>
<event>
 7    1  0.1097758E-011  0.5930196E+02  0.7816164E-02  0.1266605E+00
        -11   -1    0    0    0    0  0.00000000000E+00  0.00000000000E+00  0.45593999997E+02  0.45594000000E+02  0.51100000000E-03 0. -1.
         11   -1    0    0    0    0 -0.00000000000E+00 -0.00000000000E+00 -0.45593999997E+02  0.45594000000E+02  0.51100000000E-03 0.  1.
    9900012    2    1    2    0    0 -0.66810967714E+01  0.17638229746E+02  0.25709434657E+02  0.59301964921E+02  0.50000038105E+02 0.  0.
        -12    1    1    2    0    0  0.66810967714E+01 -0.17638229746E+02 -0.25709434657E+02  0.31886035079E+02  0.00000000000E+00 0.  1.
         11    1    3    3    0    0 -0.12399117007E+02  0.73458807626E+01  0.70309425790E+01  0.16035405219E+02  0.51100000000E-03 0.  1.
        -11    1    3    3    0    0  0.35291459522E+01 -0.14011568429E+02  0.89500334003E+01  0.16996529620E+02  0.51100000000E-03 0. -1.
        -12    1    3    3    0    0  0.21888742837E+01  0.24303917413E+02  0.97284586776E+01  0.26270030082E+02  0.00000000000E+00 0.  1.
</event>
<event>
 7    1  0.1096439E-011  0.5930195E+02  0.7816164E-02  0.1266605E+00
        -11   -1    0    0    0    0  0.00000000000E+00  0.00000000000E+00  0.45593999997E+02  0.45594000000E+02  0.51100000000E-03 0. -1.
         11   -1    0    0    0    0 -0.00000000000E+00 -0.00000000000E+00 -0.45593999997E+02  0.45594000000E+02  0.51100000000E-03 0.  1.
    9900012    2    1    2    0    0  0.23187023041E+02 -0.57810961622E+01  0.21110692293E+02  0.59301946004E+02  0.50000003605E+02 0.  0.
        -12    1    1    2    0    0 -0.23187023041E+02  0.57810961622E+01 -0.21110692293E+02  0.31886053996E+02  0.00000000000E+00 0.  1.
         11    1    3    3    0    0  0.17785399962E+02  0.13532899833E+02  0.25470512072E+02  0.33885200533E+02  0.51100000000E-03 0. -1.
        -11    1    3    3    0    0  0.43597431614E+01 -0.21843383336E+02 -0.42693522257E+01  0.22679685286E+02  0.51100000000E-03 0.  1.
        -12    1    3    3    0    0  0.10418799179E+01  0.25293873402E+01 -0.90467553393E-01  0.27370601854E+01  0.00000000000E+00 0.  1.
</event>
<event>
 7    1  0.1096439E-011  0.5930195E+02  0.7816164E-02  0.1266605E+00
        -11   -1    0    0    0    0  0.00000000000E+00  0.00000000000E+00  0.45593999997E+02  0.45594000000E+02  0.51100000000E-03 0. -1.
         11   -1    0    0    0    0 -0.00000000000E+00 -0.00000000000E+00 -0.45593999997E+02  0.45594000000E+02  0.51100000000E-03 0.  1.
    9900012    2    1    2    0    0 -0.18175060907E+02  0.16205502386E+02 -0.20585647558E+02  0.59301952394E+02  0.50000015259E+02 0.  0.
        -12    1    1    2    0    0  0.18175060907E+02 -0.16205502386E+02  0.20585647558E+02  0.31886047606E+02  0.00000000000E+00 0.  1.
         11    1    3    3    0    0 -0.40470854811E+01  0.10061654984E+02 -0.51540378543E+01  0.12007493842E+02  0.51100000000E-03 0. -1.
        -11    1    3    3    0    0  0.17510052529E+01 -0.53274318513E+01  0.12197932431E+02  0.13425241353E+02  0.51100000000E-03 0.  1.
        -12    1    3    3    0    0 -0.15878980679E+02  0.11471279253E+02 -0.27629542135E+02  0.33869217199E+02  0.00000000000E+00 0.  1.
</event>
<event>
 7    1  0.1096439E-011  0.5930197E+02  0.7816164E-02  0.1266605E+00
        -11   -1    0    0    0    0  0.00000000000E+00  0.00000000000E+00  0.45593999997E+02  0.45594000000E+02  0.51100000000E-03 0.  1.
         11   -1    0    0    0    0 -0.00000000000E+00 -0.00000000000E+00 -0.45593999997E+02  0.45594000000E+02  0.51100000000E-03 0. -1.
    9900012    2    1    2    0    0  0.65879408337E+01  0.30059285477E+02  0.83521016369E+01  0.59301965289E+02  0.50000038776E+02 0.  0.
        -12    1    1    2    0    0 -0.65879408337E+01 -0.30059285477E+02 -0.83521016369E+01  0.31886034711E+02  0.00000000000E+00 0.  1.
         11    1    3    3    0    0 -0.84750511309E+01  0.26396424501E+02  0.22103950133E+02  0.35456767053E+02  0.51100000000E-03 0.  1.
        -11    1    3    3    0    0  0.14780857242E+02  0.17936378980E+01 -0.15338910044E+02  0.21376927733E+02  0.51100000000E-03 0. -1.
         12    1    3    3    0    0  0.28213472272E+00  0.18692230786E+01  0.15870615478E+01  0.24682705030E+01  0.00000000000E+00 0. -1.
</event>
<event>
 7    1  0.1096439E-011  0.5930196E+02  0.7816164E-02  0.1266605E+00
        -11   -1    0    0    0    0  0.00000000000E+00  0.00000000000E+00  0.45593999997E+02  0.45594000000E+02  0.51100000000E-03 0.  1.
         11   -1    0    0    0    0 -0.00000000000E+00 -0.00000000000E+00 -0.45593999997E+02  0.45594000000E+02  0.51100000000E-03 0. -1.
    9900012    2    1    2    0    0  0.19599207101E+02  0.75475601338E+01 -0.23992187869E+02  0.59301958199E+02  0.50000025845E+02 0.  0.
        -12    1    1    2    0    0 -0.19599207101E+02 -0.75475601338E+01  0.23992187869E+02  0.31886041801E+02  0.00000000000E+00 0.  1.
         11    1    3    3    0    0  0.17333780179E+02  0.16213533030E+02  0.74036416533E+00  0.23746299248E+02  0.51100000000E-03 0. -1.
        -11    1    3    3    0    0 -0.48399224887E+01  0.29144586824E+01 -0.20590941995E+02  0.21351951002E+02  0.51100000000E-03 0.  1.
         12    1    3    3    0    0  0.71053494108E+01 -0.11580431578E+02 -0.41416100403E+01  0.14203707949E+02  0.00000000000E+00 0. -1.
</event>
<event>
 7    1  0.1096439E-011  0.5930194E+02  0.7816164E-02  0.1266605E+00
        -11   -1    0    0    0    0  0.00000000000E+00  0.00000000000E+00  0.45593999997E+02  0.45594000000E+02  0.51100000000E-03 0. -1.
         11   -1    0    0    0    0 -0.00000000000E+00 -0.00000000000E+00 -0.45593999997E+02  0.45594000000E+02  0.51100000000E-03 0.  1.
    9900012    2    1    2    0    0  0.43960446810E+01  0.42848614670E+01  0.31289539108E+02  0.59301944988E+02  0.50000001752E+02 0.  0.
        -12    1    1    2    0    0 -0.43960446810E+01 -0.42848614670E+01 -0.31289539108E+02  0.31886055012E+02  0.00000000000E+00 0.  1.
         11    1    3    3    0    0 -0.61403096327E+00  0.14931321208E+01  0.21492374070E+02  0.21552926042E+02  0.51100000000E-03 0. -1.
        -11    1    3    3    0    0 -0.17706315510E+01  0.16741263736E+02 -0.36446467494E+01  0.17224647972E+02  0.51100000000E-03 0.  1.
        -12    1    3    3    0    0  0.67807071952E+01 -0.13949534390E+02  0.13441811787E+02  0.20524370974E+02  0.00000000000E+00 0.  1.
</event>
<event>
 7    1  0.1096439E-011  0.5930208E+02  0.7816164E-02  0.1266604E+00
        -11   -1    0    0    0    0  0.00000000000E+00  0.00000000000E+00  0.45593999997E+02  0.45594000000E+02  0.51100000000E-03 0. -1.
         11   -1    0    0    0    0 -0.00000000000E+00 -0.00000000000E+00 -0.45593999997E+02  0.45594000000E+02  0.51100000000E-03 0.  1.
    9900012    2    1    2    0    0  0.77268711980E+01 -0.24411000047E+02  0.19002912564E+02  0.59302076025E+02  0.50000240732E+02 0.  0.
        -12    1    1    2    0    0 -0.77268711980E+01  0.24411000047E+02 -0.19002912564E+02  0.31885923975E+02  0.00000000000E+00 0.  1.
         11    1    3    3    0    0  0.17169173100E+02 -0.23859319912E+02  0.68084659159E+00  0.29402571383E+02  0.51100000000E-03 0. -1.
        -11    1    3    3    0    0 -0.71459147293E+01  0.10295329880E+02  0.93256353804E+01  0.15621312050E+02  0.51100000000E-03 0.  1.
         12    1    3    3    0    0 -0.22963871724E+01 -0.10847010015E+02  0.89964305923E+01  0.14278192593E+02  0.00000000000E+00 0. -1.
</event>
<event>
 7    1  0.1096439E-011  0.5930194E+02  0.7816164E-02  0.1266605E+00
        -11   -1    0    0    0    0  0.00000000000E+00  0.00000000000E+00  0.45593999997E+02  0.45594000000E+02  0.51100000000E-03 0. -1.
         11   -1    0    0    0    0 -0.00000000000E+00 -0.00000000000E+00 -0.45593999997E+02  0.45594000000E+02  0.51100000000E-03 0.  1.
    9900012    2    1    2    0    0  0.15315429510E+02 -0.27429824157E+02  0.54555775043E+01  0.59301937837E+02  0.49999988710E+02 0.  0.
        -12    1    1    2    0    0 -0.15315429510E+02  0.27429824157E+02 -0.54555775043E+01  0.31886062163E+02  0.00000000000E+00 0.  1.
         11    1    3    3    0    0  0.25347992088E+01 -0.26054082891E+02  0.21854649719E+02  0.34100823406E+02  0.51100000000E-03 0. -1.
        -11    1    3    3    0    0  0.61320952735E+01  0.59891560897E+01 -0.10868629201E+02  0.13841953766E+02  0.51100000000E-03 0.  1.
        -12    1    3    3    0    0  0.66485350276E+01 -0.73648973553E+01 -0.55304430146E+01  0.11359160665E+02  0.00000000000E+00 0.  1.
</event>
<event>
 7    1  0.1096439E-011  0.5930195E+02  0.7816164E-02  0.1266605E+00
        -11   -1    0    0    0    0  0.00000000000E+00  0.00000000000E+00  0.45593999997E+02  0.45594000000E+02  0.51100000000E-03 0.  1.
         11   -1    0    0    0    0 -0.00000000000E+00 -0.00000000000E+00 -0.45593999997E+02  0.45594000000E+02  0.51100000000E-03 0. -1.
    9900012    2    1    2    0    0 -0.24123161114E+02  0.27398036184E+01 -0.20670923007E+02  0.59301945306E+02  0.50000002331E+02 0.  0.
        -12    1    1    2    0    0  0.24123161114E+02 -0.27398036184E+01  0.20670923007E+02  0.31886054694E+02  0.00000000000E+00 0.  1.
         11    1    3    3    0    0 -0.70801304977E+01 -0.13467040880E+02 -0.24613965463E+02  0.28936771313E+02  0.51100000000E-03 0. -1.
        -11    1    3    3    0    0 -0.64227843569E+01  0.13672160389E+02 -0.53522689531E+01  0.16025820160E+02  0.51100000000E-03 0.  1.
         12    1    3    3    0    0 -0.10620246260E+02  0.25346841095E+01  0.92953114098E+01  0.14339353833E+02  0.00000000000E+00 0. -1.
</event>
<event>
 7    1  0.1096439E-011  0.5930195E+02  0.7816164E-02  0.1266605E+00
        -11   -1    0    0    0    0  0.00000000000E+00  0.00000000000E+00  0.45593999997E+02  0.45594000000E+02  0.51100000000E-03 0. -1.
         11   -1    0    0    0    0 -0.00000000000E+00 -0.00000000000E+00 -0.45593999997E+02  0.45594000000E+02  0.51100000000E-03 0.  1.
    9900012    2    1    2    0    0  0.18239229661E+02  0.21472876604E+02  0.14932057192E+02  0.59301948814E+02  0.50000008729E+02 0.  0.
        -12    1    1    2    0    0 -0.18239229661E+02 -0.21472876604E+02 -0.14932057192E+02  0.31886051186E+02  0.00000000000E+00 0.  1.
         11    1    3    3    0    0 -0.56386646037E+01  0.55120047696E+01 -0.40844813756E+01  0.88802997394E+01  0.51100000000E-03 0. -1.
        -11    1    3    3    0    0  0.19133639633E+02  0.18633422417E+02  0.28767126736E+02  0.39253639034E+02  0.51100000000E-03 0.  1.
        -12    1    3    3    0    0  0.47442546317E+01 -0.26725505818E+01 -0.97505881684E+01  0.11168010040E+02  0.00000000000E+00 0.  1.
</event>
<event>
 7    1  0.1096439E-011  0.5930195E+02  0.7816164E-02  0.1266605E+00
        -11   -1    0    0    0    0  0.00000000000E+00  0.00000000000E+00  0.45593999997E+02  0.45594000000E+02  0.51100000000E-03 0.  1.
         11   -1    0    0    0    0 -0.00000000000E+00 -0.00000000000E+00 -0.45593999997E+02  0.45594000000E+02  0.51100000000E-03 0. -1.
    9900012    2    1    2    0    0 -0.90250354022E+01 -0.18331297095E+02 -0.24479226597E+02  0.59301948944E+02  0.50000008965E+02 0.  0.
        -12    1    1    2    0    0  0.90250354022E+01  0.18331297095E+02  0.24479226597E+02  0.31886051056E+02  0.00000000000E+00 0.  1.
         11    1    3    3    0    0  0.78993118306E+01  0.54728966009E+01 -0.15362807592E+02  0.18120915594E+02  0.51100000000E-03 0. -1.
        -11    1    3    3    0    0 -0.21446237293E+02 -0.27059810897E+02 -0.70637939720E+01  0.35243036835E+02  0.51100000000E-03 0.  1.
        -12    1    3    3    0    0  0.45218900603E+01  0.32556172014E+01 -0.20526250330E+01  0.59379965145E+01  0.00000000000E+00 0.  1.
</event>
<event>
 7    1  0.1096439E-011  0.5930194E+02  0.7816164E-02  0.1266605E+00
        -11   -1    0    0    0    0  0.00000000000E+00  0.00000000000E+00  0.45593999997E+02  0.45594000000E+02  0.51100000000E-03 0.  1.
         11   -1    0    0    0    0 -0.00000000000E+00 -0.00000000000E+00 -0.45593999997E+02  0.45594000000E+02  0.51100000000E-03 0. -1.
    9900012    2    1    2    0    0 -0.24186868082E+01  0.31392982063E+02 -0.50350466813E+01  0.59301936214E+02  0.49999985749E+02 0.  0.
        -12    1    1    2    0    0  0.24186868082E+01 -0.31392982063E+02  0.50350466813E+01  0.31886063786E+02  0.00000000000E+00 0.  1.
         11    1    3    3    0    0  0.10474586186E+02  0.15775408181E+02  0.81498735657E+01  0.20615549919E+02  0.51100000000E-03 0. -1.
        -11    1    3    3    0    0 -0.12885895863E+02  0.15258760251E+02 -0.22086638859E+02  0.29777435970E+02  0.51100000000E-03 0.  1.
        -12    1    3    3    0    0 -0.73771309150E-02  0.35881363054E+00  0.89017186121E+01  0.89089503250E+01  0.00000000000E+00 0.  1.
</event>
<event>
 7    1  0.1096439E-011  0.5930196E+02  0.7816164E-02  0.1266605E+00
        -11   -1    0    0    0    0  0.00000000000E+00  0.00000000000E+00  0.45593999997E+02  0.45594000000E+02  0.51100000000E-03 0. -1.
         11   -1    0    0    0    0 -0.00000000000E+00 -0.00000000000E+00 -0.45593999997E+02  0.45594000000E+02  0.51100000000E-03 0.  1.
    9900012    2    1    2    0    0 -0.99484165670E+01 -0.19046868638E+02  0.23557707094E+02  0.59301956648E+02  0.50000023016E+02 0.  0.
        -12    1    1    2    0    0  0.99484165670E+01  0.19046868638E+02 -0.23557707094E+02  0.31886043352E+02  0.00000000000E+00 0.  1.
         11    1    3    3    0    0 -0.16090645491E+02 -0.14254131059E+02  0.16887098073E+02  0.27336115418E+02  0.51100000000E-03 0. -1.
        -11    1    3    3    0    0  0.12353786844E+02 -0.43324698645E+01  0.16046674865E+02  0.20709469307E+02  0.51100000000E-03 0.  1.
         12    1    3    3    0    0 -0.62115579191E+01 -0.46026771510E+00 -0.93760658437E+01  0.11256371922E+02  0.00000000000E+00 0. -1.
</event>
<event>
 7    1  0.1096439E-011  0.5930192E+02  0.7816164E-02  0.1266605E+00
        -11   -1    0    0    0    0  0.00000000000E+00  0.00000000000E+00  0.45593999997E+02  0.45594000000E+02  0.51100000000E-03 0. -1.
         11   -1    0    0    0    0 -0.00000000000E+00 -0.00000000000E+00 -0.45593999997E+02  0.45594000000E+02  0.51100000000E-03 0.  1.
    9900012    2    1    2    0    0 -0.12295386503E+02  0.25848022284E+02 -0.14050814019E+02  0.59301919026E+02  0.49999954403E+02 0.  0.
        -12    1    1    2    0    0  0.12295386503E+02 -0.25848022284E+02  0.14050814019E+02  0.31886080974E+02  0.00000000000E+00 0.  1.
         11    1    3    3    0    0 -0.10850101120E+02  0.56919772929E+01 -0.10881846119E+01  0.12300709159E+02  0.51100000000E-03 0. -1.
        -11    1    3    3    0    0  0.66937833756E+01  0.12328282442E+02 -0.26128323842E+02  0.29656071737E+02  0.51100000000E-03 0.  1.
        -12    1    3    3    0    0 -0.81390687588E+01  0.78277625496E+01  0.13165694435E+02  0.17345138130E+02  0.00000000000E+00 0.  1.
</event>
<event>
 7    1  0.1096439E-011  0.5930197E+02  0.7816164E-02  0.1266605E+00
        -11   -1    0    0    0    0  0.00000000000E+00  0.00000000000E+00  0.45593999997E+02  0.45594000000E+02  0.51100000000E-03 0. -1.
         11   -1    0    0    0    0 -0.00000000000E+00 -0.00000000000E+00 -0.45593999997E+02  0.45594000000E+02  0.51100000000E-03 0.  1.
    9900012    2    1    2    0    0  0.20246461291E+02 -0.19302279809E+02  0.15304312548E+02  0.59301965703E+02  0.50000039531E+02 0.  0.
        -12    1    1    2    0    0 -0.20246461291E+02  0.19302279809E+02 -0.15304312548E+02  0.31886034297E+02  0.00000000000E+00 0.  1.
         11    1    3    3    0    0  0.91199798167E+01 -0.21649126797E+02  0.93539355848E+01  0.25285466856E+02  0.51100000000E-03 0. -1.
        -11    1    3    3    0    0 -0.31759086615E+01 -0.79650272006E+01 -0.78502866260E+01  0.11625620607E+02  0.51100000000E-03 0.  1.
         12    1    3    3    0    0  0.14302390136E+02  0.10311874189E+02  0.13800663589E+02  0.22390878240E+02  0.00000000000E+00 0. -1.
</event>
<event>
 7    1  0.1096439E-011  0.5930195E+02  0.7816164E-02  0.1266605E+00
        -11   -1    0    0    0    0  0.00000000000E+00  0.00000000000E+00  0.45593999997E+02  0.45594000000E+02  0.51100000000E-03 0. -1.
         11   -1    0    0    0    0 -0.00000000000E+00 -0.00000000000E+00 -0.45593999997E+02  0.45594000000E+02  0.51100000000E-03 0.  1.
    9900012    2    1    2    0    0 -0.17562247646E+01 -0.97233953681E+01  0.30316516127E+02  0.59301954573E+02  0.50000019232E+02 0.  0.
        -12    1    1    2    0    0  0.17562247646E+01  0.97233953681E+01 -0.30316516127E+02  0.31886045427E+02  0.00000000000E+00 0.  1.
         11    1    3    3    0    0  0.63729444595E+01  0.10384372742E+02  0.28603003369E+02  0.31089892575E+02  0.51100000000E-03 0. -1.
        -11    1    3    3    0    0  0.35336577269E+01 -0.10397473180E+02 -0.44277174580E+01  0.11840560274E+02  0.51100000000E-03 0.  1.
         12    1    3    3    0    0 -0.11662826951E+02 -0.97102949299E+01  0.61412302162E+01  0.16371501724E+02  0.00000000000E+00 0. -1.
</event>
<event>
 7    1  0.1096439E-011  0.5930190E+02  0.7816164E-02  0.1266605E+00
        -11   -1    0    0    0    0  0.00000000000E+00  0.00000000000E+00  0.45593999997E+02  0.45594000000E+02  0.51100000000E-03 0. -1.
         11   -1    0    0    0    0 -0.00000000000E+00 -0.00000000000E+00 -0.45593999997E+02  0.45594000000E+02  0.51100000000E-03 0.  1.
    9900012    2    1    2    0    0  0.28583773385E+02 -0.25818075267E+01  0.13893355895E+02  0.59301903202E+02  0.49999925543E+02 0.  0.
        -12    1    1    2    0    0 -0.28583773385E+02  0.25818075267E+01 -0.13893355895E+02  0.31886096798E+02  0.00000000000E+00 0.  1.
         11    1    3    3    0    0 -0.22177641750E+00 -0.30469716371E+01  0.14142027267E+02  0.14468246487E+02  0.51100000000E-03 0. -1.
        -11    1    3    3    0    0  0.27012689327E+02 -0.61466093190E+01 -0.12813252587E+02  0.30522870654E+02  0.51100000000E-03 0.  1.
        -12    1    3    3    0    0  0.17928604748E+01  0.66117734293E+01  0.12564581215E+02  0.14310786061E+02  0.00000000000E+00 0.  1.
</event>
<event>
 7    1  0.1096439E-011  0.5930197E+02  0.7816164E-02  0.1266605E+00
        -11   -1    0    0    0    0  0.00000000000E+00  0.00000000000E+00  0.45593999997E+02  0.45594000000E+02  0.51100000000E-03 0.  1.
         11   -1    0    0    0    0 -0.00000000000E+00 -0.00000000000E+00 -0.45593999997E+02  0.45594000000E+02  0.51100000000E-03 0. -1.
    9900012    2    1    2    0    0  0.18537632345E+01  0.31351147592E+02 -0.55125581326E+01  0.59301965586E+02  0.50000039317E+02 0.  0.
        -12    1    1    2    0    0 -0.18537632345E+01 -0.31351147592E+02  0.55125581326E+01  0.31886034414E+02  0.00000000000E+00 0.  1.
         11    1    3    3    0    0  0.84880237707E+01  0.20986137462E+02 -0.99706488295E+01  0.24736174956E+02  0.51100000000E-03 0. -1.
        -11    1    3    3    0    0 -0.19482850822E+02  0.66607642801E+01  0.49801623428E+01  0.21183703033E+02  0.51100000000E-03 0.  1.
        -12    1    3    3    0    0  0.12848590286E+02  0.37042458501E+01 -0.52207164591E+00  0.13382087597E+02  0.00000000000E+00 0.  1.
</event>
<event>
 7    1  0.1096439E-011  0.5930196E+02  0.7816164E-02  0.1266605E+00
        -11   -1    0    0    0    0  0.00000000000E+00  0.00000000000E+00  0.45593999997E+02  0.45594000000E+02  0.51100000000E-03 0.  1.
         11   -1    0    0    0    0 -0.00000000000E+00 -0.00000000000E+00 -0.45593999997E+02  0.45594000000E+02  0.51100000000E-03 0. -1.
    9900012    2    1    2    0    0  0.62392412764E+00  0.16253843888E+02 -0.27425225579E+02  0.59301957277E+02  0.50000024164E+02 0.  0.
        -12    1    1    2    0    0 -0.62392412764E+00 -0.16253843888E+02  0.27425225579E+02  0.31886042723E+02  0.00000000000E+00 0.  1.
         11    1    3    3    0    0  0.17070949102E+02  0.23304633167E+02 -0.22539249549E+02  0.36640701423E+02  0.51100000000E-03 0. -1.
        -11    1    3    3    0    0 -0.62577273477E+01 -0.82753252034E+01  0.16337131050E+01  0.10502817601E+02  0.51100000000E-03 0.  1.
         12    1    3    3    0    0 -0.10189297627E+02  0.12245359244E+01 -0.65196891349E+01  0.12158438254E+02  0.00000000000E+00 0. -1.
</event>
<event>
 7    1  0.1096439E-011  0.5930195E+02  0.7816164E-02  0.1266605E+00
        -11   -1    0    0    0    0  0.00000000000E+00  0.00000000000E+00  0.45593999997E+02  0.45594000000E+02  0.51100000000E-03 0.  1.
         11   -1    0    0    0    0 -0.00000000000E+00 -0.00000000000E+00 -0.45593999997E+02  0.45594000000E+02  0.51100000000E-03 0. -1.
    9900012    2    1    2    0    0 -0.13151118676E+02  0.16104890507E+02 -0.24174385520E+02  0.59301947627E+02  0.50000006565E+02 0.  0.
        -12    1    1    2    0    0  0.13151118676E+02 -0.16104890507E+02  0.24174385520E+02  0.31886052373E+02  0.00000000000E+00 0.  1.
         11    1    3    3    0    0 -0.19166665501E+02  0.30438406498E+02 -0.12954124836E+02  0.38231753910E+02  0.51100000000E-03 0. -1.
        -11    1    3    3    0    0  0.21881296344E+01 -0.26299204195E+01 -0.74408978233E+01  0.81897102139E+01  0.51100000000E-03 0.  1.
         12    1    3    3    0    0  0.38274171900E+01 -0.11703595571E+02 -0.37793628599E+01  0.12880483503E+02  0.00000000000E+00 0. -1.
</event>
<event>
 7    1  0.1096439E-011  0.5930194E+02  0.7816164E-02  0.1266605E+00
        -11   -1    0    0    0    0  0.00000000000E+00  0.00000000000E+00  0.45593999997E+02  0.45594000000E+02  0.51100000000E-03 0.  1.
         11   -1    0    0    0    0 -0.00000000000E+00 -0.00000000000E+00 -0.45593999997E+02  0.45594000000E+02  0.51100000000E-03 0. -1.
    9900012    2    1    2    0    0  0.35670049229E+01 -0.30963367582E+02 -0.67280699134E+01  0.59301943785E+02  0.49999999558E+02 0.  0.
        -12    1    1    2    0    0 -0.35670049229E+01  0.30963367582E+02  0.67280699134E+01  0.31886056215E+02  0.00000000000E+00 0.  1.
         11    1    3    3    0    0 -0.12497521628E+02 -0.29931313781E+02 -0.14071805216E+02  0.35356573559E+02  0.51100000000E-03 0. -1.
        -11    1    3    3    0    0  0.78504832167E+01  0.21871098149E+01  0.11578815712E+02  0.14159184639E+02  0.51100000000E-03 0.  1.
        -12    1    3    3    0    0  0.82140433342E+01 -0.32191636162E+01 -0.42350804091E+01  0.97861855877E+01  0.00000000000E+00 0.  1.
</event>
<event>
 7    1  0.1096439E-011  0.5930201E+02  0.7816164E-02  0.1266605E+00
        -11   -1    0    0    0    0  0.00000000000E+00  0.00000000000E+00  0.45593999997E+02  0.45594000000E+02  0.51100000000E-03 0.  1.
         11   -1    0    0    0    0 -0.00000000000E+00 -0.00000000000E+00 -0.45593999997E+02  0.45594000000E+02  0.51100000000E-03 0. -1.
    9900012    2    1    2    0    0  0.17695288603E+02 -0.14641972375E+02 -0.22117996016E+02  0.59302010263E+02  0.50000120796E+02 0.  0.
        -12    1    1    2    0    0 -0.17695288603E+02  0.14641972375E+02  0.22117996016E+02  0.31885989737E+02  0.00000000000E+00 0.  1.
         11    1    3    3    0    0  0.69516477826E+01 -0.84777565938E+01 -0.32798273667E+02  0.34582141628E+02  0.51100000000E-03 0. -1.
        -11    1    3    3    0    0 -0.12910917374E+01  0.48271655600E+01 -0.39800926279E+00  0.50126696333E+01  0.51100000000E-03 0.  1.
         12    1    3    3    0    0  0.12034732557E+02 -0.10991381342E+02  0.11078286914E+02  0.19707199001E+02  0.00000000000E+00 0. -1.
</event>
<event>
 7    1  0.1096439E-011  0.5930196E+02  0.7816164E-02  0.1266605E+00
        -11   -1    0    0    0    0  0.00000000000E+00  0.00000000000E+00  0.45593999997E+02  0.45594000000E+02  0.51100000000E-03 0.  1.
         11   -1    0    0    0    0 -0.00000000000E+00 -0.00000000000E+00 -0.45593999997E+02  0.45594000000E+02  0.51100000000E-03 0. -1.
    9900012    2    1    2    0    0 -0.27040741973E+02  0.29637007086E+01 -0.16635336584E+02  0.59301958044E+02  0.50000025563E+02 0.  0.
        -12    1    1    2    0    0  0.27040741973E+02 -0.29637007086E+01  0.16635336584E+02  0.31886041956E+02  0.00000000000E+00 0.  1.
         11    1    3    3    0    0  0.68878192964E+01 -0.11563871110E+02  0.41238170600E+01  0.14077323507E+02  0.51100000000E-03 0. -1.
        -11    1    3    3    0    0 -0.23958134323E+02  0.40109583016E+01 -0.70941114242E+01  0.25306252269E+02  0.51100000000E-03 0.  1.
         12    1    3    3    0    0 -0.99704269463E+01  0.10516613517E+02 -0.13665042220E+02  0.19918382269E+02  0.00000000000E+00 0. -1.
</event>
<event>
 7    1  0.1096439E-011  0.5930190E+02  0.7816164E-02  0.1266605E+00
        -11   -1    0    0    0    0  0.00000000000E+00  0.00000000000E+00  0.45593999997E+02  0.45594000000E+02  0.51100000000E-03 0.  1.
         11   -1    0    0    0    0 -0.00000000000E+00 -0.00000000000E+00 -0.45593999997E+02  0.45594000000E+02  0.51100000000E-03 0. -1.
    9900012    2    1    2    0    0  0.10032892859E+02 -0.22441946095E+02 -0.20308217198E+02  0.59301896923E+02  0.49999914093E+02 0.  0.
        -12    1    1    2    0    0 -0.10032892859E+02  0.22441946095E+02  0.20308217198E+02  0.31886103077E+02  0.00000000000E+00 0.  1.
         11    1    3    3    0    0 -0.14342582794E+02 -0.83033455593E+01 -0.17309568028E+02  0.23964064227E+02  0.51100000000E-03 0. -1.
        -11    1    3    3    0    0  0.18644432515E+02 -0.86767301786E+01  0.77602478365E+01  0.21980035422E+02  0.51100000000E-03 0.  1.
         12    1    3    3    0    0  0.57310431369E+01 -0.54618703575E+01 -0.10758897006E+02  0.13357797275E+02  0.00000000000E+00 0. -1.
</event>
<event>
 7    1  0.1096439E-011  0.5930195E+02  0.7816164E-02  0.1266605E+00
        -11   -1    0    0    0    0  0.00000000000E+00  0.00000000000E+00  0.45593999997E+02  0.45594000000E+02  0.51100000000E-03 0.  1.
         11   -1    0    0    0    0 -0.00000000000E+00 -0.00000000000E+00 -0.45593999997E+02  0.45594000000E+02  0.51100000000E-03 0. -1.
    9900012    2    1    2    0    0 -0.25683235368E+02 -0.94285506248E+00 -0.18873328115E+02  0.59301951816E+02  0.50000014205E+02 0.  0.
        -12    1    1    2    0    0  0.25683235368E+02  0.94285506248E+00  0.18873328115E+02  0.31886048184E+02  0.00000000000E+00 0.  1.
         11    1    3    3    0    0 -0.30116549942E+02 -0.53589330586E+01 -0.28117394703E+02  0.41548918507E+02  0.51100000000E-03 0. -1.
        -11    1    3    3    0    0  0.85441813675E+01  0.19388428515E+01  0.18766165582E+01  0.89601248212E+01  0.51100000000E-03 0.  1.
        -12    1    3    3    0    0 -0.41108667932E+01  0.24772351446E+01  0.73674500293E+01  0.87929084885E+01  0.00000000000E+00 0.  1.
</event>
<event>
 7    1  0.1096439E-011  0.5930195E+02  0.7816164E-02  0.1266605E+00
        -11   -1    0    0    0    0  0.00000000000E+00  0.00000000000E+00  0.45593999997E+02  0.45594000000E+02  0.51100000000E-03 0. -1.
         11   -1    0    0    0    0 -0.00000000000E+00 -0.00000000000E+00 -0.45593999997E+02  0.45594000000E+02  0.51100000000E-03 0.  1.
    9900012    2    1    2    0    0  0.15225821925E+02  0.14523232934E+02  0.23957677064E+02  0.59301949156E+02  0.50000009352E+02 0.  0.
        -12    1    1    2    0    0 -0.15225821925E+02 -0.14523232934E+02 -0.23957677064E+02  0.31886050844E+02  0.00000000000E+00 0.  1.
         11    1    3    3    0    0  0.56281018447E+01  0.16387714983E+02  0.76498465794E+01  0.18940773101E+02  0.51100000000E-03 0. -1.
        -11    1    3    3    0    0  0.25776693001E+01 -0.16067790895E+02  0.18189376495E+02  0.24406386475E+02  0.51100000000E-03 0.  1.
         12    1    3    3    0    0  0.70200507799E+01  0.14203308846E+02 -0.18815460099E+01  0.15954789579E+02  0.00000000000E+00 0. -1.
</event>
<event>
 7    1  0.1096439E-011  0.5930189E+02  0.7816164E-02  0.1266605E+00
        -11   -1    0    0    0    0  0.00000000000E+00  0.00000000000E+00  0.45593999997E+02  0.45594000000E+02  0.51100000000E-03 0.  1.
         11   -1    0    0    0    0 -0.00000000000E+00 -0.00000000000E+00 -0.45593999997E+02  0.45594000000E+02  0.51100000000E-03 0. -1.
    9900012    2    1    2    0    0  0.13253527181E+02  0.24757200842E+02 -0.15104601658E+02  0.59301890681E+02  0.49999902708E+02 0.  0.
        -12    1    1    2    0    0 -0.13253527181E+02 -0.24757200842E+02  0.15104601658E+02  0.31886109319E+02  0.00000000000E+00 0.  1.
         11    1    3    3    0    0  0.14491668943E+02  0.20700158996E+02 -0.17055902145E+01  0.25326154257E+02  0.51100000000E-03 0. -1.
        -11    1    3    3    0    0 -0.17542314217E+01 -0.99259540403E+01  0.46809415641E+01  0.11113645022E+02  0.51100000000E-03 0.  1.
         12    1    3    3    0    0  0.51608965975E+00  0.13982995887E+02 -0.18079953008E+02  0.22862091402E+02  0.00000000000E+00 0. -1.
</event>
<event>
 7    1  0.1096439E-011  0.5930196E+02  0.7816164E-02  0.1266605E+00
        -11   -1    0    0    0    0  0.00000000000E+00  0.00000000000E+00  0.45593999997E+02  0.45594000000E+02  0.51100000000E-03 0.  1.
         11   -1    0    0    0    0 -0.00000000000E+00 -0.00000000000E+00 -0.45593999997E+02  0.45594000000E+02  0.51100000000E-03 0. -1.
    9900012    2    1    2    0    0 -0.22801470233E+02 -0.20967348030E+02 -0.75619160294E+01  0.59301963836E+02  0.50000036125E+02 0.  0.
        -12    1    1    2    0    0  0.22801470233E+02  0.20967348030E+02  0.75619160294E+01  0.31886036164E+02  0.00000000000E+00 0.  1.
         11    1    3    3    0    0  0.44412122665E+01 -0.21016624950E+02 -0.14248972471E+02  0.25777046134E+02  0.51100000000E-03 0. -1.
        -11    1    3    3    0    0 -0.21864471540E+02 -0.63921391296E+01 -0.24315441511E-01  0.22779709170E+02  0.51100000000E-03 0.  1.
         12    1    3    3    0    0 -0.53782109594E+01  0.64414160488E+01  0.67113718826E+01  0.10745208531E+02  0.00000000000E+00 0. -1.
</event>
<event>
 7    1  0.1096439E-011  0.5930196E+02  0.7816164E-02  0.1266605E+00
        -11   -1    0    0    0    0  0.00000000000E+00  0.00000000000E+00  0.45593999997E+02  0.45594000000E+02  0.51100000000E-03 0.  1.
         11   -1    0    0    0    0 -0.00000000000E+00 -0.00000000000E+00 -0.45593999997E+02  0.45594000000E+02  0.51100000000E-03 0. -1.
    9900012    2    1    2    0    0 -0.30414697011E+02  0.38670714084E+01  0.87585178688E+01  0.59301958057E+02  0.50000025586E+02 0.  0.
        -12    1    1    2    0    0  0.30414697011E+02 -0.38670714084E+01 -0.87585178688E+01  0.31886041943E+02  0.00000000000E+00 0.  1.
         11    1    3    3    0    0 -0.16445686419E+02 -0.20109090906E+02  0.11424187788E+01  0.26002716393E+02  0.51100000000E-03 0. -1.
        -11    1    3    3    0    0  0.21412712482E+01  0.78039238690E+01  0.66117060639E+01  0.10449924768E+02  0.51100000000E-03 0.  1.
         12    1    3    3    0    0 -0.16110281840E+02  0.16172238445E+02  0.10043930261E+01  0.22849316897E+02  0.00000000000E+00 0. -1.
</event>
<event>
 7    1  0.1096439E-011  0.5930195E+02  0.7816164E-02  0.1266605E+00
        -11   -1    0    0    0    0  0.00000000000E+00  0.00000000000E+00  0.45593999997E+02  0.45594000000E+02  0.51100000000E-03 0. -1.
         11   -1    0    0    0    0 -0.00000000000E+00 -0.00000000000E+00 -0.45593999997E+02  0.45594000000E+02  0.51100000000E-03 0.  1.
    9900012    2    1    2    0    0 -0.14830285285E+01 -0.68949895042E+01  0.31096299377E+02  0.59301951502E+02  0.50000013631E+02 0.  0.
        -12    1    1    2    0    0  0.14830285285E+01  0.68949895042E+01 -0.31096299377E+02  0.31886048498E+02  0.00000000000E+00 0.  1.
         11    1    3    3    0    0 -0.58349822177E+01  0.18516290653E+01 -0.80680792021E+01  0.10127657673E+02  0.51100000000E-03 0. -1.
        -11    1    3    3    0    0  0.12100600400E+02 -0.18590372488E+01  0.36459384756E+02  0.38459943923E+02  0.51100000000E-03 0.  1.
         12    1    3    3    0    0 -0.77486467111E+01 -0.68875813208E+01  0.27049938238E+01  0.10714349905E+02  0.00000000000E+00 0. -1.
</event>
<event>
 7    1  0.1096439E-011  0.5930194E+02  0.7816164E-02  0.1266605E+00
        -11   -1    0    0    0    0  0.00000000000E+00  0.00000000000E+00  0.45593999997E+02  0.45594000000E+02  0.51100000000E-03 0.  1.
         11   -1    0    0    0    0 -0.00000000000E+00 -0.00000000000E+00 -0.45593999997E+02  0.45594000000E+02  0.51100000000E-03 0. -1.
    9900012    2    1    2    0    0 -0.10126811394E+02  0.13776703381E+02 -0.26914142599E+02  0.59301938203E+02  0.49999989377E+02 0.  0.
        -12    1    1    2    0    0  0.10126811394E+02 -0.13776703381E+02  0.26914142599E+02  0.31886061797E+02  0.00000000000E+00 0.  1.
         11    1    3    3    0    0  0.44456650655E+01 -0.45204402177E+00 -0.24565023174E+02  0.24968152624E+02  0.51100000000E-03 0. -1.
        -11    1    3    3    0    0  0.23253375793E+01 -0.17809716188E+01  0.82515914823E+01  0.87560160471E+01  0.51100000000E-03 0.  1.
        -12    1    3    3    0    0 -0.16897814039E+02  0.16009719022E+02 -0.10600710908E+02  0.25577769531E+02  0.00000000000E+00 0.  1.
</event>
<event>
 7    1  0.1096439E-011  0.5930195E+02  0.7816164E-02  0.1266605E+00
        -11   -1    0    0    0    0  0.00000000000E+00  0.00000000000E+00  0.45593999997E+02  0.45594000000E+02  0.51100000000E-03 0. -1.
         11   -1    0    0    0    0 -0.00000000000E+00 -0.00000000000E+00 -0.45593999997E+02  0.45594000000E+02  0.51100000000E-03 0.  1.
    9900012    2    1    2    0    0  0.24144443517E+02 -0.20274826386E+02  0.47641893057E+01  0.59301949171E+02  0.50000009380E+02 0.  0.
        -12    1    1    2    0    0 -0.24144443517E+02  0.20274826386E+02 -0.47641893057E+01  0.31886050829E+02  0.00000000000E+00 0.  1.
         11    1    3    3    0    0  0.36310490502E+02 -0.16826628628E+02  0.37611885439E+01  0.40196190006E+02  0.51100000000E-03 0. -1.
        -11    1    3    3    0    0 -0.52419113646E+00  0.46269921033E+01  0.16028772579E+01  0.49247383724E+01  0.51100000000E-03 0.  1.
         12    1    3    3    0    0 -0.11641855849E+02 -0.80751898614E+01 -0.59987649612E+00  0.14181020792E+02  0.00000000000E+00 0. -1.
</event>
<event>
 7    1  0.1425272E-011  0.5930197E+02  0.7816164E-02  0.1266605E+00
        -11   -1    0    0    0    0  0.00000000000E+00  0.00000000000E+00  0.45593999997E+02  0.45594000000E+02  0.51100000000E-03 0. -1.
         11   -1    0    0    0    0 -0.00000000000E+00 -0.00000000000E+00 -0.45593999997E+02  0.45594000000E+02  0.51100000000E-03 0.  1.
    9900012    2    1    2    0    0  0.79573471535E+01 -0.28226570882E+02  0.12516393303E+02  0.59301972044E+02  0.50000051096E+02 0.  0.
        -12    1    1    2    0    0 -0.79573471535E+01  0.28226570882E+02 -0.12516393303E+02  0.31886027956E+02  0.00000000000E+00 0.  1.
         11    1    3    3    0    0  0.14188219446E+01 -0.24149937237E+02  0.16618309156E+02  0.29349629022E+02  0.51100000000E-03 0. -1.
        -11    1    3    3    0    0  0.78818202883E+01  0.11551029113E+02 -0.20532130337E+01  0.14133826398E+02  0.51100000000E-03 0.  1.
        -12    1    3    3    0    0 -0.13432950794E+01 -0.15627662758E+02 -0.20487028194E+01  0.15818516624E+02  0.00000000000E+00 0.  1.
</event>
<event>
 7    1  0.1096439E-011  0.5930193E+02  0.7816164E-02  0.1266605E+00
        -11   -1    0    0    0    0  0.00000000000E+00  0.00000000000E+00  0.45593999997E+02  0.45594000000E+02  0.51100000000E-03 0. -1.
         11   -1    0    0    0    0 -0.00000000000E+00 -0.00000000000E+00 -0.45593999997E+02  0.45594000000E+02  0.51100000000E-03 0.  1.
    9900012    2    1    2    0    0 -0.30212908489E+02  0.93981496585E+01  0.39466642299E+01  0.59301933844E+02  0.49999981427E+02 0.  0.
        -12    1    1    2    0    0  0.30212908489E+02 -0.93981496585E+01 -0.39466642299E+01  0.31886066156E+02  0.00000000000E+00 0.  1.
         11    1    3    3    0    0 -0.12689982562E+02  0.47438498078E+00  0.37802608212E+00  0.12704471752E+02  0.51100000000E-03 0. -1.
        -11    1    3    3    0    0 -0.23622580372E+01 -0.56443953713E+01 -0.16459172890E+02  0.17559721941E+02  0.51100000000E-03 0.  1.
        -12    1    3    3    0    0 -0.15160667890E+02  0.14568160049E+02  0.20027811038E+02  0.29037740151E+02  0.00000000000E+00 0.  1.
</event>
<event>
 7    1  0.1096439E-011  0.5930193E+02  0.7816164E-02  0.1266605E+00
        -11   -1    0    0    0    0  0.00000000000E+00  0.00000000000E+00  0.45593999997E+02  0.45594000000E+02  0.51100000000E-03 0. -1.
         11   -1    0    0    0    0 -0.00000000000E+00 -0.00000000000E+00 -0.45593999997E+02  0.45594000000E+02  0.51100000000E-03 0.  1.
    9900012    2    1    2    0    0 -0.29720795210E+02  0.70441082340E+00  0.11528198336E+02  0.59301933774E+02  0.49999981299E+02 0.  0.
        -12    1    1    2    0    0  0.29720795210E+02 -0.70441082340E+00 -0.11528198336E+02  0.31886066226E+02  0.00000000000E+00 0.  1.
         11    1    3    3    0    0 -0.85167605905E+01 -0.18652624669E+00  0.14366055857E+01  0.86390878492E+01  0.51100000000E-03 0. -1.
        -11    1    3    3    0    0  0.11173074719E+02  0.11425806718E+01  0.14112289522E+02  0.18036069557E+02  0.51100000000E-03 0.  1.
        -12    1    3    3    0    0 -0.32377109338E+02 -0.25164360170E+00 -0.40206967714E+01  0.32626776367E+02  0.00000000000E+00 0.  1.
</event>
<event>
 7    1  0.1096439E-011  0.5930196E+02  0.7816164E-02  0.1266605E+00
        -11   -1    0    0    0    0  0.00000000000E+00  0.00000000000E+00  0.45593999997E+02  0.45594000000E+02  0.51100000000E-03 0.  1.
         11   -1    0    0    0    0 -0.00000000000E+00 -0.00000000000E+00 -0.45593999997E+02  0.45594000000E+02  0.51100000000E-03 0. -1.
    9900012    2    1    2    0    0  0.23712617990E+02  0.20029037100E+02 -0.72985714629E+01  0.59301957215E+02  0.50000024050E+02 0.  0.
        -12    1    1    2    0    0 -0.23712617990E+02 -0.20029037100E+02  0.72985714629E+01  0.31886042785E+02  0.00000000000E+00 0.  1.
         11    1    3    3    0    0 -0.40838786148E+01  0.22523501844E+02 -0.10648142759E+02  0.25246170885E+02  0.51100000000E-03 0. -1.
        -11    1    3    3    0    0  0.14598716224E+02  0.61818866166E+01  0.77688773301E+01  0.17654848987E+02  0.51100000000E-03 0.  1.
         12    1    3    3    0    0  0.13197780381E+02 -0.86763513605E+01 -0.44193060344E+01  0.16400937343E+02  0.00000000000E+00 0. -1.
</event>
<event>
 7    1  0.1096439E-011  0.5930197E+02  0.7816164E-02  0.1266605E+00
        -11   -1    0    0    0    0  0.00000000000E+00  0.00000000000E+00  0.45593999997E+02  0.45594000000E+02  0.51100000000E-03 0.  1.
         11   -1    0    0    0    0 -0.00000000000E+00 -0.00000000000E+00 -0.45593999997E+02  0.45594000000E+02  0.51100000000E-03 0. -1.
    9900012    2    1    2    0    0  0.52260645401E+01  0.12879701169E+01 -0.31428462401E+02  0.59301970669E+02  0.50000048587E+02 0.  0.
        -12    1    1    2    0    0 -0.52260645401E+01 -0.12879701169E+01  0.31428462401E+02  0.31886029331E+02  0.00000000000E+00 0.  1.
         11    1    3    3    0    0 -0.14151514586E+02  0.74744813989E+01 -0.18747535044E+02  0.24649610702E+02  0.51100000000E-03 0. -1.
        -11    1    3    3    0    0  0.88088533339E+01 -0.14166907564E+02 -0.54759988038E+00  0.16691226224E+02  0.51100000000E-03 0.  1.
         12    1    3    3    0    0  0.10568725792E+02  0.79803962817E+01 -0.12133327477E+02  0.17961133743E+02  0.00000000000E+00 0. -1.
</event>
<event>
 7    1  0.1096439E-011  0.5930193E+02  0.7816164E-02  0.1266605E+00
        -11   -1    0    0    0    0  0.00000000000E+00  0.00000000000E+00  0.45593999997E+02  0.45594000000E+02  0.51100000000E-03 0. -1.
         11   -1    0    0    0    0 -0.00000000000E+00 -0.00000000000E+00 -0.45593999997E+02  0.45594000000E+02  0.51100000000E-03 0.  1.
    9900012    2    1    2    0    0 -0.35163138587E+01  0.31187092173E+02 -0.56322741893E+01  0.59301926332E+02  0.49999967728E+02 0.  0.
        -12    1    1    2    0    0  0.35163138587E+01 -0.31187092173E+02  0.56322741893E+01  0.31886073668E+02  0.00000000000E+00 0.  1.
         11    1    3    3    0    0 -0.22330829489E+02  0.50212177669E+01 -0.11380680865E+02  0.25561660172E+02  0.51100000000E-03 0. -1.
        -11    1    3    3    0    0  0.23220347964E+01  0.91512070630E+00 -0.12320295104E+01  0.27833771714E+01  0.51100000000E-03 0.  1.
         12    1    3    3    0    0  0.16492480834E+02  0.25250753700E+02  0.69804361865E+01  0.30956888989E+02  0.00000000000E+00 0. -1.
</event>
<event>
 7    1  0.1096439E-011  0.5930192E+02  0.7816164E-02  0.1266605E+00
        -11   -1    0    0    0    0  0.00000000000E+00  0.00000000000E+00  0.45593999997E+02  0.45594000000E+02  0.51100000000E-03 0. -1.
         11   -1    0    0    0    0 -0.00000000000E+00 -0.00000000000E+00 -0.45593999997E+02  0.45594000000E+02  0.51100000000E-03 0.  1.
    9900012    2    1    2    0    0 -0.31000090448E+02 -0.70574876935E+01 -0.24306756136E+01  0.59301922721E+02  0.49999961141E+02 0.  0.
        -12    1    1    2    0    0  0.31000090448E+02  0.70574876935E+01  0.24306756136E+01  0.31886077279E+02  0.00000000000E+00 0.  1.
         11    1    3    3    0    0  0.23372304997E+01  0.60760617158E+01  0.12303245052E+02  0.13919447239E+02  0.51100000000E-03 0. -1.
        -11    1    3    3    0    0 -0.29345786107E+02 -0.22959290212E+00 -0.11287038410E+02  0.31442409442E+02  0.51100000000E-03 0.  1.
        -12    1    3    3    0    0 -0.39915348401E+01 -0.12903956507E+02 -0.34468822554E+01  0.13940066040E+02  0.00000000000E+00 0.  1.
</event>
<event>
 7    1  0.1096439E-011  0.5930196E+02  0.7816164E-02  0.1266605E+00
        -11   -1    0    0    0    0  0.00000000000E+00  0.00000000000E+00  0.45593999997E+02  0.45594000000E+02  0.51100000000E-03 0.  1.
         11   -1    0    0    0    0 -0.00000000000E+00 -0.00000000000E+00 -0.45593999997E+02  0.45594000000E+02  0.51100000000E-03 0. -1.
    9900012    2    1    2    0    0 -0.46043091203E+01 -0.25415053921E+02  0.18697455630E+02  0.59301961122E+02  0.50000031176E+02 0.  0.
        -12    1    1    2    0    0  0.46043091203E+01  0.25415053921E+02 -0.18697455630E+02  0.31886038878E+02  0.00000000000E+00 0.  1.
         11    1    3    3    0    0 -0.19238309490E+02 -0.43059335711E+01  0.16731734898E+02  0.25857389058E+02  0.51100000000E-03 0. -1.
        -11    1    3    3    0    0  0.51141773663E+01 -0.85089541486E+01  0.11346428041E+02  0.15076423329E+02  0.51100000000E-03 0.  1.
         12    1    3    3    0    0  0.95198230036E+01 -0.12600166201E+02 -0.93807073089E+01  0.18368148735E+02  0.00000000000E+00 0. -1.
</event>
<event>
 7    1  0.1096439E-011  0.5930196E+02  0.7816164E-02  0.1266605E+00
        -11   -1    0    0    0    0  0.00000000000E+00  0.00000000000E+00  0.45593999997E+02  0.45594000000E+02  0.51100000000E-03 0. -1.
         11   -1    0    0    0    0 -0.00000000000E+00 -0.00000000000E+00 -0.45593999997E+02  0.45594000000E+02  0.51100000000E-03 0.  1.
    9900012    2    1    2    0    0  0.23398954166E+02  0.99809976290E+01  0.19224673320E+02  0.59301961771E+02  0.50000032359E+02 0.  0.
        -12    1    1    2    0    0 -0.23398954166E+02 -0.99809976290E+01 -0.19224673320E+02  0.31886038229E+02  0.00000000000E+00 0.  1.
         11    1    3    3    0    0  0.24765428708E+02  0.58630441406E+01  0.17934802750E+02  0.31134528994E+02  0.51100000000E-03 0. -1.
        -11    1    3    3    0    0 -0.70007129992E+01  0.14576065513E+02 -0.36036192330E+00  0.16174100572E+02  0.51100000000E-03 0.  1.
        -12    1    3    3    0    0  0.56342384563E+01 -0.10458112024E+02  0.16502324933E+01  0.11993332205E+02  0.00000000000E+00 0.  1.
</event>
<event>
 7    1  0.1096439E-011  0.5930192E+02  0.7816164E-02  0.1266605E+00
        -11   -1    0    0    0    0  0.00000000000E+00  0.00000000000E+00  0.45593999997E+02  0.45594000000E+02  0.51100000000E-03 0.  1.
         11   -1    0    0    0    0 -0.00000000000E+00 -0.00000000000E+00 -0.45593999997E+02  0.45594000000E+02  0.51100000000E-03 0. -1.
    9900012    2    1    2    0    0 -0.16426090041E+02 -0.27051775628E+02  0.38868131281E+01  0.59301916594E+02  0.49999949968E+02 0.  0.
        -12    1    1    2    0    0  0.16426090041E+02  0.27051775628E+02 -0.38868131281E+01  0.31886083406E+02  0.00000000000E+00 0.  1.
         11    1    3    3    0    0 -0.18813090716E+02 -0.20092979157E+01  0.13779323202E+02  0.23405969507E+02  0.51100000000E-03 0. -1.
        -11    1    3    3    0    0  0.51169671397E+01 -0.25292113420E+02 -0.15181202930E+02  0.29938992579E+02  0.51100000000E-03 0.  1.
        -12    1    3    3    0    0 -0.27299664655E+01  0.24963570816E+00  0.52886928564E+01  0.59569545087E+01  0.00000000000E+00 0.  1.
</event>
<event>
 7    1  0.1096439E-011  0.5930197E+02  0.7816164E-02  0.1266605E+00
        -11   -1    0    0    0    0  0.00000000000E+00  0.00000000000E+00  0.45593999997E+02  0.45594000000E+02  0.51100000000E-03 0.  1.
         11   -1    0    0    0    0 -0.00000000000E+00 -0.00000000000E+00 -0.45593999997E+02  0.45594000000E+02  0.51100000000E-03 0. -1.
    9900012    2    1    2    0    0 -0.26649929334E+02  0.45158453014E+00 -0.17501329153E+02  0.59301965686E+02  0.50000039500E+02 0.  0.
        -12    1    1    2    0    0  0.26649929334E+02 -0.45158453014E+00  0.17501329153E+02  0.31886034314E+02  0.00000000000E+00 0.  1.
         11    1    3    3    0    0 -0.26049169539E+01  0.53989395103E+01 -0.16797034769E+02  0.17834643743E+02  0.51100000000E-03 0. -1.
        -11    1    3    3    0    0 -0.41993477046E+00  0.18333783265E+01  0.13128985402E+02  0.13263026775E+02  0.51100000000E-03 0.  1.
        -12    1    3    3    0    0 -0.23625077610E+02 -0.67807333067E+01 -0.13833279787E+02  0.28204295168E+02  0.00000000000E+00 0.  1.
</event>
<event>
 7    1  0.1096439E-011  0.5930193E+02  0.7816164E-02  0.1266605E+00
        -11   -1    0    0    0    0  0.00000000000E+00  0.00000000000E+00  0.45593999997E+02  0.45594000000E+02  0.51100000000E-03 0.  1.
         11   -1    0    0    0    0 -0.00000000000E+00 -0.00000000000E+00 -0.45593999997E+02  0.45594000000E+02  0.51100000000E-03 0. -1.
    9900012    2    1    2    0    0  0.15601120973E+02 -0.12713573443E+02 -0.24732401629E+02  0.59301927560E+02  0.49999969967E+02 0.  0.
        -12    1    1    2    0    0 -0.15601120973E+02  0.12713573443E+02  0.24732401629E+02  0.31886072440E+02  0.00000000000E+00 0.  1.
         11    1    3    3    0    0  0.18054170758E+02 -0.80302941034E+01 -0.14740924424E+01  0.19814430447E+02  0.51100000000E-03 0. -1.
        -11    1    3    3    0    0 -0.97030274429E+01  0.31960777204E+01  0.33939445532E+01  0.10764874093E+02  0.51100000000E-03 0.  1.
        -12    1    3    3    0    0  0.72499776582E+01 -0.78793570601E+01 -0.26652253740E+02  0.28722623020E+02  0.00000000000E+00 0.  1.
</event>
<event>
 7    1  0.1096439E-011  0.5930195E+02  0.7816164E-02  0.1266605E+00
        -11   -1    0    0    0    0  0.00000000000E+00  0.00000000000E+00  0.45593999997E+02  0.45594000000E+02  0.51100000000E-03 0. -1.
         11   -1    0    0    0    0 -0.00000000000E+00 -0.00000000000E+00 -0.45593999997E+02  0.45594000000E+02  0.51100000000E-03 0.  1.
    9900012    2    1    2    0    0  0.23717106923E+02  0.13817259934E+02  0.16226600083E+02  0.59301946887E+02  0.50000005215E+02 0.  0.
        -12    1    1    2    0    0 -0.23717106923E+02 -0.13817259934E+02 -0.16226600083E+02  0.31886053113E+02  0.00000000000E+00 0.  1.
         11    1    3    3    0    0  0.11987482946E+02  0.12562496746E+01  0.20770577609E+02  0.24014470744E+02  0.51100000000E-03 0. -1.
        -11    1    3    3    0    0 -0.47097453143E-01  0.19768405739E+00 -0.15173297438E+02  0.15174658235E+02  0.51100000000E-03 0.  1.
        -12    1    3    3    0    0  0.11776721430E+02  0.12363326202E+02  0.10629319912E+02  0.20112817908E+02  0.00000000000E+00 0.  1.
</event>
<event>
 7    1  0.1096439E-011  0.5930194E+02  0.7816164E-02  0.1266605E+00
        -11   -1    0    0    0    0  0.00000000000E+00  0.00000000000E+00  0.45593999997E+02  0.45594000000E+02  0.51100000000E-03 0.  1.
         11   -1    0    0    0    0 -0.00000000000E+00 -0.00000000000E+00 -0.45593999997E+02  0.45594000000E+02  0.51100000000E-03 0. -1.
    9900012    2    1    2    0    0  0.14065020780E+02  0.19782695645E+02 -0.20677058345E+02  0.59301943512E+02  0.49999999059E+02 0.  0.
        -12    1    1    2    0    0 -0.14065020780E+02 -0.19782695645E+02  0.20677058345E+02  0.31886056488E+02  0.00000000000E+00 0.  1.
         11    1    3    3    0    0  0.36323089487E+01  0.18316903021E+02 -0.91230663355E+01  0.20782996516E+02  0.51100000000E-03 0. -1.
        -11    1    3    3    0    0 -0.71153317856E+01 -0.11214478152E+02  0.12931934863E+01  0.13344092936E+02  0.51100000000E-03 0.  1.
        -12    1    3    3    0    0  0.17548043617E+02  0.12680270776E+02 -0.12847185496E+02  0.25174854060E+02  0.00000000000E+00 0.  1.
</event>
<event>
 7    1  0.1096439E-011  0.5930191E+02  0.7816164E-02  0.1266605E+00
        -11   -1    0    0    0    0  0.00000000000E+00  0.00000000000E+00  0.45593999997E+02  0.45594000000E+02  0.51100000000E-03 0.  1.
         11   -1    0    0    0    0 -0.00000000000E+00 -0.00000000000E+00 -0.45593999997E+02  0.45594000000E+02  0.51100000000E-03 0. -1.
    9900012    2    1    2    0    0 -0.21312615340E+02 -0.23244570125E+02 -0.47101089243E+01  0.59301909944E+02  0.49999937840E+02 0.  0.
        -12    1    1    2    0    0  0.21312615340E+02  0.23244570125E+02  0.47101089243E+01  0.31886090056E+02  0.00000000000E+00 0.  1.
         11    1    3    3    0    0 -0.16536038139E+02 -0.80751228316E+01 -0.38009630716E+01  0.18790835176E+02  0.51100000000E-03 0. -1.
        -11    1    3    3    0    0  0.15084905961E+02 -0.69629581264E+01 -0.72172771902E+01  0.18114255823E+02  0.51100000000E-03 0.  1.
        -12    1    3    3    0    0 -0.19861483163E+02 -0.82064891674E+01  0.63081313375E+01  0.22396818945E+02  0.00000000000E+00 0.  1.
</event>
<event>
 7    1  0.1096439E-011  0.5930194E+02  0.7816164E-02  0.1266605E+00
        -11   -1    0    0    0    0  0.00000000000E+00  0.00000000000E+00  0.45593999997E+02  0.45594000000E+02  0.51100000000E-03 0.  1.
         11   -1    0    0    0    0 -0.00000000000E+00 -0.00000000000E+00 -0.45593999997E+02  0.45594000000E+02  0.51100000000E-03 0. -1.
    9900012    2    1    2    0    0 -0.28579546903E+02 -0.39432998957E+01 -0.13578679379E+02  0.59301942719E+02  0.49999997614E+02 0.  0.
        -12    1    1    2    0    0  0.28579546903E+02  0.39432998957E+01  0.13578679379E+02  0.31886057281E+02  0.00000000000E+00 0.  1.
         11    1    3    3    0    0 -0.15091025472E+02  0.45826124350E+01 -0.30949229396E+02  0.34736064645E+02  0.51100000000E-03 0. -1.
        -11    1    3    3    0    0 -0.73166806680E+01 -0.32533763988E+01  0.13202448247E+02  0.15440949257E+02  0.51100000000E-03 0.  1.
         12    1    3    3    0    0 -0.61718407625E+01 -0.52725359319E+01  0.41681017707E+01  0.91249288174E+01  0.00000000000E+00 0. -1.
</event>
<event>
 7    1  0.1096439E-011  0.5930191E+02  0.7816164E-02  0.1266605E+00
        -11   -1    0    0    0    0  0.00000000000E+00  0.00000000000E+00  0.45593999997E+02  0.45594000000E+02  0.51100000000E-03 0.  1.
         11   -1    0    0    0    0 -0.00000000000E+00 -0.00000000000E+00 -0.45593999997E+02  0.45594000000E+02  0.51100000000E-03 0. -1.
    9900012    2    1    2    0    0  0.30014912092E+02 -0.39217670090E+01 -0.10022355843E+02  0.59301908659E+02  0.49999935495E+02 0.  0.
        -12    1    1    2    0    0 -0.30014912092E+02  0.39217670090E+01  0.10022355843E+02  0.31886091341E+02  0.00000000000E+00 0.  1.
         11    1    3    3    0    0  0.30110707307E+02  0.90227316235E+01 -0.12053513091E+02  0.33665287145E+02  0.51100000000E-03 0. -1.
        -11    1    3    3    0    0  0.70480862634E+01 -0.13717068024E+02  0.69635182078E+01  0.16921112884E+02  0.51100000000E-03 0.  1.
        -12    1    3    3    0    0 -0.71438814778E+01  0.77256939109E+00 -0.49323609598E+01  0.87155086295E+01  0.00000000000E+00 0.  1.
</event>
<event>
 7    1  0.1096439E-011  0.5930190E+02  0.7816164E-02  0.1266605E+00
        -11   -1    0    0    0    0  0.00000000000E+00  0.00000000000E+00  0.45593999997E+02  0.45594000000E+02  0.51100000000E-03 0.  1.
         11   -1    0    0    0    0 -0.00000000000E+00 -0.00000000000E+00 -0.45593999997E+02  0.45594000000E+02  0.51100000000E-03 0. -1.
    9900012    2    1    2    0    0  0.31242423546E+02 -0.49431545464E+00 -0.63553271101E+01  0.59301897079E+02  0.49999914378E+02 0.  0.
        -12    1    1    2    0    0 -0.31242423546E+02  0.49431545464E+00  0.63553271101E+01  0.31886102921E+02  0.00000000000E+00 0.  1.
         11    1    3    3    0    0 -0.25227008186E+00 -0.29529322821E+01 -0.49245248493E+01  0.57475555247E+01  0.51100000000E-03 0. -1.
        -11    1    3    3    0    0  0.18940993761E+01  0.18484218466E+02  0.50959072012E+01  0.19267127840E+02  0.51100000000E-03 0.  1.
        -12    1    3    3    0    0  0.29600594252E+02 -0.16025601638E+02 -0.65267094620E+01  0.34287213715E+02  0.00000000000E+00 0.  1.
</event>
<event>
 7    1  0.1096439E-011  0.5930196E+02  0.7816164E-02  0.1266605E+00
        -11   -1    0    0    0    0  0.00000000000E+00  0.00000000000E+00  0.45593999997E+02  0.45594000000E+02  0.51100000000E-03 0.  1.
         11   -1    0    0    0    0 -0.00000000000E+00 -0.00000000000E+00 -0.45593999997E+02  0.45594000000E+02  0.51100000000E-03 0. -1.
    9900012    2    1    2    0    0 -0.14907239565E+02 -0.18416293191E+02 -0.21338547355E+02  0.59301964662E+02  0.50000037632E+02 0.  0.
        -12    1    1    2    0    0  0.14907239565E+02  0.18416293191E+02  0.21338547355E+02  0.31886035338E+02  0.00000000000E+00 0.  1.
         11    1    3    3    0    0 -0.21982849108E+02 -0.20264693646E+02 -0.27752463795E+02  0.40793415038E+02  0.51100000000E-03 0. -1.
        -11    1    3    3    0    0  0.40303219613E+01  0.47534749503E+01 -0.39117856836E+01  0.73580627009E+01  0.51100000000E-03 0.  1.
         12    1    3    3    0    0  0.30452875816E+01 -0.29050744959E+01  0.10325702124E+02  0.11150486923E+02  0.00000000000E+00 0. -1.
</event>
<event>
 7    1  0.1096439E-011  0.5930196E+02  0.7816164E-02  0.1266605E+00
        -11   -1    0    0    0    0  0.00000000000E+00  0.00000000000E+00  0.45593999997E+02  0.45594000000E+02  0.51100000000E-03 0.  1.
         11   -1    0    0    0    0 -0.00000000000E+00 -0.00000000000E+00 -0.45593999997E+02  0.45594000000E+02  0.51100000000E-03 0. -1.
    9900012    2    1    2    0    0  0.28955385085E+02  0.61754282123E-01 -0.13352961554E+02  0.59301957266E+02  0.50000024143E+02 0.  0.
        -12    1    1    2    0    0 -0.28955385085E+02 -0.61754282123E-01  0.13352961554E+02  0.31886042734E+02  0.00000000000E+00 0.  1.
         11    1    3    3    0    0  0.19728077744E+02  0.10726171024E+02 -0.26929044071E+02  0.35063103274E+02  0.51100000000E-03 0. -1.
        -11    1    3    3    0    0 -0.25167728498E+01 -0.20521631963E+01  0.80182989159E+01  0.86509327316E+01  0.51100000000E-03 0.  1.
         12    1    3    3    0    0  0.11744080191E+02 -0.86122535453E+01  0.55577836020E+01  0.15587921260E+02  0.00000000000E+00 0. -1.
</event>
<event>
 7    1  0.1096439E-011  0.5930196E+02  0.7816164E-02  0.1266605E+00
        -11   -1    0    0    0    0  0.00000000000E+00  0.00000000000E+00  0.45593999997E+02  0.45594000000E+02  0.51100000000E-03 0. -1.
         11   -1    0    0    0    0 -0.00000000000E+00 -0.00000000000E+00 -0.45593999997E+02  0.45594000000E+02  0.51100000000E-03 0.  1.
    9900012    2    1    2    0    0 -0.41318105739E+01 -0.27017049470E+02  0.16423351233E+02  0.59301964084E+02  0.50000036579E+02 0.  0.
        -12    1    1    2    0    0  0.41318105739E+01  0.27017049470E+02 -0.16423351233E+02  0.31886035916E+02  0.00000000000E+00 0.  1.
         11    1    3    3    0    0 -0.12303386674E+02 -0.92402847632E+00 -0.15111234680E+01  0.12430231159E+02  0.51100000000E-03 0. -1.
        -11    1    3    3    0    0  0.97235500625E+01 -0.33638499033E+02  0.11564998521E+02  0.36876079429E+02  0.51100000000E-03 0.  1.
        -12    1    3    3    0    0 -0.15519739622E+01  0.75454780388E+01  0.63694761799E+01  0.99956534963E+01  0.00000000000E+00 0.  1.
</event>
<event>
 7    1  0.1096439E-011  0.5930193E+02  0.7816164E-02  0.1266605E+00
        -11   -1    0    0    0    0  0.00000000000E+00  0.00000000000E+00  0.45593999997E+02  0.45594000000E+02  0.51100000000E-03 0.  1.
         11   -1    0    0    0    0 -0.00000000000E+00 -0.00000000000E+00 -0.45593999997E+02  0.45594000000E+02  0.51100000000E-03 0. -1.
    9900012    2    1    2    0    0 -0.40078801229E+01  0.27058888905E+02 -0.16385204697E+02  0.59301929298E+02  0.49999973137E+02 0.  0.
        -12    1    1    2    0    0  0.40078801229E+01 -0.27058888905E+02  0.16385204697E+02  0.31886070702E+02  0.00000000000E+00 0.  1.
         11    1    3    3    0    0  0.85383580535E+01 -0.17813821237E+01  0.97677633325E+01  0.13095269425E+02  0.51100000000E-03 0. -1.
        -11    1    3    3    0    0 -0.13615982760E+02  0.59563824544E+01 -0.74060575782E+01  0.16604913959E+02  0.51100000000E-03 0.  1.
         12    1    3    3    0    0  0.10697445836E+01  0.22883888574E+02 -0.18746910451E+02  0.29601745915E+02  0.00000000000E+00 0. -1.
</event>
<event>
 7    1  0.1096439E-011  0.5930188E+02  0.7816164E-02  0.1266605E+00
        -11   -1    0    0    0    0  0.00000000000E+00  0.00000000000E+00  0.45593999997E+02  0.45594000000E+02  0.51100000000E-03 0. -1.
         11   -1    0    0    0    0 -0.00000000000E+00 -0.00000000000E+00 -0.45593999997E+02  0.45594000000E+02  0.51100000000E-03 0.  1.
    9900012    2    1    2    0    0  0.10254588280E+02  0.24192515767E+02  0.18063513932E+02  0.59301875502E+02  0.49999875026E+02 0.  0.
        -12    1    1    2    0    0 -0.10254588280E+02 -0.24192515767E+02 -0.18063513932E+02  0.31886124498E+02  0.00000000000E+00 0.  1.
         11    1    3    3    0    0 -0.81751283502E+01  0.13279547025E+02  0.21548447360E+02  0.26599148043E+02  0.51100000000E-03 0. -1.
        -11    1    3    3    0    0  0.35279417667E+01  0.90007440561E+00 -0.12210198138E+02  0.12741485230E+02  0.51100000000E-03 0.  1.
         12    1    3    3    0    0  0.14901774864E+02  0.10012894336E+02  0.87252647101E+01  0.19961242229E+02  0.00000000000E+00 0. -1.
</event>
<event>
 7    1  0.1096439E-011  0.5930192E+02  0.7816164E-02  0.1266605E+00
        -11   -1    0    0    0    0  0.00000000000E+00  0.00000000000E+00  0.45593999997E+02  0.45594000000E+02  0.51100000000E-03 0. -1.
         11   -1    0    0    0    0 -0.00000000000E+00 -0.00000000000E+00 -0.45593999997E+02  0.45594000000E+02  0.51100000000E-03 0.  1.
    9900012    2    1    2    0    0  0.11215117293E+02 -0.11239165969E+02  0.27651842273E+02  0.59301920143E+02  0.49999956439E+02 0.  0.
        -12    1    1    2    0    0 -0.11215117293E+02  0.11239165969E+02 -0.27651842273E+02  0.31886079857E+02  0.00000000000E+00 0.  1.
         11    1    3    3    0    0 -0.89396541072E+01  0.86325827016E+01 -0.60971844402E+01  0.13842491034E+02  0.51100000000E-03 0. -1.
        -11    1    3    3    0    0  0.16203777699E+02 -0.12500288937E+02  0.16494423751E+02  0.26284703734E+02  0.51100000000E-03 0.  1.
         12    1    3    3    0    0  0.39509937015E+01 -0.73714597333E+01  0.17254602962E+02  0.19174725375E+02  0.00000000000E+00 0. -1.
</event>
<event>
 7    1  0.1096439E-011  0.5930195E+02  0.7816164E-02  0.1266605E+00
        -11   -1    0    0    0    0  0.00000000000E+00  0.00000000000E+00  0.45593999997E+02  0.45594000000E+02  0.51100000000E-03 0.  1.
         11   -1    0    0    0    0 -0.00000000000E+00 -0.00000000000E+00 -0.45593999997E+02  0.45594000000E+02  0.51100000000E-03 0. -1.
    9900012    2    1    2    0    0 -0.22864919621E+02 -0.14973651789E+02 -0.16422716003E+02  0.59301946652E+02  0.50000004786E+02 0.  0.
        -12    1    1    2    0    0  0.22864919621E+02  0.14973651789E+02  0.16422716003E+02  0.31886053348E+02  0.00000000000E+00 0.  1.
         11    1    3    3    0    0  0.78124913415E+01 -0.16702675418E+02  0.13998032184E+01  0.18492534613E+02  0.51100000000E-03 0. -1.
        -11    1    3    3    0    0 -0.10400457129E+02  0.10028893481E+02 -0.98850228314E+01  0.17506052941E+02  0.51100000000E-03 0.  1.
         12    1    3    3    0    0 -0.20276953833E+02 -0.82998698514E+01 -0.79374963903E+01  0.23303359098E+02  0.00000000000E+00 0. -1.
</event>
<event>
 7    1  0.1096439E-011  0.5930194E+02  0.7816164E-02  0.1266605E+00
        -11   -1    0    0    0    0  0.00000000000E+00  0.00000000000E+00  0.45593999997E+02  0.45594000000E+02  0.51100000000E-03 0. -1.
         11   -1    0    0    0    0 -0.00000000000E+00 -0.00000000000E+00 -0.45593999997E+02  0.45594000000E+02  0.51100000000E-03 0.  1.
    9900012    2    1    2    0    0  0.23181051191E+02  0.12811077473E+02 -0.17754878903E+02  0.59301944031E+02  0.50000000007E+02 0.  0.
        -12    1    1    2    0    0 -0.23181051191E+02 -0.12811077473E+02  0.17754878903E+02  0.31886055969E+02  0.00000000000E+00 0.  1.
         11    1    3    3    0    0  0.13865287441E+02  0.76284890477E-01  0.50200569648E+01  0.14746287241E+02  0.51100000000E-03 0. -1.
        -11    1    3    3    0    0  0.10944893994E+02  0.17521086219E+02 -0.29578826966E+02  0.36078888173E+02  0.51100000000E-03 0.  1.
        -12    1    3    3    0    0 -0.16291302436E+01 -0.47862936361E+01  0.68038910981E+01  0.84767686177E+01  0.00000000000E+00 0.  1.
</event>
<event>
 7    1  0.1096439E-011  0.5930195E+02  0.7816164E-02  0.1266605E+00
        -11   -1    0    0    0    0  0.00000000000E+00  0.00000000000E+00  0.45593999997E+02  0.45594000000E+02  0.51100000000E-03 0.  1.
         11   -1    0    0    0    0 -0.00000000000E+00 -0.00000000000E+00 -0.45593999997E+02  0.45594000000E+02  0.51100000000E-03 0. -1.
    9900012    2    1    2    0    0 -0.31226691945E+01 -0.14629056309E+02 -0.28159544126E+02  0.59301948555E+02  0.50000008256E+02 0.  0.
        -12    1    1    2    0    0  0.31226691945E+01  0.14629056309E+02  0.28159544126E+02  0.31886051445E+02  0.00000000000E+00 0.  1.
         11    1    3    3    0    0 -0.19983379443E+02  0.76318116938E-01 -0.99142643506E+01  0.22307709795E+02  0.51100000000E-03 0. -1.
        -11    1    3    3    0    0  0.16789637084E+02 -0.14470015443E+02 -0.37293640644E+01  0.22476241165E+02  0.51100000000E-03 0.  1.
        -12    1    3    3    0    0  0.71073164542E-01 -0.23535898327E+00 -0.14515915711E+02  0.14517997595E+02  0.00000000000E+00 0.  1.
</event>
<event>
 7    1  0.1096439E-011  0.5930199E+02  0.7816164E-02  0.1266605E+00
        -11   -1    0    0    0    0  0.00000000000E+00  0.00000000000E+00  0.45593999997E+02  0.45594000000E+02  0.51100000000E-03 0.  1.
         11   -1    0    0    0    0 -0.00000000000E+00 -0.00000000000E+00 -0.45593999997E+02  0.45594000000E+02  0.51100000000E-03 0. -1.
    9900012    2    1    2    0    0 -0.15691067687E+02  0.16501564058E+02 -0.22320537559E+02  0.59301990240E+02  0.50000084279E+02 0.  0.
        -12    1    1    2    0    0  0.15691067687E+02 -0.16501564058E+02  0.22320537559E+02  0.31886009760E+02  0.00000000000E+00 0.  1.
         11    1    3    3    0    0  0.24017903445E+01 -0.10538957587E+02 -0.92857793239E+01  0.14250049887E+02  0.51100000000E-03 0. -1.
        -11    1    3    3    0    0  0.13162108121E+01  0.22006249342E+02 -0.19273329101E+01  0.22129664105E+02  0.51100000000E-03 0.  1.
         12    1    3    3    0    0 -0.19409068843E+02  0.50342723033E+01 -0.11107425325E+02  0.22922276247E+02  0.00000000000E+00 0. -1.
</event>
<event>
 7    1  0.1096439E-011  0.5930194E+02  0.7816164E-02  0.1266605E+00
        -11   -1    0    0    0    0  0.00000000000E+00  0.00000000000E+00  0.45593999997E+02  0.45594000000E+02  0.51100000000E-03 0.  1.
         11   -1    0    0    0    0 -0.00000000000E+00 -0.00000000000E+00 -0.45593999997E+02  0.45594000000E+02  0.51100000000E-03 0. -1.
    9900012    2    1    2    0    0 -0.28418115898E+02 -0.75488700904E+01 -0.12334760623E+02  0.59301936109E+02  0.49999985558E+02 0.  0.
        -12    1    1    2    0    0  0.28418115898E+02  0.75488700904E+01  0.12334760623E+02  0.31886063891E+02  0.00000000000E+00 0.  1.
         11    1    3    3    0    0 -0.28106320461E+02 -0.22817540005E+02  0.31157781234E+01  0.36336117780E+02  0.51100000000E-03 0. -1.
        -11    1    3    3    0    0  0.66095050217E+00  0.41020813964E+01 -0.92869938297E+01  0.10174093670E+02  0.51100000000E-03 0.  1.
         12    1    3    3    0    0 -0.97274593922E+00  0.11166588519E+02 -0.61635449171E+01  0.12791724659E+02  0.00000000000E+00 0. -1.
</event>
<event>
 7    1  0.1096439E-011  0.5930195E+02  0.7816164E-02  0.1266605E+00
        -11   -1    0    0    0    0  0.00000000000E+00  0.00000000000E+00  0.45593999997E+02  0.45594000000E+02  0.51100000000E-03 0. -1.
         11   -1    0    0    0    0 -0.00000000000E+00 -0.00000000000E+00 -0.45593999997E+02  0.45594000000E+02  0.51100000000E-03 0.  1.
    9900012    2    1    2    0    0  0.20293874820E+02 -0.12735146602E+01  0.24561296705E+02  0.59301945201E+02  0.50000002140E+02 0.  0.
        -12    1    1    2    0    0 -0.20293874820E+02  0.12735146602E+01 -0.24561296705E+02  0.31886054799E+02  0.00000000000E+00 0.  1.
         11    1    3    3    0    0  0.24613083051E+02 -0.28401431817E+01  0.22097718217E+01  0.24874753513E+02  0.51100000000E-03 0. -1.
        -11    1    3    3    0    0 -0.51624762464E+01 -0.25553832225E+01 -0.44615307181E+01  0.72860415192E+01  0.51100000000E-03 0.  1.
         12    1    3    3    0    0  0.84326801510E+00  0.41220117440E+01  0.26813055602E+02  0.27141150168E+02  0.00000000000E+00 0. -1.
</event>
<event>
 7    1  0.1096439E-011  0.5930198E+02  0.7816164E-02  0.1266605E+00
        -11   -1    0    0    0    0  0.00000000000E+00  0.00000000000E+00  0.45593999997E+02  0.45594000000E+02  0.51100000000E-03 0. -1.
         11   -1    0    0    0    0 -0.00000000000E+00 -0.00000000000E+00 -0.45593999997E+02  0.45594000000E+02  0.51100000000E-03 0.  1.
    9900012    2    1    2    0    0 -0.27601226513E+02 -0.14678407341E+02  0.62797040866E+01  0.59301983778E+02  0.50000072495E+02 0.  0.
        -12    1    1    2    0    0  0.27601226513E+02  0.14678407341E+02 -0.62797040866E+01  0.31886016222E+02  0.00000000000E+00 0.  1.
         11    1    3    3    0    0 -0.10791602310E+02 -0.10364163642E+02 -0.70549387362E+01  0.16542270982E+02  0.51100000000E-03 0. -1.
        -11    1    3    3    0    0  0.52237631792E+01  0.11238531106E+02 -0.59052240780E+00  0.12407296247E+02  0.51100000000E-03 0.  1.
        -12    1    3    3    0    0 -0.22033387382E+02 -0.15552774806E+02  0.13925165231E+02  0.30352416549E+02  0.00000000000E+00 0.  1.
</event>
<event>
 7    1  0.1096439E-011  0.5930199E+02  0.7816164E-02  0.1266605E+00
        -11   -1    0    0    0    0  0.00000000000E+00  0.00000000000E+00  0.45593999997E+02  0.45594000000E+02  0.51100000000E-03 0.  1.
         11   -1    0    0    0    0 -0.00000000000E+00 -0.00000000000E+00 -0.45593999997E+02  0.45594000000E+02  0.51100000000E-03 0. -1.
    9900012    2    1    2    0    0  0.16559797943E+02  0.13552293909E+02 -0.23639500470E+02  0.59301991147E+02  0.50000085935E+02 0.  0.
        -12    1    1    2    0    0 -0.16559797943E+02 -0.13552293909E+02  0.23639500470E+02  0.31886008853E+02  0.00000000000E+00 0.  1.
         11    1    3    3    0    0  0.29157743158E+02 -0.10550431275E+01 -0.68345257493E+01  0.29966612163E+02  0.51100000000E-03 0. -1.
        -11    1    3    3    0    0 -0.95279758055E+01  0.82040615168E+01 -0.18178002130E+02  0.22102685584E+02  0.51100000000E-03 0.  1.
         12    1    3    3    0    0 -0.30699694095E+01  0.64032755196E+01  0.13730274095E+01  0.72326934003E+01  0.00000000000E+00 0. -1.
</event>
<event>
 7    1  0.1096439E-011  0.5930198E+02  0.7816164E-02  0.1266605E+00
        -11   -1    0    0    0    0  0.00000000000E+00  0.00000000000E+00  0.45593999997E+02  0.45594000000E+02  0.51100000000E-03 0. -1.
         11   -1    0    0    0    0 -0.00000000000E+00 -0.00000000000E+00 -0.45593999997E+02  0.45594000000E+02  0.51100000000E-03 0.  1.
    9900012    2    1    2    0    0 -0.22731869005E+02  0.17342299816E+02 -0.14114711795E+02  0.59301979232E+02  0.50000064204E+02 0.  0.
        -12    1    1    2    0    0  0.22731869005E+02 -0.17342299816E+02  0.14114711795E+02  0.31886020768E+02  0.00000000000E+00 0.  1.
         11    1    3    3    0    0 -0.64288293624E+01 -0.42804892502E+01  0.10332848627E+02  0.12900395196E+02  0.51100000000E-03 0. -1.
        -11    1    3    3    0    0 -0.59354537324E+01  0.26605749757E+02 -0.13102247583E+02  0.30245072709E+02  0.51100000000E-03 0.  1.
        -12    1    3    3    0    0 -0.10367585910E+02 -0.49829606911E+01 -0.11345312839E+02  0.16156511327E+02  0.00000000000E+00 0.  1.
</event>
<event>
 7    1  0.1096439E-011  0.5930193E+02  0.7816164E-02  0.1266605E+00
        -11   -1    0    0    0    0  0.00000000000E+00  0.00000000000E+00  0.45593999997E+02  0.45594000000E+02  0.51100000000E-03 0.  1.
         11   -1    0    0    0    0 -0.00000000000E+00 -0.00000000000E+00 -0.45593999997E+02  0.45594000000E+02  0.51100000000E-03 0. -1.
    9900012    2    1    2    0    0  0.30838275635E+02  0.81068983468E+01 -0.99970974629E-02  0.59301934942E+02  0.49999983430E+02 0.  0.
        -12    1    1    2    0    0 -0.30838275635E+02 -0.81068983468E+01  0.99970974629E-02  0.31886065058E+02  0.00000000000E+00 0.  1.
         11    1    3    3    0    0  0.25894932330E+01  0.46640068788E+00 -0.31724153683E+01  0.41215560575E+01  0.51100000000E-03 0. -1.
        -11    1    3    3    0    0  0.20254226036E+02 -0.14861663148E+01  0.23771268188E+02  0.31265245147E+02  0.51100000000E-03 0.  1.
        -12    1    3    3    0    0  0.79945563660E+01  0.91266639737E+01 -0.20608849917E+02  0.23915133737E+02  0.00000000000E+00 0.  1.
</event>
<event>
 7    1  0.1096439E-011  0.5930194E+02  0.7816164E-02  0.1266605E+00
        -11   -1    0    0    0    0  0.00000000000E+00  0.00000000000E+00  0.45593999997E+02  0.45594000000E+02  0.51100000000E-03 0. -1.
         11   -1    0    0    0    0 -0.00000000000E+00 -0.00000000000E+00 -0.45593999997E+02  0.45594000000E+02  0.51100000000E-03 0.  1.
    9900012    2    1    2    0    0 -0.23949804926E+02  0.94660740194E+00  0.21029305888E+02  0.59301938347E+02  0.49999989640E+02 0.  0.
        -12    1    1    2    0    0  0.23949804926E+02 -0.94660740194E+00 -0.21029305888E+02  0.31886061653E+02  0.00000000000E+00 0.  1.
         11    1    3    3    0    0 -0.33562686442E+01 -0.15287266130E+02  0.43607619755E+01  0.16247501045E+02  0.51100000000E-03 0. -1.
        -11    1    3    3    0    0 -0.96523312566E+01  0.11155810401E+02  0.24553100135E+02  0.28643923106E+02  0.51100000000E-03 0.  1.
        -12    1    3    3    0    0 -0.10941205026E+02  0.50780631314E+01 -0.78845562227E+01  0.14410514196E+02  0.00000000000E+00 0.  1.
</event>
<event>
 7    1  0.1096439E-011  0.5930197E+02  0.7816164E-02  0.1266605E+00
        -11   -1    0    0    0    0  0.00000000000E+00  0.00000000000E+00  0.45593999997E+02  0.45594000000E+02  0.51100000000E-03 0. -1.
         11   -1    0    0    0    0 -0.00000000000E+00 -0.00000000000E+00 -0.45593999997E+02  0.45594000000E+02  0.51100000000E-03 0.  1.
    9900012    2    1    2    0    0 -0.46735318826E+01  0.23529785397E+02  0.21005385631E+02  0.59301969727E+02  0.50000046869E+02 0.  0.
        -12    1    1    2    0    0  0.46735318826E+01 -0.23529785397E+02 -0.21005385631E+02  0.31886030273E+02  0.00000000000E+00 0.  1.
         11    1    3    3    0    0  0.34084887952E+01  0.16369534020E+02  0.83661560067E+01  0.18696844827E+02  0.51100000000E-03 0. -1.
        -11    1    3    3    0    0 -0.15584351954E+02 -0.10667175072E+02  0.90149382125E+01  0.20926771397E+02  0.51100000000E-03 0.  1.
        -12    1    3    3    0    0  0.75023312766E+01  0.17827426448E+02  0.36242914115E+01  0.19678353503E+02  0.00000000000E+00 0.  1.
</event>
<event>
 7    1  0.1096439E-011  0.5930193E+02  0.7816164E-02  0.1266605E+00
        -11   -1    0    0    0    0  0.00000000000E+00  0.00000000000E+00  0.45593999997E+02  0.45594000000E+02  0.51100000000E-03 0.  1.
         11   -1    0    0    0    0 -0.00000000000E+00 -0.00000000000E+00 -0.45593999997E+02  0.45594000000E+02  0.51100000000E-03 0. -1.
    9900012    2    1    2    0    0  0.25605448981E+02 -0.18540178230E+02 -0.41646183279E+01  0.59301932947E+02  0.49999979791E+02 0.  0.
        -12    1    1    2    0    0 -0.25605448981E+02  0.18540178230E+02  0.41646183279E+01  0.31886067053E+02  0.00000000000E+00 0.  1.
         11    1    3    3    0    0  0.11280084906E+02 -0.30199347586E+02 -0.10745799536E+02  0.33981069996E+02  0.51100000000E-03 0. -1.
        -11    1    3    3    0    0  0.13531688900E+02  0.21909646456E+01 -0.95347842491E-01  0.13708246497E+02  0.51100000000E-03 0.  1.
         12    1    3    3    0    0  0.79367517528E+00  0.94682047112E+01  0.66765290507E+01  0.11612616454E+02  0.00000000000E+00 0. -1.
</event>
<event>
 7    1  0.1096439E-011  0.5930194E+02  0.7816164E-02  0.1266605E+00
        -11   -1    0    0    0    0  0.00000000000E+00  0.00000000000E+00  0.45593999997E+02  0.45594000000E+02  0.51100000000E-03 0.  1.
         11   -1    0    0    0    0 -0.00000000000E+00 -0.00000000000E+00 -0.45593999997E+02  0.45594000000E+02  0.51100000000E-03 0. -1.
    9900012    2    1    2    0    0  0.19422565765E+02  0.20923128830E+02 -0.14202365749E+02  0.59301943897E+02  0.49999999761E+02 0.  0.
        -12    1    1    2    0    0 -0.19422565765E+02 -0.20923128830E+02  0.14202365749E+02  0.31886056103E+02  0.00000000000E+00 0.  1.
         11    1    3    3    0    0  0.22599136962E+01 -0.10837922780E+02  0.10212809915E+02  0.15062180012E+02  0.51100000000E-03 0.  1.
        -11    1    3    3    0    0  0.77078388931E+01  0.79207222282E+01 -0.94825396865E+01  0.14562526573E+02  0.51100000000E-03 0. -1.
        -12    1    3    3    0    0  0.94548131760E+01  0.23840329382E+02 -0.14932635978E+02  0.29677237312E+02  0.00000000000E+00 0.  1.
</event>
<event>
 7    1  0.1096439E-011  0.5930206E+02  0.7816164E-02  0.1266604E+00
        -11   -1    0    0    0    0  0.00000000000E+00  0.00000000000E+00  0.45593999997E+02  0.45594000000E+02  0.51100000000E-03 0. -1.
         11   -1    0    0    0    0 -0.00000000000E+00 -0.00000000000E+00 -0.45593999997E+02  0.45594000000E+02  0.51100000000E-03 0.  1.
    9900012    2    1    2    0    0 -0.25616436020E+02  0.14068542367E+02  0.12750987277E+02  0.59302057090E+02  0.50000206198E+02 0.  0.
        -12    1    1    2    0    0  0.25616436020E+02 -0.14068542367E+02 -0.12750987277E+02  0.31885942910E+02  0.00000000000E+00 0.  1.
         11    1    3    3    0    0  0.37750102600E+01  0.29271518800E+00  0.52786278472E+01  0.64961755560E+01  0.51100000000E-03 0. -1.
        -11    1    3    3    0    0 -0.36298908645E+02  0.11583667817E+02 -0.49516026211E+01  0.38422786178E+02  0.51100000000E-03 0.  1.
        -12    1    3    3    0    0  0.69074623647E+01  0.21921593620E+01  0.12423962051E+02  0.14383095356E+02  0.00000000000E+00 0.  1.
</event>
<event>
 7    1  0.1096439E-011  0.5930193E+02  0.7816164E-02  0.1266605E+00
        -11   -1    0    0    0    0  0.00000000000E+00  0.00000000000E+00  0.45593999997E+02  0.45594000000E+02  0.51100000000E-03 0.  1.
         11   -1    0    0    0    0 -0.00000000000E+00 -0.00000000000E+00 -0.45593999997E+02  0.45594000000E+02  0.51100000000E-03 0. -1.
    9900012    2    1    2    0    0  0.58218885325E+01  0.12924506473E+02 -0.28561938593E+02  0.59301927964E+02  0.49999970704E+02 0.  0.
        -12    1    1    2    0    0 -0.58218885325E+01 -0.12924506473E+02  0.28561938593E+02  0.31886072036E+02  0.00000000000E+00 0.  1.
         11    1    3    3    0    0  0.18937084685E+02  0.18665421991E+02 -0.22593928753E+02  0.34892646377E+02  0.51100000000E-03 0. -1.
        -11    1    3    3    0    0 -0.46166915189E+01 -0.96590330091E+01  0.33356700954E+01  0.11213271356E+02  0.51100000000E-03 0.  1.
         12    1    3    3    0    0 -0.84985046334E+01  0.39181174916E+01 -0.93036799353E+01  0.13196010231E+02  0.00000000000E+00 0. -1.
</event>
<event>
 7    1  0.1096439E-011  0.5930196E+02  0.7816164E-02  0.1266605E+00
        -11   -1    0    0    0    0  0.00000000000E+00  0.00000000000E+00  0.45593999997E+02  0.45594000000E+02  0.51100000000E-03 0.  1.
         11   -1    0    0    0    0 -0.00000000000E+00 -0.00000000000E+00 -0.45593999997E+02  0.45594000000E+02  0.51100000000E-03 0. -1.
    9900012    2    1    2    0    0 -0.29301291129E+02  0.19119623751E+01 -0.12429734729E+02  0.59301959678E+02  0.50000028543E+02 0.  0.
        -12    1    1    2    0    0  0.29301291129E+02 -0.19119623751E+01  0.12429734729E+02  0.31886040322E+02  0.00000000000E+00 0.  1.
         11    1    3    3    0    0 -0.20001999506E+02 -0.80871271888E+01 -0.23817929554E+02  0.32136822788E+02  0.51100000000E-03 0. -1.
        -11    1    3    3    0    0  0.52321588903E+01  0.56181450674E+01 -0.77366454423E+00  0.77160610249E+01  0.51100000000E-03 0.  1.
         12    1    3    3    0    0 -0.14531450514E+02  0.43809444965E+01  0.12161859369E+02  0.19449075866E+02  0.00000000000E+00 0. -1.
</event>
<event>
 7    1  0.1096439E-011  0.5930195E+02  0.7816164E-02  0.1266605E+00
        -11   -1    0    0    0    0  0.00000000000E+00  0.00000000000E+00  0.45593999997E+02  0.45594000000E+02  0.51100000000E-03 0.  1.
         11   -1    0    0    0    0 -0.00000000000E+00 -0.00000000000E+00 -0.45593999997E+02  0.45594000000E+02  0.51100000000E-03 0. -1.
    9900012    2    1    2    0    0 -0.13476322272E+02  0.60383931275E+01 -0.28260338461E+02  0.59301950017E+02  0.50000010924E+02 0.  0.
        -12    1    1    2    0    0  0.13476322272E+02 -0.60383931275E+01  0.28260338461E+02  0.31886049983E+02  0.00000000000E+00 0.  1.
         11    1    3    3    0    0  0.34221832138E+01 -0.10398821953E+02 -0.13755101578E+02  0.17579808180E+02  0.51100000000E-03 0. -1.
        -11    1    3    3    0    0  0.16970338815E+01  0.19839860212E+02 -0.10028184164E+02  0.22294942366E+02  0.51100000000E-03 0.  1.
         12    1    3    3    0    0 -0.18595539368E+02 -0.34026451312E+01 -0.44770527191E+01  0.19427199472E+02  0.00000000000E+00 0. -1.
</event>
<event>
 7    1  0.1096439E-011  0.5930155E+02  0.7816164E-02  0.1266606E+00
        -11   -1    0    0    0    0  0.00000000000E+00  0.00000000000E+00  0.45593999997E+02  0.45594000000E+02  0.51100000000E-03 0. -1.
         11   -1    0    0    0    0 -0.00000000000E+00 -0.00000000000E+00 -0.45593999997E+02  0.45594000000E+02  0.51100000000E-03 0.  1.
    9900012    2    1    2    0    0 -0.28966392016E+02  0.64305375009E+01  0.11676554415E+02  0.59301551437E+02  0.49999284004E+02 0.  0.
        -12    1    1    2    0    0  0.28966392016E+02 -0.64305375009E+01 -0.11676554415E+02  0.31886448563E+02  0.00000000000E+00 0.  1.
         11    1    3    3    0    0 -0.10550433401E+02  0.24470682399E+02  0.11542040467E+01  0.26673172464E+02  0.51100000000E-03 0. -1.
        -11    1    3    3    0    0 -0.67272497732E+01 -0.15967882768E+02  0.11374265704E+02  0.20726868798E+02  0.51100000000E-03 0.  1.
         12    1    3    3    0    0 -0.11688708842E+02 -0.20722621309E+01 -0.85191533619E+00  0.11901510176E+02  0.00000000000E+00 0. -1.
</event>
<event>
 7    1  0.1096439E-011  0.5930192E+02  0.7816164E-02  0.1266605E+00
        -11   -1    0    0    0    0  0.00000000000E+00  0.00000000000E+00  0.45593999997E+02  0.45594000000E+02  0.51100000000E-03 0.  1.
         11   -1    0    0    0    0 -0.00000000000E+00 -0.00000000000E+00 -0.45593999997E+02  0.45594000000E+02  0.51100000000E-03 0. -1.
    9900012    2    1    2    0    0 -0.17509729504E+02  0.17870428295E+02 -0.19768132099E+02  0.59301923392E+02  0.49999962365E+02 0.  0.
        -12    1    1    2    0    0  0.17509729504E+02 -0.17870428295E+02  0.19768132099E+02  0.31886076608E+02  0.00000000000E+00 0.  1.
         11    1    3    3    0    0 -0.99321866062E+01  0.23985925108E+02 -0.13568601625E+02  0.29293000604E+02  0.51100000000E-03 0. -1.
        -11    1    3    3    0    0  0.57342786436E+01  0.23911971322E+00  0.77922843846E+01  0.96777490147E+01  0.51100000000E-03 0.  1.
         12    1    3    3    0    0 -0.13311821542E+02 -0.63546165255E+01 -0.13991814860E+02  0.20331173773E+02  0.00000000000E+00 0. -1.
</event>
<event>
 7    1  0.1096439E-011  0.5930194E+02  0.7816164E-02  0.1266605E+00
        -11   -1    0    0    0    0  0.00000000000E+00  0.00000000000E+00  0.45593999997E+02  0.45594000000E+02  0.51100000000E-03 0. -1.
         11   -1    0    0    0    0 -0.00000000000E+00 -0.00000000000E+00 -0.45593999997E+02  0.45594000000E+02  0.51100000000E-03 0.  1.
    9900012    2    1    2    0    0  0.50446550737E+01  0.23084624784E+02  0.21409637162E+02  0.59301937062E+02  0.49999987297E+02 0.  0.
        -12    1    1    2    0    0 -0.50446550737E+01 -0.23084624784E+02 -0.21409637162E+02  0.31886062938E+02  0.00000000000E+00 0.  1.
         11    1    3    3    0    0 -0.53068211842E+01  0.19226139825E+02  0.35621978386E+02  0.40825631018E+02  0.51100000000E-03 0. -1.
        -11    1    3    3    0    0  0.20485239400E+01  0.19666381734E+01 -0.16036047754E+01  0.32612366634E+01  0.51100000000E-03 0.  1.
         12    1    3    3    0    0  0.83029523179E+01  0.18918467864E+01 -0.12608736448E+02  0.15215069381E+02  0.00000000000E+00 0. -1.
</event>
<event>
 7    1  0.1096439E-011  0.5930194E+02  0.7816164E-02  0.1266605E+00
        -11   -1    0    0    0    0  0.00000000000E+00  0.00000000000E+00  0.45593999997E+02  0.45594000000E+02  0.51100000000E-03 0. -1.
         11   -1    0    0    0    0 -0.00000000000E+00 -0.00000000000E+00 -0.45593999997E+02  0.45594000000E+02  0.51100000000E-03 0.  1.
    9900012    2    1    2    0    0 -0.30340129200E+02 -0.19431755208E+01  0.96135963533E+01  0.59301943395E+02  0.49999998846E+02 0.  0.
        -12    1    1    2    0    0  0.30340129200E+02  0.19431755208E+01 -0.96135963533E+01  0.31886056605E+02  0.00000000000E+00 0.  1.
         11    1    3    3    0    0 -0.14856939331E+02  0.11268543841E+01  0.29836900256E+02  0.33350248338E+02  0.51100000000E-03 0. -1.
        -11    1    3    3    0    0 -0.83200928902E+00  0.13686447230E+00 -0.29867965165E+01  0.31035342809E+01  0.51100000000E-03 0.  1.
         12    1    3    3    0    0 -0.14651180580E+02 -0.32068943771E+01 -0.17236507387E+02  0.22848160776E+02  0.00000000000E+00 0. -1.
</event>
<event>
 7    1  0.1096439E-011  0.5930192E+02  0.7816164E-02  0.1266605E+00
        -11   -1    0    0    0    0  0.00000000000E+00  0.00000000000E+00  0.45593999997E+02  0.45594000000E+02  0.51100000000E-03 0. -1.
         11   -1    0    0    0    0 -0.00000000000E+00 -0.00000000000E+00 -0.45593999997E+02  0.45594000000E+02  0.51100000000E-03 0.  1.
    9900012    2    1    2    0    0 -0.10628232019E+02  0.24093680878E+02  0.17979358001E+02  0.59301920150E+02  0.49999956452E+02 0.  0.
        -12    1    1    2    0    0  0.10628232019E+02 -0.24093680878E+02 -0.17979358001E+02  0.31886079850E+02  0.00000000000E+00 0.  1.
         11    1    3    3    0    0 -0.10211165672E+02 -0.71009215725E+01  0.91750423415E+01  0.15455497203E+02  0.51100000000E-03 0. -1.
        -11    1    3    3    0    0  0.14498823010E+02  0.16055024062E+02  0.32122383481E+01  0.21870028390E+02  0.51100000000E-03 0.  1.
        -12    1    3    3    0    0 -0.14915889357E+02  0.15139578388E+02  0.55920773110E+01  0.21976394557E+02  0.00000000000E+00 0.  1.
</event>
<event>
 7    1  0.1096439E-011  0.5930194E+02  0.7816164E-02  0.1266605E+00
        -11   -1    0    0    0    0  0.00000000000E+00  0.00000000000E+00  0.45593999997E+02  0.45594000000E+02  0.51100000000E-03 0.  1.
         11   -1    0    0    0    0 -0.00000000000E+00 -0.00000000000E+00 -0.45593999997E+02  0.45594000000E+02  0.51100000000E-03 0. -1.
    9900012    2    1    2    0    0 -0.28113875020E+02 -0.14943505371E+02 -0.17384919687E+01  0.59301942299E+02  0.49999996847E+02 0.  0.
        -12    1    1    2    0    0  0.28113875020E+02  0.14943505371E+02  0.17384919687E+01  0.31886057701E+02  0.00000000000E+00 0.  1.
         11    1    3    3    0    0 -0.72461959872E+01  0.43919311108E+01  0.11711041178E+02  0.14454926527E+02  0.51100000000E-03 0. -1.
        -11    1    3    3    0    0 -0.22937936713E+02 -0.26660031346E+02 -0.11201779925E+02  0.36910514569E+02  0.51100000000E-03 0.  1.
        -12    1    3    3    0    0  0.20702576801E+01  0.73245948649E+01 -0.22477532216E+01  0.79365012028E+01  0.00000000000E+00 0.  1.
</event>
<event>
 7    1  0.1096439E-011  0.5930192E+02  0.7816164E-02  0.1266605E+00
        -11   -1    0    0    0    0  0.00000000000E+00  0.00000000000E+00  0.45593999997E+02  0.45594000000E+02  0.51100000000E-03 0. -1.
         11   -1    0    0    0    0 -0.00000000000E+00 -0.00000000000E+00 -0.45593999997E+02  0.45594000000E+02  0.51100000000E-03 0.  1.
    9900012    2    1    2    0    0 -0.28942225082E+02  0.75623737848E+01 -0.11039926732E+02  0.59301923537E+02  0.49999962630E+02 0.  0.
        -12    1    1    2    0    0  0.28942225082E+02 -0.75623737848E+01  0.11039926732E+02  0.31886076463E+02  0.00000000000E+00 0.  1.
         11    1    3    3    0    0 -0.50375620317E+01  0.53567202436E+01  0.14059453548E+02  0.15866307615E+02  0.51100000000E-03 0. -1.
        -11    1    3    3    0    0 -0.16350560459E+01  0.14323811185E+01 -0.20585556324E+02  0.20700006120E+02  0.51100000000E-03 0.  1.
         12    1    3    3    0    0 -0.22269607004E+02  0.77327242274E+00 -0.45138239555E+01  0.22735609802E+02  0.00000000000E+00 0. -1.
</event>
<event>
 7    1  0.1096439E-011  0.5930195E+02  0.7816164E-02  0.1266605E+00
        -11   -1    0    0    0    0  0.00000000000E+00  0.00000000000E+00  0.45593999997E+02  0.45594000000E+02  0.51100000000E-03 0.  1.
         11   -1    0    0    0    0 -0.00000000000E+00 -0.00000000000E+00 -0.45593999997E+02  0.45594000000E+02  0.51100000000E-03 0. -1.
    9900012    2    1    2    0    0  0.72395076465E+01 -0.27503937488E+01 -0.30931296927E+02  0.59301948718E+02  0.50000008554E+02 0.  0.
        -12    1    1    2    0    0 -0.72395076465E+01  0.27503937488E+01  0.30931296927E+02  0.31886051282E+02  0.00000000000E+00 0.  1.
         11    1    3    3    0    0 -0.14250510125E+02  0.58906290271E+01 -0.18809514737E+01  0.15534301654E+02  0.51100000000E-03 0. -1.
        -11    1    3    3    0    0  0.20060134978E+02 -0.24397141066E+01 -0.79281152865E+01  0.21707515577E+02  0.51100000000E-03 0.  1.
        -12    1    3    3    0    0  0.14298827940E+01 -0.62013086693E+01 -0.21122230167E+02  0.22060131488E+02  0.00000000000E+00 0.  1.
</event>
<event>
 7    1  0.1096439E-011  0.5930194E+02  0.7816164E-02  0.1266605E+00
        -11   -1    0    0    0    0  0.00000000000E+00  0.00000000000E+00  0.45593999997E+02  0.45594000000E+02  0.51100000000E-03 0. -1.
         11   -1    0    0    0    0 -0.00000000000E+00 -0.00000000000E+00 -0.45593999997E+02  0.45594000000E+02  0.51100000000E-03 0.  1.
    9900012    2    1    2    0    0 -0.65816270019E+01  0.27259597697E+02 -0.15176215728E+02  0.59301937145E+02  0.49999987447E+02 0.  0.
        -12    1    1    2    0    0  0.65816270019E+01 -0.27259597697E+02  0.15176215728E+02  0.31886062855E+02  0.00000000000E+00 0.  1.
         11    1    3    3    0    0  0.24889850654E+01  0.10765593854E+02  0.10859447989E+02  0.15492600445E+02  0.51100000000E-03 0. -1.
        -11    1    3    3    0    0  0.90827021366E+01  0.11739573132E+02 -0.18170066033E+02  0.23461976799E+02  0.51100000000E-03 0.  1.
         12    1    3    3    0    0 -0.18153314204E+02  0.47544307117E+01 -0.78655976836E+01  0.20347359900E+02  0.00000000000E+00 0. -1.
</event>
<event>
 7    1  0.1096439E-011  0.5930196E+02  0.7816164E-02  0.1266605E+00
        -11   -1    0    0    0    0  0.00000000000E+00  0.00000000000E+00  0.45593999997E+02  0.45594000000E+02  0.51100000000E-03 0. -1.
         11   -1    0    0    0    0 -0.00000000000E+00 -0.00000000000E+00 -0.45593999997E+02  0.45594000000E+02  0.51100000000E-03 0.  1.
    9900012    2    1    2    0    0  0.49342968743E+01 -0.26848462430E+02  0.16478233808E+02  0.59301962147E+02  0.50000033046E+02 0.  0.
        -12    1    1    2    0    0 -0.49342968743E+01  0.26848462430E+02 -0.16478233808E+02  0.31886037853E+02  0.00000000000E+00 0.  1.
         11    1    3    3    0    0 -0.84777958136E+01 -0.35554577264E+02  0.17594263250E+02  0.40565491318E+02  0.51100000000E-03 0. -1.
        -11    1    3    3    0    0  0.58816738596E+01  0.21833591450E+01 -0.50212518634E+01  0.80358020809E+01  0.51100000000E-03 0.  1.
         12    1    3    3    0    0  0.75304188283E+01  0.65227556889E+01  0.39052224212E+01  0.10700668749E+02  0.00000000000E+00 0. -1.
</event>
<event>
 7    1  0.1096439E-011  0.5930196E+02  0.7816164E-02  0.1266605E+00
        -11   -1    0    0    0    0  0.00000000000E+00  0.00000000000E+00  0.45593999997E+02  0.45594000000E+02  0.51100000000E-03 0.  1.
         11   -1    0    0    0    0 -0.00000000000E+00 -0.00000000000E+00 -0.45593999997E+02  0.45594000000E+02  0.51100000000E-03 0. -1.
    9900012    2    1    2    0    0 -0.18049238870E+01  0.31443298764E+02 -0.49779994803E+01  0.59301964401E+02  0.50000037156E+02 0.  0.
        -12    1    1    2    0    0  0.18049238870E+01 -0.31443298764E+02  0.49779994803E+01  0.31886035599E+02  0.00000000000E+00 0.  1.
         11    1    3    3    0    0  0.97106047359E+01  0.39910680906E+02 -0.58904100044E+01  0.41495243402E+02  0.51100000000E-03 0. -1.
        -11    1    3    3    0    0 -0.17110136118E+01 -0.55520795233E+01  0.40793830946E+01  0.70989098675E+01  0.51100000000E-03 0.  1.
         12    1    3    3    0    0 -0.98045150111E+01 -0.29153026190E+01 -0.31669725705E+01  0.10707811131E+02  0.00000000000E+00 0. -1.
</event>
<event>
 7    1  0.1096439E-011  0.5930197E+02  0.7816164E-02  0.1266605E+00
        -11   -1    0    0    0    0  0.00000000000E+00  0.00000000000E+00  0.45593999997E+02  0.45594000000E+02  0.51100000000E-03 0. -1.
         11   -1    0    0    0    0 -0.00000000000E+00 -0.00000000000E+00 -0.45593999997E+02  0.45594000000E+02  0.51100000000E-03 0.  1.
    9900012    2    1    2    0    0  0.16431084199E+02  0.26439433567E+02  0.69061358308E+01  0.59301970340E+02  0.50000047988E+02 0.  0.
        -12    1    1    2    0    0 -0.16431084199E+02 -0.26439433567E+02 -0.69061358308E+01  0.31886029660E+02  0.00000000000E+00 0.  1.
         11    1    3    3    0    0  0.12384679827E+02  0.32337447541E+02 -0.93512454961E+01  0.35868323079E+02  0.51100000000E-03 0. -1.
        -11    1    3    3    0    0  0.72501295701E+01 -0.59682795274E+00  0.14980947350E+01  0.74273057352E+01  0.51100000000E-03 0.  1.
         12    1    3    3    0    0 -0.32037251980E+01 -0.53011860205E+01  0.14759286592E+02  0.16006341527E+02  0.00000000000E+00 0. -1.
</event>
<event>
 7    1  0.1096439E-011  0.5930195E+02  0.7816164E-02  0.1266605E+00
        -11   -1    0    0    0    0  0.00000000000E+00  0.00000000000E+00  0.45593999997E+02  0.45594000000E+02  0.51100000000E-03 0. -1.
         11   -1    0    0    0    0 -0.00000000000E+00 -0.00000000000E+00 -0.45593999997E+02  0.45594000000E+02  0.51100000000E-03 0.  1.
    9900012    2    1    2    0    0 -0.14677860067E+01 -0.31654347239E+02  0.35451917889E+01  0.59301945372E+02  0.50000002452E+02 0.  0.
        -12    1    1    2    0    0  0.14677860067E+01  0.31654347239E+02 -0.35451917889E+01  0.31886054628E+02  0.00000000000E+00 0.  1.
         11    1    3    3    0    0 -0.81580109173E+01 -0.16999200264E+02 -0.55804694313E+01  0.19663865110E+02  0.51100000000E-03 0. -1.
        -11    1    3    3    0    0  0.20844949190E+02 -0.54748241317E+01  0.33796436642E+01  0.21815306497E+02  0.51100000000E-03 0.  1.
        -12    1    3    3    0    0 -0.14154724279E+02 -0.91803228439E+01  0.57460175560E+01  0.17822773765E+02  0.00000000000E+00 0.  1.
</event>
<event>
 7    1  0.1096439E-011  0.5930195E+02  0.7816164E-02  0.1266605E+00
        -11   -1    0    0    0    0  0.00000000000E+00  0.00000000000E+00  0.45593999997E+02  0.45594000000E+02  0.51100000000E-03 0. -1.
         11   -1    0    0    0    0 -0.00000000000E+00 -0.00000000000E+00 -0.45593999997E+02  0.45594000000E+02  0.51100000000E-03 0.  1.
    9900012    2    1    2    0    0  0.77774494726E+01  0.20931787583E+02 -0.22761624151E+02  0.59301953119E+02  0.50000016580E+02 0.  0.
        -12    1    1    2    0    0 -0.77774494726E+01 -0.20931787583E+02  0.22761624151E+02  0.31886046881E+02  0.00000000000E+00 0.  1.
         11    1    3    3    0    0  0.14244259535E+02  0.31645288016E+02 -0.39908407544E+01  0.34932076856E+02  0.51100000000E-03 0. -1.
        -11    1    3    3    0    0 -0.57963245511E+00 -0.93628977105E+01 -0.99056785503E+01  0.13642664517E+02  0.51100000000E-03 0.  1.
         12    1    3    3    0    0 -0.58871776074E+01 -0.13506027222E+01 -0.88651048465E+01  0.10727211745E+02  0.00000000000E+00 0. -1.
</event>
<event>
 7    1  0.1096439E-011  0.5930191E+02  0.7816164E-02  0.1266605E+00
        -11   -1    0    0    0    0  0.00000000000E+00  0.00000000000E+00  0.45593999997E+02  0.45594000000E+02  0.51100000000E-03 0.  1.
         11   -1    0    0    0    0 -0.00000000000E+00 -0.00000000000E+00 -0.45593999997E+02  0.45594000000E+02  0.51100000000E-03 0. -1.
    9900012    2    1    2    0    0 -0.67514609521E+01  0.25744526199E+01 -0.31056603916E+02  0.59301910900E+02  0.49999939583E+02 0.  0.
        -12    1    1    2    0    0  0.67514609521E+01 -0.25744526199E+01  0.31056603916E+02  0.31886089100E+02  0.00000000000E+00 0.  1.
         11    1    3    3    0    0  0.68092131922E+01 -0.75579185805E+01 -0.25291674803E+02  0.27260893826E+02  0.51100000000E-03 0. -1.
        -11    1    3    3    0    0 -0.11336579455E+02  0.51487332773E+01  0.96086755788E+01  0.15727496137E+02  0.51100000000E-03 0.  1.
        -12    1    3    3    0    0 -0.22240946891E+01  0.49836379231E+01 -0.15373604692E+02  0.16313520937E+02  0.00000000000E+00 0.  1.
</event>
<event>
 7    1  0.1096439E-011  0.5930186E+02  0.7816164E-02  0.1266605E+00
        -11   -1    0    0    0    0  0.00000000000E+00  0.00000000000E+00  0.45593999997E+02  0.45594000000E+02  0.51100000000E-03 0.  1.
         11   -1    0    0    0    0 -0.00000000000E+00 -0.00000000000E+00 -0.45593999997E+02  0.45594000000E+02  0.51100000000E-03 0. -1.
    9900012    2    1    2    0    0  0.27438318610E+02 -0.99976270730E+01 -0.12802817926E+02  0.59301858464E+02  0.49999843951E+02 0.  0.
        -12    1    1    2    0    0 -0.27438318610E+02  0.99976270730E+01  0.12802817926E+02  0.31886141536E+02  0.00000000000E+00 0.  1.
         11    1    3    3    0    0  0.27915169338E+02 -0.52340052896E+01 -0.29692542806E+02  0.41088910780E+02  0.51100000000E-03 0. -1.
        -11    1    3    3    0    0 -0.22580984895E+01 -0.34486505894E+01  0.13862940896E+02  0.14462825803E+02  0.51100000000E-03 0.  1.
         12    1    3    3    0    0  0.17812477620E+01 -0.13149711941E+01  0.30267839845E+01  0.37501218806E+01  0.00000000000E+00 0. -1.
</event>
<event>
 7    1  0.1096439E-011  0.5930195E+02  0.7816164E-02  0.1266605E+00
        -11   -1    0    0    0    0  0.00000000000E+00  0.00000000000E+00  0.45593999997E+02  0.45594000000E+02  0.51100000000E-03 0. -1.
         11   -1    0    0    0    0 -0.00000000000E+00 -0.00000000000E+00 -0.45593999997E+02  0.45594000000E+02  0.51100000000E-03 0.  1.
    9900012    2    1    2    0    0  0.66262812951E+01  0.27681848925E+02  0.14371081262E+02  0.59301947558E+02  0.50000006439E+02 0.  0.
        -12    1    1    2    0    0 -0.66262812951E+01 -0.27681848925E+02 -0.14371081262E+02  0.31886052442E+02  0.00000000000E+00 0.  1.
         11    1    3    3    0    0  0.60267506575E+01  0.51651670438E+01  0.32262477869E+01  0.85679256020E+01  0.51100000000E-03 0. -1.
        -11    1    3    3    0    0  0.91372535218E+01 -0.74306262546E+01 -0.79462528205E+01  0.14207270766E+02  0.51100000000E-03 0.  1.
        -12    1    3    3    0    0 -0.85377228841E+01  0.29947308135E+02  0.19091086296E+02  0.36526751191E+02  0.00000000000E+00 0.  1.
</event>
<event>
 7    1  0.1096439E-011  0.5930197E+02  0.7816164E-02  0.1266605E+00
        -11   -1    0    0    0    0  0.00000000000E+00  0.00000000000E+00  0.45593999997E+02  0.45594000000E+02  0.51100000000E-03 0. -1.
         11   -1    0    0    0    0 -0.00000000000E+00 -0.00000000000E+00 -0.45593999997E+02  0.45594000000E+02  0.51100000000E-03 0.  1.
    9900012    2    1    2    0    0  0.25684773035E+02  0.16368770736E+02 -0.94379267866E+01  0.59301973542E+02  0.50000053826E+02 0.  0.
        -12    1    1    2    0    0 -0.25684773035E+02 -0.16368770736E+02  0.94379267866E+01  0.31886026458E+02  0.00000000000E+00 0.  1.
         11    1    3    3    0    0  0.75997355751E+01  0.12839976361E+01  0.16230821558E+02  0.17967865746E+02  0.51100000000E-03 0. -1.
        -11    1    3    3    0    0  0.18943241200E+02  0.31496781375E+01 -0.21087904436E+02  0.28521335405E+02  0.51100000000E-03 0.  1.
         12    1    3    3    0    0 -0.85820373934E+00  0.11935094962E+02 -0.45808439085E+01  0.12812772391E+02  0.00000000000E+00 0. -1.
</event>
<event>
 7    1  0.1096439E-011  0.5930194E+02  0.7816164E-02  0.1266605E+00
        -11   -1    0    0    0    0  0.00000000000E+00  0.00000000000E+00  0.45593999997E+02  0.45594000000E+02  0.51100000000E-03 0. -1.
         11   -1    0    0    0    0 -0.00000000000E+00 -0.00000000000E+00 -0.45593999997E+02  0.45594000000E+02  0.51100000000E-03 0.  1.
    9900012    2    1    2    0    0 -0.59578273208E+01 -0.30553904092E+02 -0.69053490528E+01  0.59301943374E+02  0.49999998808E+02 0.  0.
        -12    1    1    2    0    0  0.59578273208E+01  0.30553904092E+02  0.69053490528E+01  0.31886056626E+02  0.00000000000E+00 0.  1.
         11    1    3    3    0    0 -0.10335078235E+02 -0.86835042508E+01  0.11103125700E+02  0.17478457849E+02  0.51100000000E-03 0. -1.
        -11    1    3    3    0    0 -0.78506264015E+01 -0.14840531338E+02 -0.21514105302E+02  0.27289749586E+02  0.51100000000E-03 0.  1.
        -12    1    3    3    0    0  0.12227877315E+02 -0.70298685024E+01  0.35056305488E+01  0.14533735939E+02  0.00000000000E+00 0.  1.
</event>
<event>
 7    1  0.1096439E-011  0.5930194E+02  0.7816164E-02  0.1266605E+00
        -11   -1    0    0    0    0  0.00000000000E+00  0.00000000000E+00  0.45593999997E+02  0.45594000000E+02  0.51100000000E-03 0.  1.
         11   -1    0    0    0    0 -0.00000000000E+00 -0.00000000000E+00 -0.45593999997E+02  0.45594000000E+02  0.51100000000E-03 0. -1.
    9900012    2    1    2    0    0 -0.27570015221E+02 -0.15321091741E+02 -0.46774927009E+01  0.59301944594E+02  0.50000001032E+02 0.  0.
        -12    1    1    2    0    0  0.27570015221E+02  0.15321091741E+02  0.46774927009E+01  0.31886055406E+02  0.00000000000E+00 0.  1.
         11    1    3    3    0    0 -0.22854273413E+02 -0.18844122513E+02 -0.11192122599E+02  0.31665160272E+02  0.51100000000E-03 0. -1.
        -11    1    3    3    0    0 -0.12632953902E+02  0.75568708835E+01  0.10312595865E+02  0.17973520956E+02  0.51100000000E-03 0.  1.
         12    1    3    3    0    0  0.79172120938E+01 -0.40338401116E+01 -0.37979659668E+01  0.96632633654E+01  0.00000000000E+00 0. -1.
</event>
<event>
 7    1  0.1096439E-011  0.5930195E+02  0.7816164E-02  0.1266605E+00
        -11   -1    0    0    0    0  0.00000000000E+00  0.00000000000E+00  0.45593999997E+02  0.45594000000E+02  0.51100000000E-03 0. -1.
         11   -1    0    0    0    0 -0.00000000000E+00 -0.00000000000E+00 -0.45593999997E+02  0.45594000000E+02  0.51100000000E-03 0.  1.
    9900012    2    1    2    0    0 -0.21933734437E+02  0.46179385364E+01  0.22678322347E+02  0.59301947138E+02  0.50000005672E+02 0.  0.
        -12    1    1    2    0    0  0.21933734437E+02 -0.46179385364E+01 -0.22678322347E+02  0.31886052862E+02  0.00000000000E+00 0.  1.
         11    1    3    3    0    0 -0.35105709253E+02 -0.81282703270E+01  0.17681413681E+02  0.40138659553E+02  0.51100000000E-03 0. -1.
        -11    1    3    3    0    0  0.10062093134E+02  0.11088583128E+02  0.39117383828E+01  0.15475919728E+02  0.51100000000E-03 0.  1.
         12    1    3    3    0    0  0.31098816829E+01  0.16576257359E+01  0.10851702829E+01  0.36873678560E+01  0.00000000000E+00 0. -1.
</event>
<event>
 7    1  0.1096439E-011  0.5930195E+02  0.7816164E-02  0.1266605E+00
        -11   -1    0    0    0    0  0.00000000000E+00  0.00000000000E+00  0.45593999997E+02  0.45594000000E+02  0.51100000000E-03 0.  1.
         11   -1    0    0    0    0 -0.00000000000E+00 -0.00000000000E+00 -0.45593999997E+02  0.45594000000E+02  0.51100000000E-03 0. -1.
    9900012    2    1    2    0    0 -0.22795790954E+02 -0.21307079690E+02 -0.65635664672E+01  0.59301950779E+02  0.50000012313E+02 0.  0.
        -12    1    1    2    0    0  0.22795790954E+02  0.21307079690E+02  0.65635664672E+01  0.31886049221E+02  0.00000000000E+00 0.  1.
         11    1    3    3    0    0 -0.32208205490E+02 -0.23433395223E+02 -0.15557690849E+02  0.42761364073E+02  0.51100000000E-03 0. -1.
        -11    1    3    3    0    0  0.92126896490E+01  0.47650525842E+01  0.92294222794E+01  0.13883861587E+02  0.51100000000E-03 0.  1.
         12    1    3    3    0    0  0.19972488707E+00 -0.26387370512E+01 -0.23529789757E+00  0.26567251187E+01  0.00000000000E+00 0. -1.
</event>
<event>
 7    1  0.1096439E-011  0.5930198E+02  0.7816164E-02  0.1266605E+00
        -11   -1    0    0    0    0  0.00000000000E+00  0.00000000000E+00  0.45593999997E+02  0.45594000000E+02  0.51100000000E-03 0. -1.
         11   -1    0    0    0    0 -0.00000000000E+00 -0.00000000000E+00 -0.45593999997E+02  0.45594000000E+02  0.51100000000E-03 0.  1.
    9900012    2    1    2    0    0 -0.18655934736E+02 -0.10560117635E+02  0.23604204251E+02  0.59301977299E+02  0.50000060679E+02 0.  0.
        -12    1    1    2    0    0  0.18655934736E+02  0.10560117635E+02 -0.23604204251E+02  0.31886022701E+02  0.00000000000E+00 0.  1.
         11    1    3    3    0    0  0.21880762542E+01  0.60343336574E+01  0.13729384597E+02  0.15155753431E+02  0.51100000000E-03 0. -1.
        -11    1    3    3    0    0 -0.16237626731E+02 -0.28871481810E+01 -0.10210293803E+02  0.19397067981E+02  0.51100000000E-03 0.  1.
         12    1    3    3    0    0 -0.46063842593E+01 -0.13707303112E+02  0.20085113457E+02  0.24749155887E+02  0.00000000000E+00 0. -1.
</event>
<event>
 7    1  0.1096439E-011  0.5930196E+02  0.7816164E-02  0.1266605E+00
        -11   -1    0    0    0    0  0.00000000000E+00  0.00000000000E+00  0.45593999997E+02  0.45594000000E+02  0.51100000000E-03 0. -1.
         11   -1    0    0    0    0 -0.00000000000E+00 -0.00000000000E+00 -0.45593999997E+02  0.45594000000E+02  0.51100000000E-03 0.  1.
    9900012    2    1    2    0    0 -0.23975001469E+02 -0.84389510657E+00 -0.21004923470E+02  0.59301958158E+02  0.50000025770E+02 0.  0.
        -12    1    1    2    0    0  0.23975001469E+02  0.84389510657E+00  0.21004923470E+02  0.31886041842E+02  0.00000000000E+00 0.  1.
         11    1    3    3    0    0  0.79885198145E+01 -0.29548577594E+01  0.11637630454E+01  0.85966259598E+01  0.51100000000E-03 0. -1.
        -11    1    3    3    0    0 -0.22008424975E+02 -0.13229788695E+02 -0.61757169653E+01  0.26410936354E+02  0.51100000000E-03 0.  1.
        -12    1    3    3    0    0 -0.99550963084E+01  0.15340751347E+02 -0.15992969550E+02  0.24294395844E+02  0.00000000000E+00 0.  1.
</event>
<event>
 7    1  0.1096439E-011  0.5930191E+02  0.7816164E-02  0.1266605E+00
        -11   -1    0    0    0    0  0.00000000000E+00  0.00000000000E+00  0.45593999997E+02  0.45594000000E+02  0.51100000000E-03 0.  1.
         11   -1    0    0    0    0 -0.00000000000E+00 -0.00000000000E+00 -0.45593999997E+02  0.45594000000E+02  0.51100000000E-03 0. -1.
    9900012    2    1    2    0    0  0.31508940931E+02  0.47952709295E+01 -0.95630209733E+00  0.59301913762E+02  0.49999944802E+02 0.  0.
        -12    1    1    2    0    0 -0.31508940931E+02 -0.47952709295E+01  0.95630209733E+00  0.31886086238E+02  0.00000000000E+00 0.  1.
         11    1    3    3    0    0  0.17534078957E+02 -0.37940635551E+01 -0.56827327161E+01  0.18818403081E+02  0.51100000000E-03 0. -1.
        -11    1    3    3    0    0 -0.12205037174E+02  0.43768698432E+01  0.51811931314E+01  0.13962975492E+02  0.51100000000E-03 0.  1.
        -12    1    3    3    0    0  0.26179899148E+02  0.42124646414E+01 -0.45476251269E+00  0.26520535189E+02  0.00000000000E+00 0.  1.
</event>
<event>
 7    1  0.1199171E-011  0.5930209E+02  0.7816164E-02  0.1266604E+00
        -11   -1    0    0    0    0  0.00000000000E+00  0.00000000000E+00  0.45593999997E+02  0.45594000000E+02  0.51100000000E-03 0. -1.
         11   -1    0    0    0    0 -0.00000000000E+00 -0.00000000000E+00 -0.45593999997E+02  0.45594000000E+02  0.51100000000E-03 0.  1.
    9900012    2    1    2    0    0 -0.11739851468E+02  0.23244326109E+02  0.18400780573E+02  0.59302085642E+02  0.50000258269E+02 0.  0.
        -12    1    1    2    0    0  0.11739851468E+02 -0.23244326109E+02 -0.18400780573E+02  0.31885914358E+02  0.00000000000E+00 0.  1.
         11    1    3    3    0    0  0.31012767206E+01  0.26459216852E+02  0.13421561796E+02  0.29830293244E+02  0.51100000000E-03 0. -1.
        -11    1    3    3    0    0 -0.54962328869E+01 -0.58618779485E+01  0.14047840497E+02  0.16183695868E+02  0.51100000000E-03 0.  1.
        -12    1    3    3    0    0 -0.93448953017E+01  0.26469872057E+01 -0.90686217207E+01  0.13288096530E+02  0.00000000000E+00 0.  1.
</event>
<event>
 7    1  0.1096439E-011  0.5930194E+02  0.7816164E-02  0.1266605E+00
        -11   -1    0    0    0    0  0.00000000000E+00  0.00000000000E+00  0.45593999997E+02  0.45594000000E+02  0.51100000000E-03 0.  1.
         11   -1    0    0    0    0 -0.00000000000E+00 -0.00000000000E+00 -0.45593999997E+02  0.45594000000E+02  0.51100000000E-03 0. -1.
    9900012    2    1    2    0    0  0.23057894382E+02  0.83632632217E+01 -0.20374254954E+02  0.59301938312E+02  0.49999989576E+02 0.  0.
        -12    1    1    2    0    0 -0.23057894382E+02 -0.83632632217E+01  0.20374254954E+02  0.31886061688E+02  0.00000000000E+00 0.  1.
         11    1    3    3    0    0 -0.85734514372E+01 -0.10310297852E+02  0.23316900929E+01  0.13610403752E+02  0.51100000000E-03 0. -1.
        -11    1    3    3    0    0  0.17467279135E+02  0.18021698525E+01 -0.11341366145E+02  0.20904072399E+02  0.51100000000E-03 0.  1.
         12    1    3    3    0    0  0.14164066685E+02  0.16871391221E+02 -0.11364578901E+02  0.24787462161E+02  0.00000000000E+00 0. -1.
</event>
<event>
 7    1  0.1096439E-011  0.5930201E+02  0.7816164E-02  0.1266605E+00
        -11   -1    0    0    0    0  0.00000000000E+00  0.00000000000E+00  0.45593999997E+02  0.45594000000E+02  0.51100000000E-03 0.  1.
         11   -1    0    0    0    0 -0.00000000000E+00 -0.00000000000E+00 -0.45593999997E+02  0.45594000000E+02  0.51100000000E-03 0. -1.
    9900012    2    1    2    0    0  0.96005756374E+01  0.53964955876E+01 -0.29923620681E+02  0.59302011042E+02  0.50000122217E+02 0.  0.
        -12    1    1    2    0    0 -0.96005756374E+01 -0.53964955876E+01  0.29923620681E+02  0.31885988958E+02  0.00000000000E+00 0.  1.
         11    1    3    3    0    0 -0.50574445849E+01 -0.16046844035E+02 -0.17810906993E+02  0.24501170531E+02  0.51100000000E-03 0. -1.
        -11    1    3    3    0    0  0.16292874423E+02  0.22541981975E+02 -0.14770820668E+02  0.31492472939E+02  0.51100000000E-03 0.  1.
        -12    1    3    3    0    0 -0.16348542008E+01 -0.10986423527E+01  0.26581069801E+01  0.33083675724E+01  0.00000000000E+00 0.  1.
</event>
<event>
 7    1  0.1096439E-011  0.5930203E+02  0.7816164E-02  0.1266604E+00
        -11   -1    0    0    0    0  0.00000000000E+00  0.00000000000E+00  0.45593999997E+02  0.45594000000E+02  0.51100000000E-03 0. -1.
         11   -1    0    0    0    0 -0.00000000000E+00 -0.00000000000E+00 -0.45593999997E+02  0.45594000000E+02  0.51100000000E-03 0.  1.
    9900012    2    1    2    0    0 -0.94484097566E+01 -0.17207680430E+02  0.25126442488E+02  0.59302034046E+02  0.50000164171E+02 0.  0.
        -12    1    1    2    0    0  0.94484097566E+01  0.17207680430E+02 -0.25126442488E+02  0.31885965954E+02  0.00000000000E+00 0.  1.
         11    1    3    3    0    0 -0.12338987095E+02 -0.20417163675E+02  0.80300678371E+01  0.25171276582E+02  0.51100000000E-03 0. -1.
        -11    1    3    3    0    0 -0.19674919209E+01  0.13931453404E+02  0.17373734932E+02  0.22356276169E+02  0.51100000000E-03 0.  1.
        -12    1    3    3    0    0  0.48580692592E+01 -0.10721970160E+02 -0.27736028051E+00  0.11774481294E+02  0.00000000000E+00 0.  1.
</event>
<event>
 7    1  0.1096439E-011  0.5930194E+02  0.7816164E-02  0.1266605E+00
        -11   -1    0    0    0    0  0.00000000000E+00  0.00000000000E+00  0.45593999997E+02  0.45594000000E+02  0.51100000000E-03 0.  1.
         11   -1    0    0    0    0 -0.00000000000E+00 -0.00000000000E+00 -0.45593999997E+02  0.45594000000E+02  0.51100000000E-03 0. -1.
    9900012    2    1    2    0    0  0.93365936933E+01  0.23234817040E+02 -0.19740621430E+02  0.59301939737E+02  0.49999992175E+02 0.  0.
        -12    1    1    2    0    0 -0.93365936933E+01 -0.23234817040E+02  0.19740621430E+02  0.31886060263E+02  0.00000000000E+00 0.  1.
         11    1    3    3    0    0  0.13927730499E+02 -0.13966426787E+01  0.77663563767E+01  0.16007766217E+02  0.51100000000E-03 0.  1.
        -11    1    3    3    0    0 -0.65240297931E+01 -0.23148949424E+00 -0.12731677961E+02  0.14307766286E+02  0.51100000000E-03 0. -1.
         12    1    3    3    0    0  0.19328929876E+01  0.24862949212E+02 -0.14775299846E+02  0.28986407235E+02  0.00000000000E+00 0. -1.
</event>
<event>
 7    1  0.1096439E-011  0.5930196E+02  0.7816164E-02  0.1266605E+00
        -11   -1    0    0    0    0  0.00000000000E+00  0.00000000000E+00  0.45593999997E+02  0.45594000000E+02  0.51100000000E-03 0.  1.
         11   -1    0    0    0    0 -0.00000000000E+00 -0.00000000000E+00 -0.45593999997E+02  0.45594000000E+02  0.51100000000E-03 0. -1.
    9900012    2    1    2    0    0  0.26133083153E+02  0.17284654935E+02 -0.59179477061E+01  0.59301961734E+02  0.50000032291E+02 0.  0.
        -12    1    1    2    0    0 -0.26133083153E+02 -0.17284654935E+02  0.59179477061E+01  0.31886038266E+02  0.00000000000E+00 0.  1.
         11    1    3    3    0    0  0.16774555771E+02 -0.18673873471E+01  0.16069185818E+02  0.23304325563E+02  0.51100000000E-03 0.  1.
        -11    1    3    3    0    0 -0.24181312658E+01  0.16168092786E+02 -0.12253051095E+02  0.20430169959E+02  0.51100000000E-03 0. -1.
         12    1    3    3    0    0  0.11776658648E+02  0.29839494952E+01 -0.97340824295E+01  0.15567466211E+02  0.00000000000E+00 0. -1.
</event>
<event>
 7    1  0.1096439E-011  0.5930194E+02  0.7816164E-02  0.1266605E+00
        -11   -1    0    0    0    0  0.00000000000E+00  0.00000000000E+00  0.45593999997E+02  0.45594000000E+02  0.51100000000E-03 0. -1.
         11   -1    0    0    0    0 -0.00000000000E+00 -0.00000000000E+00 -0.45593999997E+02  0.45594000000E+02  0.51100000000E-03 0.  1.
    9900012    2    1    2    0    0 -0.27505631602E+02  0.16431417346E+01  0.16045586503E+02  0.59301944572E+02  0.50000000992E+02 0.  0.
        -12    1    1    2    0    0  0.27505631602E+02 -0.16431417346E+01 -0.16045586503E+02  0.31886055428E+02  0.00000000000E+00 0.  1.
         11    1    3    3    0    0 -0.21560111859E+02  0.20180288810E+02  0.95701308417E+01  0.31043032784E+02  0.51100000000E-03 0. -1.
        -11    1    3    3    0    0  0.37780233755E+01 -0.54360861336E+01 -0.50137014083E+01  0.83043178619E+01  0.51100000000E-03 0.  1.
         12    1    3    3    0    0 -0.97235431181E+01 -0.13101060942E+02  0.11489157069E+02  0.19954593926E+02  0.00000000000E+00 0. -1.
</event>
<event>
 7    1  0.1096439E-011  0.5930195E+02  0.7816164E-02  0.1266605E+00
        -11   -1    0    0    0    0  0.00000000000E+00  0.00000000000E+00  0.45593999997E+02  0.45594000000E+02  0.51100000000E-03 0. -1.
         11   -1    0    0    0    0 -0.00000000000E+00 -0.00000000000E+00 -0.45593999997E+02  0.45594000000E+02  0.51100000000E-03 0.  1.
    9900012    2    1    2    0    0  0.76349475028E+00  0.25957407298E+01  0.31771044490E+02  0.59301951920E+02  0.50000014394E+02 0.  0.
        -12    1    1    2    0    0 -0.76349475028E+00 -0.25957407298E+01 -0.31771044490E+02  0.31886048080E+02  0.00000000000E+00 0.  1.
         11    1    3    3    0    0 -0.13794549937E+02 -0.11967032711E+02  0.14097367968E+02  0.23070224614E+02  0.51100000000E-03 0. -1.
        -11    1    3    3    0    0  0.12771500870E+02  0.12470289166E+02  0.23663114180E+02  0.29640551940E+02  0.51100000000E-03 0.  1.
         12    1    3    3    0    0  0.17865438170E+01  0.20924842753E+01 -0.59894376573E+01  0.65911753659E+01  0.00000000000E+00 0. -1.
</event>
<event>
 7    1  0.1096439E-011  0.5930199E+02  0.7816164E-02  0.1266605E+00
        -11   -1    0    0    0    0  0.00000000000E+00  0.00000000000E+00  0.45593999997E+02  0.45594000000E+02  0.51100000000E-03 0. -1.
         11   -1    0    0    0    0 -0.00000000000E+00 -0.00000000000E+00 -0.45593999997E+02  0.45594000000E+02  0.51100000000E-03 0.  1.
    9900012    2    1    2    0    0 -0.10055055071E+02 -0.28489483590E+02 -0.10196213051E+02  0.59301991026E+02  0.50000085714E+02 0.  0.
        -12    1    1    2    0    0  0.10055055071E+02  0.28489483590E+02  0.10196213051E+02  0.31886008974E+02  0.00000000000E+00 0.  1.
         11    1    3    3    0    0 -0.11497313752E+02 -0.27220467725E+02  0.60721205420E+01  0.30166417335E+02  0.51100000000E-03 0. -1.
        -11    1    3    3    0    0 -0.10131385836E+02 -0.53431495075E+01 -0.10651522410E+02  0.15641264512E+02  0.51100000000E-03 0.  1.
        -12    1    3    3    0    0  0.11573644518E+02  0.40741336424E+01 -0.56168111826E+01  0.13494309179E+02  0.00000000000E+00 0.  1.
</event>
<event>
 7    1  0.1096439E-011  0.5930196E+02  0.7816164E-02  0.1266605E+00
        -11   -1    0    0    0    0  0.00000000000E+00  0.00000000000E+00  0.45593999997E+02  0.45594000000E+02  0.51100000000E-03 0. -1.
         11   -1    0    0    0    0 -0.00000000000E+00 -0.00000000000E+00 -0.45593999997E+02  0.45594000000E+02  0.51100000000E-03 0.  1.
    9900012    2    1    2    0    0  0.28540536984E+02 -0.29316088826E+01  0.13912695310E+02  0.59301958026E+02  0.50000025530E+02 0.  0.
        -12    1    1    2    0    0 -0.28540536984E+02  0.29316088826E+01 -0.13912695310E+02  0.31886041974E+02  0.00000000000E+00 0.  1.
         11    1    3    3    0    0  0.19051241950E+02 -0.12454439802E+02  0.19197168983E+01  0.22841808243E+02  0.51100000000E-03 0. -1.
        -11    1    3    3    0    0 -0.10495620736E+02  0.17724423035E+00  0.96766016440E+01  0.14276767484E+02  0.51100000000E-03 0.  1.
        -12    1    3    3    0    0  0.19984915770E+02  0.93455866887E+01  0.23163767681E+01  0.22183382299E+02  0.00000000000E+00 0.  1.
</event>
<event>
 7    1  0.1096439E-011  0.5930199E+02  0.7816164E-02  0.1266605E+00
        -11   -1    0    0    0    0  0.00000000000E+00  0.00000000000E+00  0.45593999997E+02  0.45594000000E+02  0.51100000000E-03 0.  1.
         11   -1    0    0    0    0 -0.00000000000E+00 -0.00000000000E+00 -0.45593999997E+02  0.45594000000E+02  0.51100000000E-03 0. -1.
    9900012    2    1    2    0    0  0.30104399148E+02 -0.72559373863E+00 -0.10484087693E+02  0.59301993208E+02  0.50000089693E+02 0.  0.
        -12    1    1    2    0    0 -0.30104399148E+02  0.72559373863E+00  0.10484087693E+02  0.31886006792E+02  0.00000000000E+00 0.  1.
         11    1    3    3    0    0  0.15360171773E+02  0.10769228848E+02 -0.83721690090E+01  0.20542745217E+02  0.51100000000E-03 0. -1.
        -11    1    3    3    0    0  0.11245974096E+02 -0.15261511052E+02  0.12874358932E+02  0.22915819233E+02  0.51100000000E-03 0.  1.
        -12    1    3    3    0    0  0.34982532791E+01  0.37666884647E+01 -0.14986277617E+02  0.15843428758E+02  0.00000000000E+00 0.  1.
</event>
<event>
 7    1  0.1096439E-011  0.5930195E+02  0.7816164E-02  0.1266605E+00
        -11   -1    0    0    0    0  0.00000000000E+00  0.00000000000E+00  0.45593999997E+02  0.45594000000E+02  0.51100000000E-03 0.  1.
         11   -1    0    0    0    0 -0.00000000000E+00 -0.00000000000E+00 -0.45593999997E+02  0.45594000000E+02  0.51100000000E-03 0. -1.
    9900012    2    1    2    0    0 -0.11064534114E+02 -0.16402864171E+02 -0.25004847706E+02  0.59301948552E+02  0.50000008251E+02 0.  0.
        -12    1    1    2    0    0  0.11064534114E+02  0.16402864171E+02  0.25004847706E+02  0.31886051448E+02  0.00000000000E+00 0.  1.
         11    1    3    3    0    0  0.46769787150E+01  0.71960241510E+01 -0.51569517888E+01  0.10012544407E+02  0.51100000000E-03 0. -1.
        -11    1    3    3    0    0 -0.20923772322E+02 -0.95554434639E+01  0.16856380627E+01  0.23064087320E+02  0.51100000000E-03 0.  1.
        -12    1    3    3    0    0  0.51822594928E+01 -0.14043444858E+02 -0.21533533980E+02  0.26225316825E+02  0.00000000000E+00 0.  1.
</event>
<event>
 7    1  0.1096439E-011  0.5930198E+02  0.7816164E-02  0.1266605E+00
        -11   -1    0    0    0    0  0.00000000000E+00  0.00000000000E+00  0.45593999997E+02  0.45594000000E+02  0.51100000000E-03 0. -1.
         11   -1    0    0    0    0 -0.00000000000E+00 -0.00000000000E+00 -0.45593999997E+02  0.45594000000E+02  0.51100000000E-03 0.  1.
    9900012    2    1    2    0    0 -0.18983102137E+02  0.19948600775E+02  0.16075246980E+02  0.59301977904E+02  0.50000061783E+02 0.  0.
        -12    1    1    2    0    0  0.18983102137E+02 -0.19948600775E+02 -0.16075246980E+02  0.31886022096E+02  0.00000000000E+00 0.  1.
         11    1    3    3    0    0 -0.89093411933E+01 -0.52774081467E+01  0.13353276992E+02  0.16897852051E+02  0.51100000000E-03 0. -1.
        -11    1    3    3    0    0 -0.18503780500E+02  0.16500245026E+02 -0.81658915590E+01  0.26102294227E+02  0.51100000000E-03 0.  1.
        -12    1    3    3    0    0  0.84300195570E+01  0.87257638960E+01  0.10887861547E+02  0.16301831626E+02  0.00000000000E+00 0.  1.
</event>
<event>
 7    1  0.1096439E-011  0.5930197E+02  0.7816164E-02  0.1266605E+00
        -11   -1    0    0    0    0  0.00000000000E+00  0.00000000000E+00  0.45593999997E+02  0.45594000000E+02  0.51100000000E-03 0.  1.
         11   -1    0    0    0    0 -0.00000000000E+00 -0.00000000000E+00 -0.45593999997E+02  0.45594000000E+02  0.51100000000E-03 0. -1.
    9900012    2    1    2    0    0 -0.30796607601E+02  0.21870226822E+01 -0.79690011169E+01  0.59301967215E+02  0.50000042288E+02 0.  0.
        -12    1    1    2    0    0  0.30796607601E+02 -0.21870226822E+01  0.79690011169E+01  0.31886032785E+02  0.00000000000E+00 0.  1.
         11    1    3    3    0    0 -0.34947601101E+02  0.11633532114E+02  0.64688888023E+01  0.37396796852E+02  0.51100000000E-03 0. -1.
        -11    1    3    3    0    0  0.36958095659E+01 -0.45511381607E+01  0.77850880583E+00  0.59142153433E+01  0.51100000000E-03 0.  1.
         12    1    3    3    0    0  0.45518393389E+00 -0.48953712709E+01 -0.15216398725E+02  0.15990955020E+02  0.00000000000E+00 0. -1.
</event>
<event>
 7    1  0.1096439E-011  0.5930194E+02  0.7816164E-02  0.1266605E+00
        -11   -1    0    0    0    0  0.00000000000E+00  0.00000000000E+00  0.45593999997E+02  0.45594000000E+02  0.51100000000E-03 0.  1.
         11   -1    0    0    0    0 -0.00000000000E+00 -0.00000000000E+00 -0.45593999997E+02  0.45594000000E+02  0.51100000000E-03 0. -1.
    9900012    2    1    2    0    0 -0.25042412184E+01  0.22334568885E+02 -0.22618940976E+02  0.59301942197E+02  0.49999996661E+02 0.  0.
        -12    1    1    2    0    0  0.25042412184E+01 -0.22334568885E+02  0.22618940976E+02  0.31886057803E+02  0.00000000000E+00 0.  1.
         11    1    3    3    0    0 -0.12504865355E+02 -0.31537993106E+01 -0.14284222208E+00  0.12897228842E+02  0.51100000000E-03 0. -1.
        -11    1    3    3    0    0  0.18713706685E+02  0.19081483816E+02 -0.71849067761E+01  0.27675417398E+02  0.51100000000E-03 0.  1.
         12    1    3    3    0    0 -0.87130825481E+01  0.64068843795E+01 -0.15291191978E+02  0.18729295957E+02  0.00000000000E+00 0. -1.
</event>
<event>
 7    1  0.1096439E-011  0.5930192E+02  0.7816164E-02  0.1266605E+00
        -11   -1    0    0    0    0  0.00000000000E+00  0.00000000000E+00  0.45593999997E+02  0.45594000000E+02  0.51100000000E-03 0. -1.
         11   -1    0    0    0    0 -0.00000000000E+00 -0.00000000000E+00 -0.45593999997E+02  0.45594000000E+02  0.51100000000E-03 0.  1.
    9900012    2    1    2    0    0 -0.72087038874E+01 -0.27534598136E+02  0.14373684857E+02  0.59301916474E+02  0.49999949749E+02 0.  0.
        -12    1    1    2    0    0  0.72087038874E+01  0.27534598136E+02 -0.14373684857E+02  0.31886083526E+02  0.00000000000E+00 0.  1.
         11    1    3    3    0    0 -0.25131629684E+02 -0.40929988941E+01  0.78853984847E+01  0.26655786615E+02  0.51100000000E-03 0.  1.
        -11    1    3    3    0    0  0.17528988202E+02 -0.21875738222E+02  0.22638413917E+01  0.28123625802E+02  0.51100000000E-03 0. -1.
         12    1    3    3    0    0  0.39393759472E+00 -0.15658610201E+01  0.42244449806E+01  0.45225040582E+01  0.00000000000E+00 0. -1.
</event>
<event>
 7    1  0.1096439E-011  0.5930197E+02  0.7816164E-02  0.1266605E+00
        -11   -1    0    0    0    0  0.00000000000E+00  0.00000000000E+00  0.45593999997E+02  0.45594000000E+02  0.51100000000E-03 0. -1.
         11   -1    0    0    0    0 -0.00000000000E+00 -0.00000000000E+00 -0.45593999997E+02  0.45594000000E+02  0.51100000000E-03 0.  1.
    9900012    2    1    2    0    0 -0.18037004126E+02  0.26226074896E+02 -0.18916169989E+01  0.59301972698E+02  0.50000052287E+02 0.  0.
        -12    1    1    2    0    0  0.18037004126E+02 -0.26226074896E+02  0.18916169989E+01  0.31886027302E+02  0.00000000000E+00 0.  1.
         11    1    3    3    0    0 -0.21280547293E+01  0.30727425347E+02 -0.41116260722E+00  0.30803771527E+02  0.51100000000E-03 0. -1.
        -11    1    3    3    0    0 -0.15077651386E+02 -0.49189720754E+01  0.88257538437E+01  0.18150090599E+02  0.51100000000E-03 0.  1.
         12    1    3    3    0    0 -0.83129801064E+00  0.41762162441E+00 -0.10306208235E+02  0.10348110571E+02  0.00000000000E+00 0. -1.
</event>
<event>
 7    1  0.1096439E-011  0.5930193E+02  0.7816164E-02  0.1266605E+00
        -11   -1    0    0    0    0  0.00000000000E+00  0.00000000000E+00  0.45593999997E+02  0.45594000000E+02  0.51100000000E-03 0.  1.
         11   -1    0    0    0    0 -0.00000000000E+00 -0.00000000000E+00 -0.45593999997E+02  0.45594000000E+02  0.51100000000E-03 0. -1.
    9900012    2    1    2    0    0 -0.62356748648E+01  0.11490204879E+02 -0.29082867623E+02  0.59301927204E+02  0.49999969318E+02 0.  0.
        -12    1    1    2    0    0  0.62356748648E+01 -0.11490204879E+02  0.29082867623E+02  0.31886072796E+02  0.00000000000E+00 0.  1.
         11    1    3    3    0    0  0.15561419667E+02  0.35143600629E+01  0.11725088467E+01  0.15996352270E+02  0.51100000000E-03 0. -1.
        -11    1    3    3    0    0 -0.18385445820E+02 -0.24636286292E+01 -0.12298773018E+02  0.22256547397E+02  0.51100000000E-03 0.  1.
         12    1    3    3    0    0 -0.34116487112E+01  0.10439473446E+02 -0.17956603451E+02  0.21049027537E+02  0.00000000000E+00 0. -1.
</event>
<event>
 7    1  0.1096439E-011  0.5930196E+02  0.7816164E-02  0.1266605E+00
        -11   -1    0    0    0    0  0.00000000000E+00  0.00000000000E+00  0.45593999997E+02  0.45594000000E+02  0.51100000000E-03 0. -1.
         11   -1    0    0    0    0 -0.00000000000E+00 -0.00000000000E+00 -0.45593999997E+02  0.45594000000E+02  0.51100000000E-03 0.  1.
    9900012    2    1    2    0    0  0.35531769146E+01  0.31267369547E+02  0.51425509643E+01  0.59301963949E+02  0.50000036332E+02 0.  0.
        -12    1    1    2    0    0 -0.35531769146E+01 -0.31267369547E+02 -0.51425509643E+01  0.31886036051E+02  0.00000000000E+00 0.  1.
         11    1    3    3    0    0  0.12311953516E+02  0.39955570015E+02  0.10445212342E+01  0.41822515461E+02  0.51100000000E-03 0. -1.
        -11    1    3    3    0    0 -0.19062396631E+00 -0.71871011961E+01 -0.12077203856E+01  0.72903600659E+01  0.51100000000E-03 0.  1.
         12    1    3    3    0    0 -0.85681526352E+01 -0.15010992711E+01  0.53057501156E+01  0.10189088423E+02  0.00000000000E+00 0. -1.
</event>
<event>
 7    1  0.1096439E-011  0.5930194E+02  0.7816164E-02  0.1266605E+00
        -11   -1    0    0    0    0  0.00000000000E+00  0.00000000000E+00  0.45593999997E+02  0.45594000000E+02  0.51100000000E-03 0.  1.
         11   -1    0    0    0    0 -0.00000000000E+00 -0.00000000000E+00 -0.45593999997E+02  0.45594000000E+02  0.51100000000E-03 0. -1.
    9900012    2    1    2    0    0  0.43212636999E+01 -0.30709002870E+02  0.74165258736E+01  0.59301936692E+02  0.49999986621E+02 0.  0.
        -12    1    1    2    0    0 -0.43212636999E+01  0.30709002870E+02 -0.74165258736E+01  0.31886063308E+02  0.00000000000E+00 0.  1.
         11    1    3    3    0    0  0.22301886896E+02 -0.22824920764E+02 -0.78871526896E+00  0.31921360232E+02  0.51100000000E-03 0. -1.
        -11    1    3    3    0    0 -0.36780461822E+01  0.54395138498E+01  0.17529288780E+01  0.67962559217E+01  0.51100000000E-03 0.  1.
         12    1    3    3    0    0 -0.14302577014E+02 -0.13323595956E+02  0.64523122645E+01  0.20584320538E+02  0.00000000000E+00 0. -1.
</event>
<event>
 7    1  0.1096439E-011  0.5930194E+02  0.7816164E-02  0.1266605E+00
        -11   -1    0    0    0    0  0.00000000000E+00  0.00000000000E+00  0.45593999997E+02  0.45594000000E+02  0.51100000000E-03 0.  1.
         11   -1    0    0    0    0 -0.00000000000E+00 -0.00000000000E+00 -0.45593999997E+02  0.45594000000E+02  0.51100000000E-03 0. -1.
    9900012    2    1    2    0    0  0.97442321707E+01  0.13169554052E+02 -0.27355683639E+02  0.59301942830E+02  0.49999997816E+02 0.  0.
        -12    1    1    2    0    0 -0.97442321707E+01 -0.13169554052E+02  0.27355683639E+02  0.31886057170E+02  0.00000000000E+00 0.  1.
         11    1    3    3    0    0  0.17269794354E+02  0.19350887926E+02 -0.14381061078E+02  0.29656661621E+02  0.51100000000E-03 0. -1.
        -11    1    3    3    0    0  0.40043389806E+01 -0.99091729246E+01  0.14730364864E+01  0.10788710557E+02  0.51100000000E-03 0.  1.
         12    1    3    3    0    0 -0.11529901163E+02  0.37278390505E+01 -0.14447659047E+02  0.18856570653E+02  0.00000000000E+00 0. -1.
</event>
<event>
 7    1  0.1096439E-011  0.5930194E+02  0.7816164E-02  0.1266605E+00
        -11   -1    0    0    0    0  0.00000000000E+00  0.00000000000E+00  0.45593999997E+02  0.45594000000E+02  0.51100000000E-03 0. -1.
         11   -1    0    0    0    0 -0.00000000000E+00 -0.00000000000E+00 -0.45593999997E+02  0.45594000000E+02  0.51100000000E-03 0.  1.
    9900012    2    1    2    0    0  0.49362091625E+01 -0.68356080783E+01  0.30751081842E+02  0.59301941398E+02  0.49999995204E+02 0.  0.
        -12    1    1    2    0    0 -0.49362091625E+01  0.68356080783E+01 -0.30751081842E+02  0.31886058602E+02  0.00000000000E+00 0.  1.
         11    1    3    3    0    0 -0.84490038900E+01 -0.31578729769E+01  0.40214157037E+02  0.41213301917E+02  0.51100000000E-03 0. -1.
        -11    1    3    3    0    0  0.10058733948E+02 -0.44531962311E+01 -0.96979532374E+01  0.14664903087E+02  0.51100000000E-03 0.  1.
         12    1    3    3    0    0  0.33264791048E+01  0.77546112975E+00  0.23487804303E+00  0.34237363937E+01  0.00000000000E+00 0. -1.
</event>
<event>
 7    1  0.1096439E-011  0.5930194E+02  0.7816164E-02  0.1266605E+00
        -11   -1    0    0    0    0  0.00000000000E+00  0.00000000000E+00  0.45593999997E+02  0.45594000000E+02  0.51100000000E-03 0.  1.
         11   -1    0    0    0    0 -0.00000000000E+00 -0.00000000000E+00 -0.45593999997E+02  0.45594000000E+02  0.51100000000E-03 0. -1.
    9900012    2    1    2    0    0  0.92895618133E+01 -0.29263558387E+02 -0.86063202525E+01  0.59301944170E+02  0.50000000259E+02 0.  0.
        -12    1    1    2    0    0 -0.92895618133E+01  0.29263558387E+02  0.86063202525E+01  0.31886055830E+02  0.00000000000E+00 0.  1.
         11    1    3    3    0    0 -0.39730966994E+01 -0.24784135791E+02 -0.19017078505E+02  0.31491080633E+02  0.51100000000E-03 0. -1.
        -11    1    3    3    0    0 -0.33318192606E+01 -0.48062448129E+01  0.95406227409E+01  0.11190374942E+02  0.51100000000E-03 0.  1.
         12    1    3    3    0    0  0.16594477773E+02  0.32682221777E+00  0.87013551129E+00  0.16620488595E+02  0.00000000000E+00 0. -1.
</event>
<event>
 7    1  0.1096439E-011  0.5930194E+02  0.7816164E-02  0.1266605E+00
        -11   -1    0    0    0    0  0.00000000000E+00  0.00000000000E+00  0.45593999997E+02  0.45594000000E+02  0.51100000000E-03 0.  1.
         11   -1    0    0    0    0 -0.00000000000E+00 -0.00000000000E+00 -0.45593999997E+02  0.45594000000E+02  0.51100000000E-03 0. -1.
    9900012    2    1    2    0    0  0.15122766870E+02 -0.68055491531E+01 -0.27234302509E+02  0.59301940189E+02  0.49999993000E+02 0.  0.
        -12    1    1    2    0    0 -0.15122766870E+02  0.68055491531E+01  0.27234302509E+02  0.31886059811E+02  0.00000000000E+00 0.  1.
         11    1    3    3    0    0  0.13916692487E+02  0.22647066268E+01 -0.28907483941E+02  0.32162802334E+02  0.51100000000E-03 0. -1.
        -11    1    3    3    0    0  0.95059128035E+01 -0.10922038594E+02  0.79975687199E+01  0.16541294114E+02  0.51100000000E-03 0.  1.
        -12    1    3    3    0    0 -0.82998384209E+01  0.18517828140E+01 -0.63243872879E+01  0.10597843742E+02  0.00000000000E+00 0.  1.
</event>
<event>
 7    1  0.1096439E-011  0.5930196E+02  0.7816164E-02  0.1266605E+00
        -11   -1    0    0    0    0  0.00000000000E+00  0.00000000000E+00  0.45593999997E+02  0.45594000000E+02  0.51100000000E-03 0.  1.
         11   -1    0    0    0    0 -0.00000000000E+00 -0.00000000000E+00 -0.45593999997E+02  0.45594000000E+02  0.51100000000E-03 0. -1.
    9900012    2    1    2    0    0  0.14867020919E+02 -0.16717527245E+02 -0.22720372866E+02  0.59301962752E+02  0.50000034148E+02 0.  0.
        -12    1    1    2    0    0 -0.14867020919E+02  0.16717527245E+02  0.22720372866E+02  0.31886037248E+02  0.00000000000E+00 0.  1.
         11    1    3    3    0    0  0.14509042301E+02  0.48221709847E+00 -0.14881997115E+02  0.20789869654E+02  0.51100000000E-03 0. -1.
        -11    1    3    3    0    0 -0.29438990290E+01 -0.15537145891E+02  0.11033000364E+02  0.19282026377E+02  0.51100000000E-03 0.  1.
        -12    1    3    3    0    0  0.33018776469E+01 -0.16625984530E+01 -0.18871376115E+02  0.19230066721E+02  0.00000000000E+00 0.  1.
</event>
<event>
 7    1  0.1096439E-011  0.5930187E+02  0.7816164E-02  0.1266605E+00
        -11   -1    0    0    0    0  0.00000000000E+00  0.00000000000E+00  0.45593999997E+02  0.45594000000E+02  0.51100000000E-03 0. -1.
         11   -1    0    0    0    0 -0.00000000000E+00 -0.00000000000E+00 -0.45593999997E+02  0.45594000000E+02  0.51100000000E-03 0.  1.
    9900012    2    1    2    0    0  0.13627167980E+02 -0.45378028257E+01  0.28468121508E+02  0.59301869726E+02  0.49999864492E+02 0.  0.
        -12    1    1    2    0    0 -0.13627167980E+02  0.45378028257E+01 -0.28468121508E+02  0.31886130274E+02  0.00000000000E+00 0.  1.
         11    1    3    3    0    0  0.26205125440E+02  0.88107711615E+01  0.19727840250E+02  0.33963597703E+02  0.51100000000E-03 0. -1.
        -11    1    3    3    0    0 -0.90543055144E+01 -0.40461643624E+01 -0.26009998511E+01  0.10252662819E+02  0.51100000000E-03 0.  1.
        -12    1    3    3    0    0 -0.35236519456E+01 -0.93024096247E+01  0.11341281109E+02  0.15085609204E+02  0.00000000000E+00 0.  1.
</event>
<event>
 7    1  0.1096439E-011  0.5930195E+02  0.7816164E-02  0.1266605E+00
        -11   -1    0    0    0    0  0.00000000000E+00  0.00000000000E+00  0.45593999997E+02  0.45594000000E+02  0.51100000000E-03 0. -1.
         11   -1    0    0    0    0 -0.00000000000E+00 -0.00000000000E+00 -0.45593999997E+02  0.45594000000E+02  0.51100000000E-03 0.  1.
    9900012    2    1    2    0    0  0.24061653040E+02 -0.18120339380E+02  0.10459943313E+02  0.59301948811E+02  0.50000008724E+02 0.  0.
        -12    1    1    2    0    0 -0.24061653040E+02  0.18120339380E+02 -0.10459943313E+02  0.31886051189E+02  0.00000000000E+00 0.  1.
         11    1    3    3    0    0  0.14461674478E+02 -0.18133928385E+02 -0.49181141319E+01  0.23710066095E+02  0.51100000000E-03 0. -1.
        -11    1    3    3    0    0 -0.62043946466E+01  0.10496045466E+02  0.19335170163E+01  0.12345038342E+02  0.51100000000E-03 0.  1.
         12    1    3    3    0    0  0.15804373209E+02 -0.10482456462E+02  0.13444540429E+02  0.23246844374E+02  0.00000000000E+00 0. -1.
</event>
<event>
 7    1  0.1096439E-011  0.5930196E+02  0.7816164E-02  0.1266605E+00
        -11   -1    0    0    0    0  0.00000000000E+00  0.00000000000E+00  0.45593999997E+02  0.45594000000E+02  0.51100000000E-03 0.  1.
         11   -1    0    0    0    0 -0.00000000000E+00 -0.00000000000E+00 -0.45593999997E+02  0.45594000000E+02  0.51100000000E-03 0. -1.
    9900012    2    1    2    0    0  0.13733013301E+02  0.17583520722E+02 -0.22780341105E+02  0.59301956091E+02  0.50000022001E+02 0.  0.
        -12    1    1    2    0    0 -0.13733013301E+02 -0.17583520722E+02  0.22780341105E+02  0.31886043909E+02  0.00000000000E+00 0.  1.
         11    1    3    3    0    0  0.10309108655E+02 -0.32876200984E+01 -0.16034901941E+02  0.19344359583E+02  0.51100000000E-03 0. -1.
        -11    1    3    3    0    0 -0.14670515165E+02  0.11782250066E+02 -0.57876961758E+01  0.19686108277E+02  0.51100000000E-03 0.  1.
        -12    1    3    3    0    0  0.18094419811E+02  0.90888907550E+01 -0.95774298837E+00  0.20271488231E+02  0.00000000000E+00 0.  1.
</event>
<event>
 7    1  0.1096439E-011  0.5930181E+02  0.7816164E-02  0.1266605E+00
        -11   -1    0    0    0    0  0.00000000000E+00  0.00000000000E+00  0.45593999997E+02  0.45594000000E+02  0.51100000000E-03 0. -1.
         11   -1    0    0    0    0 -0.00000000000E+00 -0.00000000000E+00 -0.45593999997E+02  0.45594000000E+02  0.51100000000E-03 0.  1.
    9900012    2    1    2    0    0  0.10859498635E+02 -0.10963799779E+02  0.27903320329E+02  0.59301813311E+02  0.49999761603E+02 0.  0.
        -12    1    1    2    0    0 -0.10859498635E+02  0.10963799779E+02 -0.27903320329E+02  0.31886186689E+02  0.00000000000E+00 0.  1.
         11    1    3    3    0    0 -0.17801987581E+01 -0.78026961529E+01  0.24042464289E+02  0.25339519811E+02  0.51100000000E-03 0.  1.
        -11    1    3    3    0    0  0.42941108831E+01  0.13975508511E+02  0.66477965859E+00  0.14635441868E+02  0.51100000000E-03 0. -1.
         12    1    3    3    0    0  0.83455865098E+01 -0.17136612138E+02  0.31960763815E+01  0.19326851631E+02  0.00000000000E+00 0. -1.
</event>
<event>
 7    1  0.1096439E-011  0.5930198E+02  0.7816164E-02  0.1266605E+00
        -11   -1    0    0    0    0  0.00000000000E+00  0.00000000000E+00  0.45593999997E+02  0.45594000000E+02  0.51100000000E-03 0. -1.
         11   -1    0    0    0    0 -0.00000000000E+00 -0.00000000000E+00 -0.45593999997E+02  0.45594000000E+02  0.51100000000E-03 0.  1.
    9900012    2    1    2    0    0 -0.10203202940E+02 -0.33620729883E+01  0.30021817401E+02  0.59301977905E+02  0.50000061783E+02 0.  0.
        -12    1    1    2    0    0  0.10203202940E+02  0.33620729883E+01 -0.30021817401E+02  0.31886022095E+02  0.00000000000E+00 0.  1.
         11    1    3    3    0    0 -0.14177227581E+01  0.16718052266E+02  0.21781113571E+02  0.27494001492E+02  0.51100000000E-03 0. -1.
        -11    1    3    3    0    0 -0.15255057788E+02 -0.12892860894E+02  0.93882923253E+01  0.22069949778E+02  0.51100000000E-03 0.  1.
        -12    1    3    3    0    0  0.64695776065E+01 -0.71872643596E+01 -0.11475884956E+01  0.97380266346E+01  0.00000000000E+00 0.  1.
</event>
<event>
 7    1  0.1096439E-011  0.5930193E+02  0.7816164E-02  0.1266605E+00
        -11   -1    0    0    0    0  0.00000000000E+00  0.00000000000E+00  0.45593999997E+02  0.45594000000E+02  0.51100000000E-03 0.  1.
         11   -1    0    0    0    0 -0.00000000000E+00 -0.00000000000E+00 -0.45593999997E+02  0.45594000000E+02  0.51100000000E-03 0. -1.
    9900012    2    1    2    0    0 -0.31099562265E+02 -0.22664285481E+01 -0.66634697527E+01  0.59301932501E+02  0.49999978977E+02 0.  0.
        -12    1    1    2    0    0  0.31099562265E+02  0.22664285481E+01  0.66634697527E+01  0.31886067499E+02  0.00000000000E+00 0.  1.
         11    1    3    3    0    0 -0.19002005737E+02  0.26791563346E+01 -0.16896107836E+02  0.25568194324E+02  0.51100000000E-03 0. -1.
        -11    1    3    3    0    0  0.51532242132E+01  0.84063740715E+01  0.57416894635E+00  0.98768676746E+01  0.51100000000E-03 0.  1.
        -12    1    3    3    0    0 -0.17250780741E+02 -0.13351958954E+02  0.96584691372E+01  0.23856870502E+02  0.00000000000E+00 0.  1.
</event>
<event>
 7    1  0.1096439E-011  0.5930194E+02  0.7816164E-02  0.1266605E+00
        -11   -1    0    0    0    0  0.00000000000E+00  0.00000000000E+00  0.45593999997E+02  0.45594000000E+02  0.51100000000E-03 0.  1.
         11   -1    0    0    0    0 -0.00000000000E+00 -0.00000000000E+00 -0.45593999997E+02  0.45594000000E+02  0.51100000000E-03 0. -1.
    9900012    2    1    2    0    0 -0.46288199745E+01  0.13963551367E+02 -0.28289824163E+02  0.59301938902E+02  0.49999990652E+02 0.  0.
        -12    1    1    2    0    0  0.46288199745E+01 -0.13963551367E+02  0.28289824163E+02  0.31886061098E+02  0.00000000000E+00 0.  1.
         11    1    3    3    0    0  0.92738677752E+01  0.63428634386E+01 -0.14026580781E+02  0.17971686309E+02  0.51100000000E-03 0. -1.
        -11    1    3    3    0    0 -0.13199710784E+02 -0.62633907383E+01 -0.21236928822E+02  0.25777307353E+02  0.51100000000E-03 0.  1.
        -12    1    3    3    0    0 -0.70297696597E+00  0.13884078667E+02  0.69736854397E+01  0.15552945241E+02  0.00000000000E+00 0.  1.
</event>
<event>
 7    1  0.1096439E-011  0.5930194E+02  0.7816164E-02  0.1266605E+00
        -11   -1    0    0    0    0  0.00000000000E+00  0.00000000000E+00  0.45593999997E+02  0.45594000000E+02  0.51100000000E-03 0. -1.
         11   -1    0    0    0    0 -0.00000000000E+00 -0.00000000000E+00 -0.45593999997E+02  0.45594000000E+02  0.51100000000E-03 0.  1.
    9900012    2    1    2    0    0  0.19008632103E+02  0.23880067932E+02  0.92268534263E+01  0.59301944066E+02  0.50000000070E+02 0.  0.
        -12    1    1    2    0    0 -0.19008632103E+02 -0.23880067932E+02 -0.92268534263E+01  0.31886055934E+02  0.00000000000E+00 0.  1.
         11    1    3    3    0    0  0.87478079691E-01  0.21792759436E+02  0.23861805965E+02  0.32315906307E+02  0.51100000000E-03 0. -1.
        -11    1    3    3    0    0  0.19043724246E+02 -0.11368896140E+01 -0.10616951929E+02  0.21832902227E+02  0.51100000000E-03 0.  1.
        -12    1    3    3    0    0 -0.12257022219E+00  0.32241981094E+01 -0.40180006099E+01  0.51531355319E+01  0.00000000000E+00 0.  1.
</event>
<event>
 7    1  0.1096439E-011  0.5930196E+02  0.7816164E-02  0.1266605E+00
        -11   -1    0    0    0    0  0.00000000000E+00  0.00000000000E+00  0.45593999997E+02  0.45594000000E+02  0.51100000000E-03 0.  1.
         11   -1    0    0    0    0 -0.00000000000E+00 -0.00000000000E+00 -0.45593999997E+02  0.45594000000E+02  0.51100000000E-03 0. -1.
    9900012    2    1    2    0    0  0.11843972595E+02 -0.26889809751E+02  0.12384588598E+02  0.59301959324E+02  0.50000027896E+02 0.  0.
        -12    1    1    2    0    0 -0.11843972595E+02  0.26889809751E+02 -0.12384588598E+02  0.31886040676E+02  0.00000000000E+00 0.  1.
         11    1    3    3    0    0  0.15786107356E+02  0.36349661931E+01  0.12339045242E+02  0.20363354400E+02  0.51100000000E-03 0. -1.
        -11    1    3    3    0    0 -0.10343689369E+02 -0.90091890774E+01 -0.70149166504E+01  0.15406701577E+02  0.51100000000E-03 0.  1.
        -12    1    3    3    0    0  0.64015546080E+01 -0.21515586866E+02  0.70604600068E+01  0.23531903347E+02  0.00000000000E+00 0.  1.
</event>
<event>
 7    1  0.1096439E-011  0.5930195E+02  0.7816164E-02  0.1266605E+00
        -11   -1    0    0    0    0  0.00000000000E+00  0.00000000000E+00  0.45593999997E+02  0.45594000000E+02  0.51100000000E-03 0. -1.
         11   -1    0    0    0    0 -0.00000000000E+00 -0.00000000000E+00 -0.45593999997E+02  0.45594000000E+02  0.51100000000E-03 0.  1.
    9900012    2    1    2    0    0 -0.12183590340E+01  0.29736069760E+02  0.11445609784E+02  0.59301949338E+02  0.50000009684E+02 0.  0.
        -12    1    1    2    0    0  0.12183590340E+01 -0.29736069760E+02 -0.11445609784E+02  0.31886050662E+02  0.00000000000E+00 0.  1.
         11    1    3    3    0    0 -0.16499120792E+02 -0.67671792509E+01  0.17057385226E+01  0.17914386568E+02  0.51100000000E-03 0. -1.
        -11    1    3    3    0    0  0.45659799860E+01  0.11080764598E+02 -0.40958162331E+00  0.11991633529E+02  0.51100000000E-03 0.  1.
         12    1    3    3    0    0  0.10714781772E+02  0.25422484412E+02  0.10149452885E+02  0.29395929242E+02  0.00000000000E+00 0. -1.
</event>
<event>
 7    1  0.1096439E-011  0.5930195E+02  0.7816164E-02  0.1266605E+00
        -11   -1    0    0    0    0  0.00000000000E+00  0.00000000000E+00  0.45593999997E+02  0.45594000000E+02  0.51100000000E-03 0.  1.
         11   -1    0    0    0    0 -0.00000000000E+00 -0.00000000000E+00 -0.45593999997E+02  0.45594000000E+02  0.51100000000E-03 0. -1.
    9900012    2    1    2    0    0 -0.28730993142E+02  0.13824989727E+02  0.34615940667E+00  0.59301950790E+02  0.50000012334E+02 0.  0.
        -12    1    1    2    0    0  0.28730993142E+02 -0.13824989727E+02 -0.34615940667E+00  0.31886049210E+02  0.00000000000E+00 0.  1.
         11    1    3    3    0    0 -0.57838733769E+01 -0.10151314808E+02 -0.14054031357E+02  0.18276164292E+02  0.51100000000E-03 0. -1.
        -11    1    3    3    0    0 -0.96787659732E+01  0.22096721782E+02  0.49450722779E+01  0.24625136840E+02  0.51100000000E-03 0.  1.
        -12    1    3    3    0    0 -0.13268353792E+02  0.18795827533E+01  0.94551184854E+01  0.16400649659E+02  0.00000000000E+00 0.  1.
</event>
<event>
 7    1  0.1096439E-011  0.5930196E+02  0.7816164E-02  0.1266605E+00
        -11   -1    0    0    0    0  0.00000000000E+00  0.00000000000E+00  0.45593999997E+02  0.45594000000E+02  0.51100000000E-03 0.  1.
         11   -1    0    0    0    0 -0.00000000000E+00 -0.00000000000E+00 -0.45593999997E+02  0.45594000000E+02  0.51100000000E-03 0. -1.
    9900012    2    1    2    0    0 -0.25369111476E+02  0.40662072087E+01  0.18883687258E+02  0.59301960694E+02  0.50000030396E+02 0.  0.
        -12    1    1    2    0    0  0.25369111476E+02 -0.40662072087E+01 -0.18883687258E+02  0.31886039306E+02  0.00000000000E+00 0.  1.
         11    1    3    3    0    0 -0.11881395132E+02  0.17835874091E+02  0.91179677542E+00  0.21450345649E+02  0.51100000000E-03 0. -1.
        -11    1    3    3    0    0 -0.15027654210E+02 -0.10560277920E+02 -0.11482366341E+01  0.18402942928E+02  0.51100000000E-03 0.  1.
        -12    1    3    3    0    0  0.15399378657E+01 -0.32093889620E+01  0.19120127117E+02  0.19448672117E+02  0.00000000000E+00 0.  1.
</event>
<event>
 7    1  0.1096439E-011  0.5930194E+02  0.7816164E-02  0.1266605E+00
        -11   -1    0    0    0    0  0.00000000000E+00  0.00000000000E+00  0.45593999997E+02  0.45594000000E+02  0.51100000000E-03 0.  1.
         11   -1    0    0    0    0 -0.00000000000E+00 -0.00000000000E+00 -0.45593999997E+02  0.45594000000E+02  0.51100000000E-03 0. -1.
    9900012    2    1    2    0    0 -0.30304420543E+01 -0.20771549149E+02 -0.24001661511E+02  0.59301943668E+02  0.49999999344E+02 0.  0.
        -12    1    1    2    0    0  0.30304420543E+01  0.20771549149E+02  0.24001661511E+02  0.31886056332E+02  0.00000000000E+00 0.  1.
         11    1    3    3    0    0  0.42097448996E+01 -0.19169250232E+02 -0.61413154814E+01  0.20564480608E+02  0.51100000000E-03 0. -1.
        -11    1    3    3    0    0 -0.59530078869E+01  0.15696428706E+02 -0.64992422977E+01  0.18001564591E+02  0.51100000000E-03 0.  1.
        -12    1    3    3    0    0 -0.12871790669E+01 -0.17298727623E+02 -0.11361103732E+02  0.20735898470E+02  0.00000000000E+00 0.  1.
</event>
<event>
 7    1  0.1096439E-011  0.5930197E+02  0.7816164E-02  0.1266605E+00
        -11   -1    0    0    0    0  0.00000000000E+00  0.00000000000E+00  0.45593999997E+02  0.45594000000E+02  0.51100000000E-03 0. -1.
         11   -1    0    0    0    0 -0.00000000000E+00 -0.00000000000E+00 -0.45593999997E+02  0.45594000000E+02  0.51100000000E-03 0.  1.
    9900012    2    1    2    0    0 -0.62879762523E+01  0.27706153740E+02  0.14475809840E+02  0.59301973735E+02  0.50000054180E+02 0.  0.
        -12    1    1    2    0    0  0.62879762523E+01 -0.27706153740E+02 -0.14475809840E+02  0.31886026265E+02  0.00000000000E+00 0.  1.
         11    1    3    3    0    0 -0.17155439246E+02  0.69500818674E+01  0.19748007478E+02  0.27066520524E+02  0.51100000000E-03 0. -1.
        -11    1    3    3    0    0  0.37657496791E+01  0.17289077601E+02 -0.12388983561E+02  0.21600462701E+02  0.51100000000E-03 0.  1.
         12    1    3    3    0    0  0.71017133142E+01  0.34669942717E+01  0.71167859230E+01  0.10634990510E+02  0.00000000000E+00 0. -1.
</event>
<event>
 7    1  0.1096439E-011  0.5930202E+02  0.7816164E-02  0.1266604E+00
        -11   -1    0    0    0    0  0.00000000000E+00  0.00000000000E+00  0.45593999997E+02  0.45594000000E+02  0.51100000000E-03 0.  1.
         11   -1    0    0    0    0 -0.00000000000E+00 -0.00000000000E+00 -0.45593999997E+02  0.45594000000E+02  0.51100000000E-03 0. -1.
    9900012    2    1    2    0    0  0.14176648499E+02 -0.24571529375E+02 -0.14559475852E+02  0.59302019451E+02  0.50000137554E+02 0.  0.
        -12    1    1    2    0    0 -0.14176648499E+02  0.24571529375E+02  0.14559475852E+02  0.31885980549E+02  0.00000000000E+00 0.  1.
         11    1    3    3    0    0  0.27491555836E+02 -0.74324509637E+01 -0.70055202756E+01  0.29327534575E+02  0.51100000000E-03 0. -1.
        -11    1    3    3    0    0  0.38369908127E+00 -0.39553587082E+01  0.55918598562E+01  0.68601009037E+01  0.51100000000E-03 0.  1.
         12    1    3    3    0    0 -0.13698606419E+02 -0.13183719703E+02 -0.13145815433E+02  0.23114383973E+02  0.00000000000E+00 0. -1.
</event>
<event>
 7    1  0.1096439E-011  0.5930195E+02  0.7816164E-02  0.1266605E+00
        -11   -1    0    0    0    0  0.00000000000E+00  0.00000000000E+00  0.45593999997E+02  0.45594000000E+02  0.51100000000E-03 0. -1.
         11   -1    0    0    0    0 -0.00000000000E+00 -0.00000000000E+00 -0.45593999997E+02  0.45594000000E+02  0.51100000000E-03 0.  1.
    9900012    2    1    2    0    0 -0.23348447180E+02 -0.97313826228E+01  0.19413152471E+02  0.59301948467E+02  0.50000008097E+02 0.  0.
        -12    1    1    2    0    0  0.23348447180E+02  0.97313826228E+01 -0.19413152471E+02  0.31886051533E+02  0.00000000000E+00 0.  1.
         11    1    3    3    0    0  0.14287707376E+02  0.16600200402E+00  0.13241767532E+02  0.19481030423E+02  0.51100000000E-03 0. -1.
        -11    1    3    3    0    0 -0.34457903309E+02 -0.98678287898E+01  0.42182167229E+01  0.36090365724E+02  0.51100000000E-03 0.  1.
         12    1    3    3    0    0 -0.31782512464E+01 -0.29555837013E-01  0.19531682166E+01  0.37305523203E+01  0.00000000000E+00 0. -1.
</event>
<event>
 7    1  0.1096439E-011  0.5930193E+02  0.7816164E-02  0.1266605E+00
        -11   -1    0    0    0    0  0.00000000000E+00  0.00000000000E+00  0.45593999997E+02  0.45594000000E+02  0.51100000000E-03 0.  1.
         11   -1    0    0    0    0 -0.00000000000E+00 -0.00000000000E+00 -0.45593999997E+02  0.45594000000E+02  0.51100000000E-03 0. -1.
    9900012    2    1    2    0    0  0.21845090330E+02 -0.19844316162E+02 -0.12071323663E+02  0.59301926074E+02  0.49999967256E+02 0.  0.
        -12    1    1    2    0    0 -0.21845090330E+02  0.19844316162E+02  0.12071323663E+02  0.31886073926E+02  0.00000000000E+00 0.  1.
         11    1    3    3    0    0  0.28988432421E+02 -0.27463730455E+02 -0.92614101043E+01  0.40992187330E+02  0.51100000000E-03 0. -1.
        -11    1    3    3    0    0 -0.11380998005E+02  0.75304067170E+01 -0.33080281086E+01  0.14041979602E+02  0.51100000000E-03 0.  1.
        -12    1    3    3    0    0  0.42376559131E+01  0.89007575904E-01  0.49811455002E+00  0.42677591416E+01  0.00000000000E+00 0.  1.
</event>
<event>
 7    1  0.1096439E-011  0.5930194E+02  0.7816164E-02  0.1266605E+00
        -11   -1    0    0    0    0  0.00000000000E+00  0.00000000000E+00  0.45593999997E+02  0.45594000000E+02  0.51100000000E-03 0.  1.
         11   -1    0    0    0    0 -0.00000000000E+00 -0.00000000000E+00 -0.45593999997E+02  0.45594000000E+02  0.51100000000E-03 0. -1.
    9900012    2    1    2    0    0  0.93024926234E+01  0.43656463585E+01 -0.30184855804E+02  0.59301941023E+02  0.49999994521E+02 0.  0.
        -12    1    1    2    0    0 -0.93024926234E+01 -0.43656463585E+01  0.30184855804E+02  0.31886058977E+02  0.00000000000E+00 0.  1.
         11    1    3    3    0    0 -0.67585892287E+01 -0.93642839956E+01 -0.14305161112E+02  0.18384938885E+02  0.51100000000E-03 0. -1.
        -11    1    3    3    0    0  0.19423321625E+02  0.12481583215E+02 -0.23221573015E+02  0.32745943200E+02  0.51100000000E-03 0.  1.
        -12    1    3    3    0    0 -0.33622397726E+01  0.12483471395E+01  0.73418783229E+01  0.81710589385E+01  0.00000000000E+00 0.  1.
</event>
<event>
 7    1  0.1096439E-011  0.5930197E+02  0.7816164E-02  0.1266605E+00
        -11   -1    0    0    0    0  0.00000000000E+00  0.00000000000E+00  0.45593999997E+02  0.45594000000E+02  0.51100000000E-03 0.  1.
         11   -1    0    0    0    0 -0.00000000000E+00 -0.00000000000E+00 -0.45593999997E+02  0.45594000000E+02  0.51100000000E-03 0. -1.
    9900012    2    1    2    0    0  0.28160597949E+02 -0.14836731290E+02  0.18896906518E+01  0.59301971665E+02  0.50000050404E+02 0.  0.
        -12    1    1    2    0    0 -0.28160597949E+02  0.14836731290E+02 -0.18896906518E+01  0.31886028335E+02  0.00000000000E+00 0.  1.
         11    1    3    3    0    0  0.23675577219E+02 -0.23797865857E+02 -0.23735794163E+01  0.33652715426E+02  0.51100000000E-03 0. -1.
        -11    1    3    3    0    0 -0.86451172758E+01  0.82133902186E+01  0.35714843210E+00  0.11930020405E+02  0.51100000000E-03 0.  1.
         12    1    3    3    0    0  0.13130138005E+02  0.74774434837E+00  0.39061216360E+01  0.13719235834E+02  0.00000000000E+00 0. -1.
</event>
<event>
 7    1  0.1096439E-011  0.5930194E+02  0.7816164E-02  0.1266605E+00
        -11   -1    0    0    0    0  0.00000000000E+00  0.00000000000E+00  0.45593999997E+02  0.45594000000E+02  0.51100000000E-03 0.  1.
         11   -1    0    0    0    0 -0.00000000000E+00 -0.00000000000E+00 -0.45593999997E+02  0.45594000000E+02  0.51100000000E-03 0. -1.
    9900012    2    1    2    0    0 -0.16692713288E+02  0.28797504642E+01 -0.27014459435E+02  0.59301942573E+02  0.49999997347E+02 0.  0.
        -12    1    1    2    0    0  0.16692713288E+02 -0.28797504642E+01  0.27014459435E+02  0.31886057427E+02  0.00000000000E+00 0.  1.
         11    1    3    3    0    0 -0.11647177144E+02 -0.10628936396E+02 -0.27456985262E+01  0.16005308025E+02  0.51100000000E-03 0. -1.
        -11    1    3    3    0    0  0.10298658582E+01  0.23194469238E+02 -0.10732730604E+02  0.25578028333E+02  0.51100000000E-03 0.  1.
        -12    1    3    3    0    0 -0.60754020021E+01 -0.96857823781E+01 -0.13536030305E+02  0.17718606214E+02  0.00000000000E+00 0.  1.
</event>
<event>
 7    1  0.1096439E-011  0.5930194E+02  0.7816164E-02  0.1266605E+00
        -11   -1    0    0    0    0  0.00000000000E+00  0.00000000000E+00  0.45593999997E+02  0.45594000000E+02  0.51100000000E-03 0.  1.
         11   -1    0    0    0    0 -0.00000000000E+00 -0.00000000000E+00 -0.45593999997E+02  0.45594000000E+02  0.51100000000E-03 0. -1.
    9900012    2    1    2    0    0  0.30012301334E+02  0.10384203436E+02 -0.28549411103E+01  0.59301943469E+02  0.49999998980E+02 0.  0.
        -12    1    1    2    0    0 -0.30012301334E+02 -0.10384203436E+02  0.28549411103E+01  0.31886056531E+02  0.00000000000E+00 0.  1.
         11    1    3    3    0    0  0.15681062920E+02  0.15641363350E+02 -0.63780347025E+01  0.23048368894E+02  0.51100000000E-03 0. -1.
        -11    1    3    3    0    0 -0.97730327988E+01 -0.27895550734E+01 -0.39395137130E+01  0.10900163125E+02  0.51100000000E-03 0.  1.
        -12    1    3    3    0    0  0.24104271212E+02 -0.24676048402E+01  0.74626073052E+01  0.25353411449E+02  0.00000000000E+00 0.  1.
</event>
<event>
 7    1  0.1096439E-011  0.5930186E+02  0.7816164E-02  0.1266605E+00
        -11   -1    0    0    0    0  0.00000000000E+00  0.00000000000E+00  0.45593999997E+02  0.45594000000E+02  0.51100000000E-03 0.  1.
         11   -1    0    0    0    0 -0.00000000000E+00 -0.00000000000E+00 -0.45593999997E+02  0.45594000000E+02  0.51100000000E-03 0. -1.
    9900012    2    1    2    0    0  0.40835785018E+01  0.31533500677E+02  0.23851365618E+01  0.59301856384E+02  0.49999840158E+02 0.  0.
        -12    1    1    2    0    0 -0.40835785018E+01 -0.31533500677E+02 -0.23851365618E+01  0.31886143616E+02  0.00000000000E+00 0.  1.
         11    1    3    3    0    0 -0.68897278984E+01  0.35419112763E+02 -0.52836632329E+01  0.36467780257E+02  0.51100000000E-03 0. -1.
        -11    1    3    3    0    0  0.13857519706E+01  0.15663842958E+01  0.11090680089E+02  0.11286144310E+02  0.51100000000E-03 0.  1.
         12    1    3    3    0    0  0.95875544296E+01 -0.54519963820E+01 -0.34218802948E+01  0.11547931817E+02  0.00000000000E+00 0. -1.
</event>
<event>
 7    1  0.1096439E-011  0.5930200E+02  0.7816164E-02  0.1266605E+00
        -11   -1    0    0    0    0  0.00000000000E+00  0.00000000000E+00  0.45593999997E+02  0.45594000000E+02  0.51100000000E-03 0. -1.
         11   -1    0    0    0    0 -0.00000000000E+00 -0.00000000000E+00 -0.45593999997E+02  0.45594000000E+02  0.51100000000E-03 0.  1.
    9900012    2    1    2    0    0 -0.37762311292E+01 -0.23630679760E+02  0.21072452241E+02  0.59301996944E+02  0.50000096506E+02 0.  0.
        -12    1    1    2    0    0  0.37762311292E+01  0.23630679760E+02 -0.21072452241E+02  0.31886003056E+02  0.00000000000E+00 0.  1.
         11    1    3    3    0    0 -0.19808172852E+02 -0.89715531663E+01  0.24308829820E+02  0.32615512957E+02  0.51100000000E-03 0. -1.
        -11    1    3    3    0    0 -0.17418185155E+01 -0.14385798866E+01 -0.39200739087E+01  0.45244252167E+01  0.51100000000E-03 0.  1.
         12    1    3    3    0    0  0.17773760239E+02 -0.13220546707E+02  0.68369632970E+00  0.22162058770E+02  0.00000000000E+00 0. -1.
</event>
<event>
 7    1  0.1096439E-011  0.5930192E+02  0.7816164E-02  0.1266605E+00
        -11   -1    0    0    0    0  0.00000000000E+00  0.00000000000E+00  0.45593999997E+02  0.45594000000E+02  0.51100000000E-03 0.  1.
         11   -1    0    0    0    0 -0.00000000000E+00 -0.00000000000E+00 -0.45593999997E+02  0.45594000000E+02  0.51100000000E-03 0. -1.
    9900012    2    1    2    0    0  0.19481413729E+02  0.21255907933E+02 -0.13615536549E+02  0.59301922498E+02  0.49999960735E+02 0.  0.
        -12    1    1    2    0    0 -0.19481413729E+02 -0.21255907933E+02  0.13615536549E+02  0.31886077502E+02  0.00000000000E+00 0.  1.
         11    1    3    3    0    0  0.13347620460E+02  0.34034760988E+02 -0.10669382620E+02  0.38083587715E+02  0.51100000000E-03 0. -1.
        -11    1    3    3    0    0 -0.13395743113E+01 -0.10507713550E+02 -0.67190442299E+01  0.12544004903E+02  0.51100000000E-03 0.  1.
         12    1    3    3    0    0  0.74733675806E+01 -0.22711395051E+01  0.37728903015E+01  0.86743298804E+01  0.00000000000E+00 0. -1.
</event>
<event>
 7    1  0.1096439E-011  0.5930196E+02  0.7816164E-02  0.1266605E+00
        -11   -1    0    0    0    0  0.00000000000E+00  0.00000000000E+00  0.45593999997E+02  0.45594000000E+02  0.51100000000E-03 0.  1.
         11   -1    0    0    0    0 -0.00000000000E+00 -0.00000000000E+00 -0.45593999997E+02  0.45594000000E+02  0.51100000000E-03 0. -1.
    9900012    2    1    2    0    0 -0.20279252400E+02 -0.10669241453E+01 -0.24583188002E+02  0.59301960149E+02  0.50000029402E+02 0.  0.
        -12    1    1    2    0    0  0.20279252400E+02  0.10669241453E+01  0.24583188002E+02  0.31886039851E+02  0.00000000000E+00 0.  1.
         11    1    3    3    0    0 -0.41621228340E+01 -0.24896246176E+01  0.11001127423E+02  0.12022741037E+02  0.51100000000E-03 0.  1.
        -11    1    3    3    0    0 -0.23515043402E+02  0.16113820509E+00 -0.28611740372E+02  0.37035319886E+02  0.51100000000E-03 0. -1.
         12    1    3    3    0    0  0.73979138357E+01  0.12615622671E+01 -0.69725750530E+01  0.10243899226E+02  0.00000000000E+00 0. -1.
</event>
<event>
 7    1  0.1096439E-011  0.5930187E+02  0.7816164E-02  0.1266605E+00
        -11   -1    0    0    0    0  0.00000000000E+00  0.00000000000E+00  0.45593999997E+02  0.45594000000E+02  0.51100000000E-03 0.  1.
         11   -1    0    0    0    0 -0.00000000000E+00 -0.00000000000E+00 -0.45593999997E+02  0.45594000000E+02  0.51100000000E-03 0. -1.
    9900012    2    1    2    0    0  0.15861204173E+01  0.32168342680E+01 -0.31683778123E+02  0.59301865132E+02  0.49999856112E+02 0.  0.
        -12    1    1    2    0    0 -0.15861204173E+01 -0.32168342680E+01  0.31683778123E+02  0.31886134868E+02  0.00000000000E+00 0.  1.
         11    1    3    3    0    0  0.28060628563E+01 -0.41962331353E+01  0.95681343816E+01  0.10818112455E+02  0.51100000000E-03 0.  1.
        -11    1    3    3    0    0 -0.53205983577E+00  0.14556208054E+02 -0.13642800951E+02  0.19957261802E+02  0.51100000000E-03 0. -1.
         12    1    3    3    0    0 -0.68788260323E+00 -0.71431406510E+01 -0.27609111554E+02  0.28526490875E+02  0.00000000000E+00 0. -1.
</event>
