<event>
 7    1  0.2599124E-010  0.4778727E+02  0.7816164E-02  0.1312668E+00
        -11   -1    0    0    0    0  0.00000000000E+00  0.00000000000E+00  0.45593999997E+02  0.45594000000E+02  0.51100000000E-03 0.  1.
         11   -1    0    0    0    0 -0.00000000000E+00 -0.00000000000E+00 -0.45593999997E+02  0.45594000000E+02  0.51100000000E-03 0. -1.
    9900012    2    1    2    0    0 -0.35119076703E+02 -0.37963389486E+00  0.25497640882E+02  0.47787270042E+02  0.19999995430E+02 0.  0.
         12    1    1    2    0    0  0.35119076703E+02  0.37963389486E+00 -0.25497640882E+02  0.43400729958E+02  0.00000000000E+00 0. -1.
         11    1    3    3    0    0 -0.38335764550E+01  0.49537127145E+01  0.70659600880E+01  0.94426357719E+01  0.51100000000E-03 0. -1.
        -11    1    3    3    0    0 -0.40659494016E+01 -0.44770838025E+01  0.13464995333E+01  0.61959087441E+01  0.51100000000E-03 0.  1.
        -12    1    3    3    0    0 -0.27219550846E+02 -0.85626280682E+00  0.17085181261E+02  0.32148725526E+02  0.00000000000E+00 0.  1.
</event>
<event>
 7    1  0.2599124E-010  0.4778727E+02  0.7816164E-02  0.1312668E+00
        -11   -1    0    0    0    0  0.00000000000E+00  0.00000000000E+00  0.45593999997E+02  0.45594000000E+02  0.51100000000E-03 0.  1.
         11   -1    0    0    0    0 -0.00000000000E+00 -0.00000000000E+00 -0.45593999997E+02  0.45594000000E+02  0.51100000000E-03 0. -1.
    9900012    2    1    2    0    0 -0.37408193879E+02  0.21204796288E+02  0.58827573558E+01  0.47787272022E+02  0.20000004458E+02 0.  0.
         12    1    1    2    0    0  0.37408193879E+02 -0.21204796288E+02 -0.58827573558E+01  0.43400727978E+02  0.00000000000E+00 0. -1.
         11    1    3    3    0    0 -0.11318050874E+01  0.98594380560E-01 -0.10899379884E+01  0.15743788259E+01  0.51100000000E-03 0. -1.
        -11    1    3    3    0    0 -0.24729609187E+02  0.21535412737E+02  0.14670181361E+00  0.32792515822E+02  0.51100000000E-03 0.  1.
        -12    1    3    3    0    0 -0.11546779605E+02 -0.42921082956E+00  0.68259935306E+01  0.13420377374E+02  0.00000000000E+00 0.  1.
</event>
<event>
 7    1  0.2599124E-010  0.4778727E+02  0.7816164E-02  0.1312668E+00
        -11   -1    0    0    0    0  0.00000000000E+00  0.00000000000E+00  0.45593999997E+02  0.45594000000E+02  0.51100000000E-03 0.  1.
         11   -1    0    0    0    0 -0.00000000000E+00 -0.00000000000E+00 -0.45593999997E+02  0.45594000000E+02  0.51100000000E-03 0. -1.
    9900012    2    1    2    0    0 -0.36748612482E+02 -0.86099280268E+01  0.21425028068E+02  0.47787271807E+02  0.20000003478E+02 0.  0.
         12    1    1    2    0    0  0.36748612482E+02  0.86099280268E+01 -0.21425028068E+02  0.43400728193E+02  0.00000000000E+00 0. -1.
         11    1    3    3    0    0 -0.24281245244E+01  0.30157386550E+01 -0.17593617842E+01  0.42527429372E+01  0.51100000000E-03 0. -1.
        -11    1    3    3    0    0 -0.92488899612E+01 -0.22114287297E+01  0.29099401689E+01  0.99448546791E+01  0.51100000000E-03 0.  1.
        -12    1    3    3    0    0 -0.25071597996E+02 -0.94142379521E+01  0.20274449683E+02  0.33589674191E+02  0.00000000000E+00 0.  1.
</event>
<event>
 7    1  0.2599124E-010  0.4778725E+02  0.7816164E-02  0.1312668E+00
        -11   -1    0    0    0    0  0.00000000000E+00  0.00000000000E+00  0.45593999997E+02  0.45594000000E+02  0.51100000000E-03 0.  1.
         11   -1    0    0    0    0 -0.00000000000E+00 -0.00000000000E+00 -0.45593999997E+02  0.45594000000E+02  0.51100000000E-03 0. -1.
    9900012    2    1    2    0    0 -0.22988269467E+02  0.19992098279E+02  0.30910854085E+02  0.47787246240E+02  0.19999886908E+02 0.  0.
         12    1    1    2    0    0  0.22988269467E+02 -0.19992098279E+02 -0.30910854085E+02  0.43400753760E+02  0.00000000000E+00 0. -1.
         11    1    3    3    0    0 -0.82423391996E+01  0.10328271970E+02  0.75236484743E+01  0.15205743783E+02  0.51100000000E-03 0. -1.
        -11    1    3    3    0    0 -0.12440922066E+02  0.13396140778E+02  0.19333246159E+02  0.26608411018E+02  0.51100000000E-03 0.  1.
         12    1    3    3    0    0 -0.23050082012E+01 -0.37323144695E+01  0.40539594514E+01  0.59730914391E+01  0.00000000000E+00 0. -1.
</event>
<event>
 7    1  0.2599124E-010  0.4778727E+02  0.7816164E-02  0.1312668E+00
        -11   -1    0    0    0    0  0.00000000000E+00  0.00000000000E+00  0.45593999997E+02  0.45594000000E+02  0.51100000000E-03 0.  1.
         11   -1    0    0    0    0 -0.00000000000E+00 -0.00000000000E+00 -0.45593999997E+02  0.45594000000E+02  0.51100000000E-03 0. -1.
    9900012    2    1    2    0    0  0.18878125805E+02  0.21671659837E+02  0.32520433566E+02  0.47787273355E+02  0.20000010533E+02 0.  0.
         12    1    1    2    0    0 -0.18878125805E+02 -0.21671659837E+02 -0.32520433566E+02  0.43400726645E+02  0.00000000000E+00 0. -1.
         11    1    3    3    0    0  0.78785651672E+01  0.18974607878E+02  0.26494564709E+02  0.33527145608E+02  0.51100000000E-03 0. -1.
        -11    1    3    3    0    0  0.49538556554E+01  0.31204267796E+01  0.20696731089E+00  0.58583773240E+01  0.51100000000E-03 0.  1.
        -12    1    3    3    0    0  0.60457049820E+01 -0.42337481990E+00  0.58189015460E+01  0.84017504230E+01  0.00000000000E+00 0.  1.
</event>
<event>
 7    1  0.2599124E-010  0.4778727E+02  0.7816164E-02  0.1312668E+00
        -11   -1    0    0    0    0  0.00000000000E+00  0.00000000000E+00  0.45593999997E+02  0.45594000000E+02  0.51100000000E-03 0. -1.
         11   -1    0    0    0    0 -0.00000000000E+00 -0.00000000000E+00 -0.45593999997E+02  0.45594000000E+02  0.51100000000E-03 0.  1.
    9900012    2    1    2    0    0 -0.21207278349E+02 -0.37479130325E+02 -0.54027423754E+01  0.47787268554E+02  0.19999988645E+02 0.  0.
         12    1    1    2    0    0  0.21207278349E+02  0.37479130325E+02  0.54027423754E+01  0.43400731446E+02  0.00000000000E+00 0. -1.
         11    1    3    3    0    0 -0.20424139343E+01 -0.20284409144E+01  0.25347138588E+01  0.38354663119E+01  0.51100000000E-03 0. -1.
        -11    1    3    3    0    0 -0.26902252584E+01 -0.11931763242E+02 -0.90497934354E+01  0.15215224201E+02  0.51100000000E-03 0.  1.
        -12    1    3    3    0    0 -0.16474639157E+02 -0.23518926168E+02  0.11123372011E+01  0.28736578041E+02  0.00000000000E+00 0.  1.
</event>
<event>
 7    1  0.2599124E-010  0.4778727E+02  0.7816164E-02  0.1312668E+00
        -11   -1    0    0    0    0  0.00000000000E+00  0.00000000000E+00  0.45593999997E+02  0.45594000000E+02  0.51100000000E-03 0.  1.
         11   -1    0    0    0    0 -0.00000000000E+00 -0.00000000000E+00 -0.45593999997E+02  0.45594000000E+02  0.51100000000E-03 0. -1.
    9900012    2    1    2    0    0  0.32705156084E+02  0.23346212712E+02  0.16399709302E+02  0.47787270194E+02  0.19999996124E+02 0.  0.
         12    1    1    2    0    0 -0.32705156084E+02 -0.23346212712E+02 -0.16399709302E+02  0.43400729806E+02  0.00000000000E+00 0. -1.
         11    1    3    3    0    0  0.43498097060E+01  0.17626719004E+01  0.10049031054E+02  0.11091027098E+02  0.51100000000E-03 0.  1.
        -11    1    3    3    0    0  0.41815162379E+01  0.82764251382E+00  0.37803203829E+00  0.42793666192E+01  0.51100000000E-03 0. -1.
        -12    1    3    3    0    0  0.24173830140E+02  0.20755898297E+02  0.59726462105E+01  0.32416876477E+02  0.00000000000E+00 0.  1.
</event>
<event>
 7    1  0.2599124E-010  0.4778727E+02  0.7816164E-02  0.1312668E+00
        -11   -1    0    0    0    0  0.00000000000E+00  0.00000000000E+00  0.45593999997E+02  0.45594000000E+02  0.51100000000E-03 0. -1.
         11   -1    0    0    0    0 -0.00000000000E+00 -0.00000000000E+00 -0.45593999997E+02  0.45594000000E+02  0.51100000000E-03 0.  1.
    9900012    2    1    2    0    0  0.38182317126E+02  0.20181257758E+02  0.42954446551E+01  0.47787270161E+02  0.19999995970E+02 0.  0.
         12    1    1    2    0    0 -0.38182317126E+02 -0.20181257758E+02 -0.42954446551E+01  0.43400729839E+02  0.00000000000E+00 0. -1.
         11    1    3    3    0    0  0.15461149145E+02  0.40825812590E+01  0.45833400915E+01  0.16634951436E+02  0.51100000000E-03 0. -1.
        -11    1    3    3    0    0  0.58766240346E+01 -0.13390473074E+01  0.29179543139E+01  0.66964330337E+01  0.51100000000E-03 0.  1.
        -12    1    3    3    0    0  0.16844543946E+02  0.17437723806E+02 -0.32058497504E+01  0.24455885691E+02  0.00000000000E+00 0.  1.
</event>
<event>
 7    1  0.2599124E-010  0.4778727E+02  0.7816164E-02  0.1312668E+00
        -11   -1    0    0    0    0  0.00000000000E+00  0.00000000000E+00  0.45593999997E+02  0.45594000000E+02  0.51100000000E-03 0.  1.
         11   -1    0    0    0    0 -0.00000000000E+00 -0.00000000000E+00 -0.45593999997E+02  0.45594000000E+02  0.51100000000E-03 0. -1.
    9900012    2    1    2    0    0  0.15141125322E+02  0.69580494737E+01  0.40074370162E+02  0.47787271062E+02  0.20000000080E+02 0.  0.
         12    1    1    2    0    0 -0.15141125322E+02 -0.69580494737E+01 -0.40074370162E+02  0.43400728938E+02  0.00000000000E+00 0. -1.
         11    1    3    3    0    0  0.20709646816E+01 -0.26890756876E+01  0.12391801797E+02  0.12848220687E+02  0.51100000000E-03 0. -1.
        -11    1    3    3    0    0  0.18494718213E+01 -0.24825303240E+00  0.15592791557E+02  0.15704054394E+02  0.51100000000E-03 0.  1.
         12    1    3    3    0    0  0.11220688819E+02  0.98953781937E+01  0.12089776807E+02  0.19234995982E+02  0.00000000000E+00 0. -1.
</event>
<event>
 7    1  0.2599124E-010  0.4778727E+02  0.7816164E-02  0.1312668E+00
        -11   -1    0    0    0    0  0.00000000000E+00  0.00000000000E+00  0.45593999997E+02  0.45594000000E+02  0.51100000000E-03 0.  1.
         11   -1    0    0    0    0 -0.00000000000E+00 -0.00000000000E+00 -0.45593999997E+02  0.45594000000E+02  0.51100000000E-03 0. -1.
    9900012    2    1    2    0    0 -0.24563228650E+02  0.69007856672E+01  0.35109117929E+02  0.47787271823E+02  0.20000003551E+02 0.  0.
         12    1    1    2    0    0  0.24563228650E+02 -0.69007856672E+01 -0.35109117929E+02  0.43400728177E+02  0.00000000000E+00 0. -1.
         11    1    3    3    0    0  0.17572743267E+01  0.41076161618E+00  0.34403585323E+01  0.38849459786E+01  0.51100000000E-03 0. -1.
        -11    1    3    3    0    0 -0.80771240669E+01  0.88708454904E+01  0.13063886488E+02  0.17736881443E+02  0.51100000000E-03 0.  1.
         12    1    3    3    0    0 -0.18243378909E+02 -0.23808214394E+01  0.18604872909E+02  0.26165444402E+02  0.00000000000E+00 0. -1.
</event>
<event>
 7    1  0.2599124E-010  0.4778727E+02  0.7816164E-02  0.1312668E+00
        -11   -1    0    0    0    0  0.00000000000E+00  0.00000000000E+00  0.45593999997E+02  0.45594000000E+02  0.51100000000E-03 0.  1.
         11   -1    0    0    0    0 -0.00000000000E+00 -0.00000000000E+00 -0.45593999997E+02  0.45594000000E+02  0.51100000000E-03 0. -1.
    9900012    2    1    2    0    0 -0.36390169312E+02  0.16574085962E+02  0.16872418942E+02  0.47787271101E+02  0.20000000258E+02 0.  0.
         12    1    1    2    0    0  0.36390169312E+02 -0.16574085962E+02 -0.16872418942E+02  0.43400728899E+02  0.00000000000E+00 0. -1.
         11    1    3    3    0    0 -0.14598074278E+02  0.78081103725E+01  0.11723826038E+02  0.20285917712E+02  0.51100000000E-03 0. -1.
        -11    1    3    3    0    0 -0.20235395657E+02  0.25186032781E+01  0.52710899493E+01  0.21061789795E+02  0.51100000000E-03 0.  1.
        -12    1    3    3    0    0 -0.15566993768E+01  0.62473723113E+01 -0.12249704473E+00  0.64395635932E+01  0.00000000000E+00 0.  1.
</event>
<event>
 7    1  0.2599124E-010  0.4778727E+02  0.7816164E-02  0.1312668E+00
        -11   -1    0    0    0    0  0.00000000000E+00  0.00000000000E+00  0.45593999997E+02  0.45594000000E+02  0.51100000000E-03 0.  1.
         11   -1    0    0    0    0 -0.00000000000E+00 -0.00000000000E+00 -0.45593999997E+02  0.45594000000E+02  0.51100000000E-03 0. -1.
    9900012    2    1    2    0    0  0.14117412555E+02  0.66616731122E+01  0.40496221093E+02  0.47787272487E+02  0.20000006576E+02 0.  0.
         12    1    1    2    0    0 -0.14117412555E+02 -0.66616731122E+01 -0.40496221093E+02  0.43400727513E+02  0.00000000000E+00 0. -1.
         11    1    3    3    0    0  0.12992916498E+01  0.44390558954E+01  0.43054149286E+01  0.63190168540E+01  0.51100000000E-03 0. -1.
        -11    1    3    3    0    0  0.15222278974E+02 -0.76371507626E+00  0.33440136874E+02  0.36749745472E+02  0.51100000000E-03 0.  1.
        -12    1    3    3    0    0 -0.24041580695E+01  0.29863322931E+01  0.27506692905E+01  0.47185101604E+01  0.00000000000E+00 0.  1.
</event>
<event>
 7    1  0.2599124E-010  0.4778728E+02  0.7816164E-02  0.1312668E+00
        -11   -1    0    0    0    0  0.00000000000E+00  0.00000000000E+00  0.45593999997E+02  0.45594000000E+02  0.51100000000E-03 0.  1.
         11   -1    0    0    0    0 -0.00000000000E+00 -0.00000000000E+00 -0.45593999997E+02  0.45594000000E+02  0.51100000000E-03 0. -1.
    9900012    2    1    2    0    0  0.23126913998E+02 -0.89434709982E+01  0.35619976707E+02  0.47787279209E+02  0.20000037225E+02 0.  0.
         12    1    1    2    0    0 -0.23126913998E+02  0.89434709982E+01 -0.35619976707E+02  0.43400720791E+02  0.00000000000E+00 0. -1.
         11    1    3    3    0    0  0.59339584662E+01  0.20846201890E+01  0.40573972877E+01  0.74846494522E+01  0.51100000000E-03 0. -1.
        -11    1    3    3    0    0  0.13383637200E+02 -0.86338807605E+01  0.11254291864E+02  0.19501915991E+02  0.51100000000E-03 0.  1.
        -12    1    3    3    0    0  0.38093183316E+01 -0.23942104267E+01  0.20308287556E+02  0.20800713766E+02  0.00000000000E+00 0.  1.
</event>
<event>
 7    1  0.2599124E-010  0.4778728E+02  0.7816164E-02  0.1312668E+00
        -11   -1    0    0    0    0  0.00000000000E+00  0.00000000000E+00  0.45593999997E+02  0.45594000000E+02  0.51100000000E-03 0. -1.
         11   -1    0    0    0    0 -0.00000000000E+00 -0.00000000000E+00 -0.45593999997E+02  0.45594000000E+02  0.51100000000E-03 0.  1.
    9900012    2    1    2    0    0  0.43221384508E+02 -0.22136266002E+01 -0.32609894992E+01  0.47787282563E+02  0.20000052517E+02 0.  0.
         12    1    1    2    0    0 -0.43221384508E+02  0.22136266002E+01  0.32609894992E+01  0.43400717437E+02  0.00000000000E+00 0. -1.
         11    1    3    3    0    0  0.27911925937E+02 -0.28797985877E+01  0.78523721247E-01  0.28060203414E+02  0.51100000000E-03 0. -1.
        -11    1    3    3    0    0  0.13988911555E+02  0.30856494049E+01  0.12434658961E+01  0.14379050262E+02  0.51100000000E-03 0.  1.
         12    1    3    3    0    0  0.13205470172E+01 -0.24194774173E+01 -0.45829791165E+01  0.53480288874E+01  0.00000000000E+00 0. -1.
</event>
<event>
 7    1  0.2599124E-010  0.4778727E+02  0.7816164E-02  0.1312668E+00
        -11   -1    0    0    0    0  0.00000000000E+00  0.00000000000E+00  0.45593999997E+02  0.45594000000E+02  0.51100000000E-03 0.  1.
         11   -1    0    0    0    0 -0.00000000000E+00 -0.00000000000E+00 -0.45593999997E+02  0.45594000000E+02  0.51100000000E-03 0. -1.
    9900012    2    1    2    0    0  0.23025336874E+02 -0.12821972988E+02  0.34482671959E+02  0.47787265042E+02  0.19999972631E+02 0.  0.
         12    1    1    2    0    0 -0.23025336874E+02  0.12821972988E+02 -0.34482671959E+02  0.43400734958E+02  0.00000000000E+00 0. -1.
         11    1    3    3    0    0  0.38492285466E+01 -0.35208666232E+00  0.50612216786E+01  0.63683978019E+01  0.51100000000E-03 0. -1.
        -11    1    3    3    0    0  0.22644066749E+02 -0.97092033553E+01  0.26000547106E+02  0.35819699033E+02  0.51100000000E-03 0.  1.
         12    1    3    3    0    0 -0.34679584217E+01 -0.27606829706E+01  0.34209031748E+01  0.55991682070E+01  0.00000000000E+00 0. -1.
</event>
<event>
 7    1  0.2599124E-010  0.4778727E+02  0.7816164E-02  0.1312668E+00
        -11   -1    0    0    0    0  0.00000000000E+00  0.00000000000E+00  0.45593999997E+02  0.45594000000E+02  0.51100000000E-03 0.  1.
         11   -1    0    0    0    0 -0.00000000000E+00 -0.00000000000E+00 -0.45593999997E+02  0.45594000000E+02  0.51100000000E-03 0. -1.
    9900012    2    1    2    0    0  0.31357431783E+02  0.10182031579E+02  0.28225183208E+02  0.47787271179E+02  0.20000000612E+02 0.  0.
         12    1    1    2    0    0 -0.31357431783E+02 -0.10182031579E+02 -0.28225183208E+02  0.43400728821E+02  0.00000000000E+00 0. -1.
         11    1    3    3    0    0  0.12516265002E+02  0.47314013878E+01  0.71972241584E+01  0.15193521137E+02  0.51100000000E-03 0. -1.
        -11    1    3    3    0    0  0.71832330543E+01  0.86127726202E+01  0.44132357276E+01  0.12052192297E+02  0.51100000000E-03 0.  1.
         12    1    3    3    0    0  0.11657933727E+02 -0.31621424290E+01  0.16614723322E+02  0.20541557745E+02  0.00000000000E+00 0. -1.
</event>
<event>
 7    1  0.2599124E-010  0.4778727E+02  0.7816164E-02  0.1312668E+00
        -11   -1    0    0    0    0  0.00000000000E+00  0.00000000000E+00  0.45593999997E+02  0.45594000000E+02  0.51100000000E-03 0. -1.
         11   -1    0    0    0    0 -0.00000000000E+00 -0.00000000000E+00 -0.45593999997E+02  0.45594000000E+02  0.51100000000E-03 0.  1.
    9900012    2    1    2    0    0  0.24394417545E+02  0.27118308235E+02 -0.23518789217E+02  0.47787266191E+02  0.19999977872E+02 0.  0.
         12    1    1    2    0    0 -0.24394417545E+02 -0.27118308235E+02  0.23518789217E+02  0.43400733809E+02  0.00000000000E+00 0. -1.
         11    1    3    3    0    0  0.71216141071E+01  0.11112871886E+02 -0.14915889311E+02  0.19917255415E+02  0.51100000000E-03 0. -1.
        -11    1    3    3    0    0  0.88001572477E+01  0.14917262570E+02 -0.85786902288E+01  0.19327736972E+02  0.51100000000E-03 0.  1.
        -12    1    3    3    0    0  0.84726461906E+01  0.10881737800E+01 -0.24209676643E-01  0.85422738047E+01  0.00000000000E+00 0.  1.
</event>
<event>
 7    1  0.2599124E-010  0.4778726E+02  0.7816164E-02  0.1312668E+00
        -11   -1    0    0    0    0  0.00000000000E+00  0.00000000000E+00  0.45593999997E+02  0.45594000000E+02  0.51100000000E-03 0.  1.
         11   -1    0    0    0    0 -0.00000000000E+00 -0.00000000000E+00 -0.45593999997E+02  0.45594000000E+02  0.51100000000E-03 0. -1.
    9900012    2    1    2    0    0 -0.21883536700E+02  0.17807697179E+02  0.32979099027E+02  0.47787260030E+02  0.19999949779E+02 0.  0.
         12    1    1    2    0    0  0.21883536700E+02 -0.17807697179E+02 -0.32979099027E+02  0.43400739970E+02  0.00000000000E+00 0. -1.
         11    1    3    3    0    0 -0.98666923804E+01  0.27375392701E+01  0.80292266516E+01  0.13012079798E+02  0.51100000000E-03 0. -1.
        -11    1    3    3    0    0 -0.13991133315E+02  0.13698732889E+02  0.15353953706E+02  0.24882744802E+02  0.51100000000E-03 0.  1.
         12    1    3    3    0    0  0.19742889949E+01  0.13714250198E+01  0.95959186697E+01  0.98924354300E+01  0.00000000000E+00 0. -1.
</event>
<event>
 7    1  0.2599124E-010  0.4778726E+02  0.7816164E-02  0.1312668E+00
        -11   -1    0    0    0    0  0.00000000000E+00  0.00000000000E+00  0.45593999997E+02  0.45594000000E+02  0.51100000000E-03 0.  1.
         11   -1    0    0    0    0 -0.00000000000E+00 -0.00000000000E+00 -0.45593999997E+02  0.45594000000E+02  0.51100000000E-03 0. -1.
    9900012    2    1    2    0    0  0.36415516140E+01 -0.25817843167E+02  0.34695848285E+02  0.47787264842E+02  0.19999971723E+02 0.  0.
         12    1    1    2    0    0 -0.36415516140E+01  0.25817843167E+02 -0.34695848285E+02  0.43400735158E+02  0.00000000000E+00 0. -1.
         11    1    3    3    0    0  0.44057940115E+01 -0.14733819122E+02  0.19750933380E+02  0.25031895982E+02  0.51100000000E-03 0.  1.
        -11    1    3    3    0    0  0.31157242138E+01 -0.89169771532E+01  0.15626328227E+02  0.18259308668E+02  0.51100000000E-03 0. -1.
        -12    1    3    3    0    0 -0.38799666113E+01 -0.21670468924E+01 -0.68141332195E+00  0.44960601924E+01  0.00000000000E+00 0.  1.
</event>
<event>
 7    1  0.2599124E-010  0.4778728E+02  0.7816164E-02  0.1312668E+00
        -11   -1    0    0    0    0  0.00000000000E+00  0.00000000000E+00  0.45593999997E+02  0.45594000000E+02  0.51100000000E-03 0.  1.
         11   -1    0    0    0    0 -0.00000000000E+00 -0.00000000000E+00 -0.45593999997E+02  0.45594000000E+02  0.51100000000E-03 0. -1.
    9900012    2    1    2    0    0  0.18793510804E+02 -0.36405651290E+01  0.38950902330E+02  0.47787279325E+02  0.20000037752E+02 0.  0.
         12    1    1    2    0    0 -0.18793510804E+02  0.36405651290E+01 -0.38950902330E+02  0.43400720675E+02  0.00000000000E+00 0. -1.
         11    1    3    3    0    0  0.46127803234E+01 -0.72240046461E+01  0.13434184335E+02  0.15935535587E+02  0.51100000000E-03 0. -1.
        -11    1    3    3    0    0  0.19772439589E+01 -0.78719285048E-01 -0.11562889637E+01  0.22918758316E+01  0.51100000000E-03 0.  1.
        -12    1    3    3    0    0  0.12203486522E+02  0.36621588021E+01  0.26673006959E+02  0.29559867906E+02  0.00000000000E+00 0.  1.
</event>
<event>
 7    1  0.2599124E-010  0.4778726E+02  0.7816164E-02  0.1312668E+00
        -11   -1    0    0    0    0  0.00000000000E+00  0.00000000000E+00  0.45593999997E+02  0.45594000000E+02  0.51100000000E-03 0.  1.
         11   -1    0    0    0    0 -0.00000000000E+00 -0.00000000000E+00 -0.45593999997E+02  0.45594000000E+02  0.51100000000E-03 0. -1.
    9900012    2    1    2    0    0  0.29300655430E+02 -0.21081330004E+02  0.24097159373E+02  0.47787262988E+02  0.19999963267E+02 0.  0.
         12    1    1    2    0    0 -0.29300655430E+02  0.21081330004E+02 -0.24097159373E+02  0.43400737012E+02  0.00000000000E+00 0. -1.
         11    1    3    3    0    0  0.24924260103E+01 -0.13692774518E+00  0.23077425742E+01  0.33995018273E+01  0.51100000000E-03 0. -1.
        -11    1    3    3    0    0  0.25467709291E+02 -0.10416622104E+02  0.12255743222E+02  0.30121644622E+02  0.51100000000E-03 0.  1.
         12    1    3    3    0    0  0.13405201286E+01 -0.10527780155E+02  0.95336735767E+01  0.14266116538E+02  0.00000000000E+00 0. -1.
</event>
<event>
 7    1  0.2599124E-010  0.4778727E+02  0.7816164E-02  0.1312668E+00
        -11   -1    0    0    0    0  0.00000000000E+00  0.00000000000E+00  0.45593999997E+02  0.45594000000E+02  0.51100000000E-03 0. -1.
         11   -1    0    0    0    0 -0.00000000000E+00 -0.00000000000E+00 -0.45593999997E+02  0.45594000000E+02  0.51100000000E-03 0.  1.
    9900012    2    1    2    0    0  0.12421180094E+02 -0.14339674503E+01 -0.41560571564E+02  0.47787273205E+02  0.20000009851E+02 0.  0.
         12    1    1    2    0    0 -0.12421180094E+02  0.14339674503E+01  0.41560571564E+02  0.43400726795E+02  0.00000000000E+00 0. -1.
         11    1    3    3    0    0 -0.17183563297E+01  0.13064404317E+01 -0.26501641112E+01  0.34180265001E+01  0.51100000000E-03 0. -1.
        -11    1    3    3    0    0  0.11987816089E+02  0.43844848240E+01 -0.30911609802E+02  0.33443370981E+02  0.51100000000E-03 0.  1.
         12    1    3    3    0    0  0.21517203344E+01 -0.71248927060E+01 -0.79987976511E+01  0.10925875724E+02  0.00000000000E+00 0. -1.
</event>
<event>
 7    1  0.2599124E-010  0.4778727E+02  0.7816164E-02  0.1312668E+00
        -11   -1    0    0    0    0  0.00000000000E+00  0.00000000000E+00  0.45593999997E+02  0.45594000000E+02  0.51100000000E-03 0. -1.
         11   -1    0    0    0    0 -0.00000000000E+00 -0.00000000000E+00 -0.45593999997E+02  0.45594000000E+02  0.51100000000E-03 0.  1.
    9900012    2    1    2    0    0 -0.34508048789E+02  0.23108398943E+02 -0.12602375503E+02  0.47787269577E+02  0.19999993310E+02 0.  0.
         12    1    1    2    0    0  0.34508048789E+02 -0.23108398943E+02  0.12602375503E+02  0.43400730423E+02  0.00000000000E+00 0. -1.
         11    1    3    3    0    0 -0.89735016722E+01  0.34121845530E+01 -0.40610010745E+00  0.96089361140E+01  0.51100000000E-03 0. -1.
        -11    1    3    3    0    0 -0.12717755099E+02  0.85658875075E-01 -0.35233752629E+01  0.13197075650E+02  0.51100000000E-03 0.  1.
        -12    1    3    3    0    0 -0.12816792018E+02  0.19610555515E+02 -0.86729001323E+01  0.24981257813E+02  0.00000000000E+00 0.  1.
</event>
<event>
 7    1  0.2599124E-010  0.4778728E+02  0.7816164E-02  0.1312668E+00
        -11   -1    0    0    0    0  0.00000000000E+00  0.00000000000E+00  0.45593999997E+02  0.45594000000E+02  0.51100000000E-03 0. -1.
         11   -1    0    0    0    0 -0.00000000000E+00 -0.00000000000E+00 -0.45593999997E+02  0.45594000000E+02  0.51100000000E-03 0.  1.
    9900012    2    1    2    0    0 -0.22669889693E+02  0.36769933601E+02  0.42036526657E+01  0.47787278676E+02  0.20000034794E+02 0.  0.
         12    1    1    2    0    0  0.22669889693E+02 -0.36769933601E+02 -0.42036526657E+01  0.43400721324E+02  0.00000000000E+00 0. -1.
         11    1    3    3    0    0  0.66400100550E+00 -0.93780995917E+00 -0.36933630491E+00  0.12069773909E+01  0.51100000000E-03 0. -1.
        -11    1    3    3    0    0 -0.13498015440E+02  0.99440980304E+01  0.33729883957E+01  0.17101419749E+02  0.51100000000E-03 0.  1.
         12    1    3    3    0    0 -0.98358752580E+01  0.27763645530E+02  0.12000005749E+01  0.29478881536E+02  0.00000000000E+00 0. -1.
</event>
<event>
 7    1  0.2599124E-010  0.4778727E+02  0.7816164E-02  0.1312668E+00
        -11   -1    0    0    0    0  0.00000000000E+00  0.00000000000E+00  0.45593999997E+02  0.45594000000E+02  0.51100000000E-03 0.  1.
         11   -1    0    0    0    0 -0.00000000000E+00 -0.00000000000E+00 -0.45593999997E+02  0.45594000000E+02  0.51100000000E-03 0. -1.
    9900012    2    1    2    0    0  0.20138723767E+02 -0.29436892838E+02  0.24729025681E+02  0.47787267678E+02  0.19999984653E+02 0.  0.
         12    1    1    2    0    0 -0.20138723767E+02  0.29436892838E+02 -0.24729025681E+02  0.43400732322E+02  0.00000000000E+00 0. -1.
         11    1    3    3    0    0  0.22710047050E+01  0.97248866096E-01 -0.13359524107E+01  0.26366055482E+01  0.51100000000E-03 0. -1.
        -11    1    3    3    0    0  0.13673815887E+02 -0.10306171318E+02  0.10798681842E+02  0.20243565346E+02  0.51100000000E-03 0.  1.
         12    1    3    3    0    0  0.41939031749E+01 -0.19227970386E+02  0.15266296250E+02  0.24907096784E+02  0.00000000000E+00 0. -1.
</event>
<event>
 7    1  0.2599124E-010  0.4778727E+02  0.7816164E-02  0.1312668E+00
        -11   -1    0    0    0    0  0.00000000000E+00  0.00000000000E+00  0.45593999997E+02  0.45594000000E+02  0.51100000000E-03 0.  1.
         11   -1    0    0    0    0 -0.00000000000E+00 -0.00000000000E+00 -0.45593999997E+02  0.45594000000E+02  0.51100000000E-03 0. -1.
    9900012    2    1    2    0    0  0.16512004727E+02 -0.19050306103E+02  0.35327928486E+02  0.47787274270E+02  0.20000014708E+02 0.  0.
         12    1    1    2    0    0 -0.16512004727E+02  0.19050306103E+02 -0.35327928486E+02  0.43400725730E+02  0.00000000000E+00 0. -1.
         11    1    3    3    0    0  0.12034870399E+02 -0.36847179278E+01  0.67706778414E+01  0.14291862385E+02  0.51100000000E-03 0. -1.
        -11    1    3    3    0    0  0.31240084218E+01 -0.82885505801E+01  0.88887254180E+01  0.12548662843E+02  0.51100000000E-03 0.  1.
         12    1    3    3    0    0  0.13531259061E+01 -0.70770375956E+01  0.19668525226E+02  0.20946749042E+02  0.00000000000E+00 0. -1.
</event>
<event>
 7    1  0.2599124E-010  0.4778727E+02  0.7816164E-02  0.1312668E+00
        -11   -1    0    0    0    0  0.00000000000E+00  0.00000000000E+00  0.45593999997E+02  0.45594000000E+02  0.51100000000E-03 0.  1.
         11   -1    0    0    0    0 -0.00000000000E+00 -0.00000000000E+00 -0.45593999997E+02  0.45594000000E+02  0.51100000000E-03 0. -1.
    9900012    2    1    2    0    0 -0.47872294678E+01  0.42778881513E+02  0.55383433783E+01  0.47787268246E+02  0.19999987239E+02 0.  0.
         12    1    1    2    0    0  0.47872294678E+01 -0.42778881513E+02 -0.55383433783E+01  0.43400731754E+02  0.00000000000E+00 0. -1.
         11    1    3    3    0    0  0.21107319559E+01  0.17240984654E+02  0.33303697806E+01  0.17686099185E+02  0.51100000000E-03 0. -1.
        -11    1    3    3    0    0  0.33935335836E+01  0.12546927097E+02 -0.15999861709E+01  0.13095854526E+02  0.51100000000E-03 0.  1.
         12    1    3    3    0    0 -0.10291495007E+02  0.12990969761E+02  0.38079597686E+01  0.17005314534E+02  0.00000000000E+00 0. -1.
</event>
<event>
 7    1  0.3581811E-010  0.4778726E+02  0.7816164E-02  0.1312668E+00
        -11   -1    0    0    0    0  0.00000000000E+00  0.00000000000E+00  0.45593999997E+02  0.45594000000E+02  0.51100000000E-03 0. -1.
         11   -1    0    0    0    0 -0.00000000000E+00 -0.00000000000E+00 -0.45593999997E+02  0.45594000000E+02  0.51100000000E-03 0.  1.
    9900012    2    1    2    0    0  0.13873965856E+02 -0.29959534920E+02 -0.28170266289E+02  0.47787256182E+02  0.19999932235E+02 0.  0.
         12    1    1    2    0    0 -0.13873965856E+02  0.29959534920E+02  0.28170266289E+02  0.43400743818E+02  0.00000000000E+00 0. -1.
         11    1    3    3    0    0  0.67520037161E+01 -0.96838771434E+01 -0.18496247297E+01  0.11949399257E+02  0.51100000000E-03 0. -1.
        -11    1    3    3    0    0  0.95126685471E+01 -0.15692933488E+02 -0.16221237574E+02  0.24492602415E+02  0.51100000000E-03 0.  1.
         12    1    3    3    0    0 -0.23907064074E+01 -0.45827242883E+01 -0.10099403985E+02  0.11345254509E+02  0.00000000000E+00 0. -1.
</event>
<event>
 7    1  0.2599124E-010  0.4778723E+02  0.7816164E-02  0.1312668E+00
        -11   -1    0    0    0    0  0.00000000000E+00  0.00000000000E+00  0.45593999997E+02  0.45594000000E+02  0.51100000000E-03 0.  1.
         11   -1    0    0    0    0 -0.00000000000E+00 -0.00000000000E+00 -0.45593999997E+02  0.45594000000E+02  0.51100000000E-03 0. -1.
    9900012    2    1    2    0    0 -0.81303058858E+01  0.41105662753E+02 -0.11307065650E+02  0.47787226761E+02  0.19999798091E+02 0.  0.
         12    1    1    2    0    0  0.81303058858E+01 -0.41105662753E+02  0.11307065650E+02  0.43400773239E+02  0.00000000000E+00 0. -1.
         11    1    3    3    0    0  0.85294386202E+00  0.88127378070E+00  0.34963901173E+01  0.37052531387E+01  0.51100000000E-03 0. -1.
        -11    1    3    3    0    0 -0.34554509256E+01  0.96196774179E+01 -0.18272544382E+01  0.10383505851E+02  0.51100000000E-03 0.  1.
         12    1    3    3    0    0 -0.55277988222E+01  0.30604711555E+02 -0.12976201329E+02  0.33698467770E+02  0.00000000000E+00 0. -1.
</event>
<event>
 7    1  0.2599124E-010  0.4778727E+02  0.7816164E-02  0.1312668E+00
        -11   -1    0    0    0    0  0.00000000000E+00  0.00000000000E+00  0.45593999997E+02  0.45594000000E+02  0.51100000000E-03 0.  1.
         11   -1    0    0    0    0 -0.00000000000E+00 -0.00000000000E+00 -0.45593999997E+02  0.45594000000E+02  0.51100000000E-03 0. -1.
    9900012    2    1    2    0    0 -0.16580886169E+02 -0.36185241050E+02 -0.17301030003E+02  0.47787273104E+02  0.20000009389E+02 0.  0.
         12    1    1    2    0    0  0.16580886169E+02  0.36185241050E+02  0.17301030003E+02  0.43400726896E+02  0.00000000000E+00 0. -1.
         11    1    3    3    0    0 -0.53789548123E+01 -0.22673007220E+02 -0.79140080327E+01  0.24609549664E+02  0.51100000000E-03 0. -1.
        -11    1    3    3    0    0 -0.18897331353E+01 -0.10978294606E+02 -0.27782176379E+01  0.11480964127E+02  0.51100000000E-03 0.  1.
         12    1    3    3    0    0 -0.93121982213E+01 -0.25339392232E+01 -0.66088043323E+01  0.11696759312E+02  0.00000000000E+00 0. -1.
</event>
<event>
 7    1  0.2599124E-010  0.4778728E+02  0.7816164E-02  0.1312668E+00
        -11   -1    0    0    0    0  0.00000000000E+00  0.00000000000E+00  0.45593999997E+02  0.45594000000E+02  0.51100000000E-03 0. -1.
         11   -1    0    0    0    0 -0.00000000000E+00 -0.00000000000E+00 -0.45593999997E+02  0.45594000000E+02  0.51100000000E-03 0.  1.
    9900012    2    1    2    0    0 -0.12093097175E+02  0.34253037233E+02 -0.23750985298E+02  0.47787275794E+02  0.20000021654E+02 0.  0.
         12    1    1    2    0    0  0.12093097175E+02 -0.34253037233E+02  0.23750985298E+02  0.43400724206E+02  0.00000000000E+00 0. -1.
         11    1    3    3    0    0 -0.56401768241E+01  0.73640223560E+01 -0.60487448851E+01  0.11073740778E+02  0.51100000000E-03 0. -1.
        -11    1    3    3    0    0 -0.11470946199E+02  0.22436842308E+02 -0.15791687188E+02  0.29738390743E+02  0.51100000000E-03 0.  1.
         12    1    3    3    0    0  0.50180258487E+01  0.44521725694E+01 -0.19105532250E+01  0.69751442732E+01  0.00000000000E+00 0. -1.
</event>
<event>
 7    1  0.2599124E-010  0.4778727E+02  0.7816164E-02  0.1312668E+00
        -11   -1    0    0    0    0  0.00000000000E+00  0.00000000000E+00  0.45593999997E+02  0.45594000000E+02  0.51100000000E-03 0.  1.
         11   -1    0    0    0    0 -0.00000000000E+00 -0.00000000000E+00 -0.45593999997E+02  0.45594000000E+02  0.51100000000E-03 0. -1.
    9900012    2    1    2    0    0  0.26248234793E+02 -0.29511994222E+02  0.17991537352E+02  0.47787273636E+02  0.20000011815E+02 0.  0.
         12    1    1    2    0    0 -0.26248234793E+02  0.29511994222E+02 -0.17991537352E+02  0.43400726364E+02  0.00000000000E+00 0. -1.
         11    1    3    3    0    0  0.11913941933E+02 -0.76776513791E+01  0.11688744161E+02  0.18371583585E+02  0.51100000000E-03 0. -1.
        -11    1    3    3    0    0  0.33323870029E+00 -0.46937579251E+01  0.55424228822E+01  0.72705476518E+01  0.51100000000E-03 0.  1.
         12    1    3    3    0    0  0.14001054159E+02 -0.17140584917E+02  0.76037030836E+00  0.22145142399E+02  0.00000000000E+00 0. -1.
</event>
<event>
 7    1  0.2599124E-010  0.4778728E+02  0.7816164E-02  0.1312668E+00
        -11   -1    0    0    0    0  0.00000000000E+00  0.00000000000E+00  0.45593999997E+02  0.45594000000E+02  0.51100000000E-03 0.  1.
         11   -1    0    0    0    0 -0.00000000000E+00 -0.00000000000E+00 -0.45593999997E+02  0.45594000000E+02  0.51100000000E-03 0. -1.
    9900012    2    1    2    0    0 -0.26046259924E+02 -0.28860127569E+02  0.19295277371E+02  0.47787281710E+02  0.20000048627E+02 0.  0.
         12    1    1    2    0    0  0.26046259924E+02  0.28860127569E+02 -0.19295277371E+02  0.43400718290E+02  0.00000000000E+00 0. -1.
         11    1    3    3    0    0 -0.62445780687E+01 -0.64033539630E+00 -0.13519361711E+01  0.64212550446E+01  0.51100000000E-03 0. -1.
        -11    1    3    3    0    0 -0.36790640345E+01 -0.12969499450E+02  0.97833072045E+01  0.16657026393E+02  0.51100000000E-03 0.  1.
        -12    1    3    3    0    0 -0.16122617821E+02 -0.15250292723E+02  0.10863906337E+02  0.24709000272E+02  0.00000000000E+00 0.  1.
</event>
<event>
 7    1  0.2599124E-010  0.4778729E+02  0.7816164E-02  0.1312668E+00
        -11   -1    0    0    0    0  0.00000000000E+00  0.00000000000E+00  0.45593999997E+02  0.45594000000E+02  0.51100000000E-03 0.  1.
         11   -1    0    0    0    0 -0.00000000000E+00 -0.00000000000E+00 -0.45593999997E+02  0.45594000000E+02  0.51100000000E-03 0. -1.
    9900012    2    1    2    0    0 -0.64457573027E+01 -0.19095371797E+02  0.38437489438E+02  0.47787290264E+02  0.20000087630E+02 0.  0.
         12    1    1    2    0    0  0.64457573027E+01  0.19095371797E+02 -0.38437489438E+02  0.43400709736E+02  0.00000000000E+00 0. -1.
         11    1    3    3    0    0  0.21139429643E+01  0.42916275812E+00  0.80670663705E+01  0.83504787657E+01  0.51100000000E-03 0. -1.
        -11    1    3    3    0    0  0.87985461552E+00 -0.44848169875E+01  0.38277355253E+00  0.45863104353E+01  0.51100000000E-03 0.  1.
        -12    1    3    3    0    0 -0.94395548825E+01 -0.15039717568E+02  0.29987649515E+02  0.34850501063E+02  0.00000000000E+00 0.  1.
</event>
<event>
 7    1  0.2599124E-010  0.4778727E+02  0.7816164E-02  0.1312668E+00
        -11   -1    0    0    0    0  0.00000000000E+00  0.00000000000E+00  0.45593999997E+02  0.45594000000E+02  0.51100000000E-03 0.  1.
         11   -1    0    0    0    0 -0.00000000000E+00 -0.00000000000E+00 -0.45593999997E+02  0.45594000000E+02  0.51100000000E-03 0. -1.
    9900012    2    1    2    0    0 -0.61398888336E+01  0.38181881895E+02  0.19699466707E+02  0.47787270416E+02  0.19999997134E+02 0.  0.
         12    1    1    2    0    0  0.61398888336E+01 -0.38181881895E+02 -0.19699466707E+02  0.43400729584E+02  0.00000000000E+00 0. -1.
         11    1    3    3    0    0 -0.43566256752E+01  0.21371373408E+02  0.94165827576E+01  0.23756847849E+02  0.51100000000E-03 0. -1.
        -11    1    3    3    0    0 -0.70934826604E+01  0.12790776539E+02  0.47685568913E+01  0.15383777033E+02  0.51100000000E-03 0.  1.
         12    1    3    3    0    0  0.53102195019E+01  0.40197319476E+01  0.55143270576E+01  0.86466455339E+01  0.00000000000E+00 0. -1.
</event>
<event>
 7    1  0.2599124E-010  0.4778727E+02  0.7816164E-02  0.1312668E+00
        -11   -1    0    0    0    0  0.00000000000E+00  0.00000000000E+00  0.45593999997E+02  0.45594000000E+02  0.51100000000E-03 0.  1.
         11   -1    0    0    0    0 -0.00000000000E+00 -0.00000000000E+00 -0.45593999997E+02  0.45594000000E+02  0.51100000000E-03 0. -1.
    9900012    2    1    2    0    0  0.66328661048E+01 -0.40772271102E+02  0.13313528509E+02  0.47787273682E+02  0.20000012026E+02 0.  0.
         12    1    1    2    0    0 -0.66328661048E+01  0.40772271102E+02 -0.13313528509E+02  0.43400726318E+02  0.00000000000E+00 0. -1.
         11    1    3    3    0    0  0.39181096578E+01 -0.24604066098E+01 -0.22954109835E+01  0.51646970696E+01  0.51100000000E-03 0. -1.
        -11    1    3    3    0    0  0.52374264157E+01 -0.12372090395E+02  0.34920866058E+01  0.13881423750E+02  0.51100000000E-03 0.  1.
        -12    1    3    3    0    0 -0.25226699688E+01 -0.25939774097E+02  0.12116852887E+02  0.28741152863E+02  0.00000000000E+00 0.  1.
</event>
<event>
 7    1  0.2599124E-010  0.4778728E+02  0.7816164E-02  0.1312668E+00
        -11   -1    0    0    0    0  0.00000000000E+00  0.00000000000E+00  0.45593999997E+02  0.45594000000E+02  0.51100000000E-03 0.  1.
         11   -1    0    0    0    0 -0.00000000000E+00 -0.00000000000E+00 -0.45593999997E+02  0.45594000000E+02  0.51100000000E-03 0. -1.
    9900012    2    1    2    0    0 -0.35539940716E+02  0.59665795466E+01  0.24185432835E+02  0.47787278589E+02  0.20000034400E+02 0.  0.
         12    1    1    2    0    0  0.35539940716E+02 -0.59665795466E+01 -0.24185432835E+02  0.43400721411E+02  0.00000000000E+00 0. -1.
         11    1    3    3    0    0 -0.61529305407E+01  0.24552538189E+01 -0.21969523499E+01  0.69795003720E+01  0.51100000000E-03 0. -1.
        -11    1    3    3    0    0 -0.12449145036E+00  0.77852989238E+00 -0.53611845027E+00  0.95343073602E+00  0.51100000000E-03 0.  1.
        -12    1    3    3    0    0 -0.29262518724E+02  0.27327958353E+01  0.26918503635E+02  0.39854347481E+02  0.00000000000E+00 0.  1.
</event>
<event>
 7    1  0.2599124E-010  0.4778727E+02  0.7816164E-02  0.1312668E+00
        -11   -1    0    0    0    0  0.00000000000E+00  0.00000000000E+00  0.45593999997E+02  0.45594000000E+02  0.51100000000E-03 0. -1.
         11   -1    0    0    0    0 -0.00000000000E+00 -0.00000000000E+00 -0.45593999997E+02  0.45594000000E+02  0.51100000000E-03 0.  1.
    9900012    2    1    2    0    0 -0.13962000304E+02  0.41868174776E+01 -0.40879779383E+02  0.47787271256E+02  0.20000000965E+02 0.  0.
         12    1    1    2    0    0  0.13962000304E+02 -0.41868174776E+01  0.40879779383E+02  0.43400728744E+02  0.00000000000E+00 0. -1.
         11    1    3    3    0    0 -0.34680241210E+01  0.35347054369E+01 -0.14873379805E+01  0.51704456635E+01  0.51100000000E-03 0. -1.
        -11    1    3    3    0    0 -0.12162463568E+02  0.33935759079E+01 -0.34750588445E+02  0.36973575362E+02  0.51100000000E-03 0.  1.
         12    1    3    3    0    0  0.16684873851E+01 -0.27414638673E+01 -0.46418529576E+01  0.56432502310E+01  0.00000000000E+00 0. -1.
</event>
<event>
 7    1  0.2599124E-010  0.4778727E+02  0.7816164E-02  0.1312668E+00
        -11   -1    0    0    0    0  0.00000000000E+00  0.00000000000E+00  0.45593999997E+02  0.45594000000E+02  0.51100000000E-03 0. -1.
         11   -1    0    0    0    0 -0.00000000000E+00 -0.00000000000E+00 -0.45593999997E+02  0.45594000000E+02  0.51100000000E-03 0.  1.
    9900012    2    1    2    0    0  0.11153548820E+02  0.26036827556E+02 -0.32883208441E+02  0.47787269155E+02  0.19999991387E+02 0.  0.
         12    1    1    2    0    0 -0.11153548820E+02 -0.26036827556E+02  0.32883208441E+02  0.43400730845E+02  0.00000000000E+00 0. -1.
         11    1    3    3    0    0  0.80145967491E+01  0.15373465519E+01 -0.80666256603E+01  0.11474652294E+02  0.51100000000E-03 0. -1.
        -11    1    3    3    0    0  0.62616466849E+01  0.11037950927E+02 -0.11879577591E+02  0.17383007332E+02  0.51100000000E-03 0.  1.
        -12    1    3    3    0    0 -0.31226946140E+01  0.13461530077E+02 -0.12937005189E+02  0.18929609529E+02  0.00000000000E+00 0.  1.
</event>
<event>
 7    1  0.2599124E-010  0.4778727E+02  0.7816164E-02  0.1312668E+00
        -11   -1    0    0    0    0  0.00000000000E+00  0.00000000000E+00  0.45593999997E+02  0.45594000000E+02  0.51100000000E-03 0. -1.
         11   -1    0    0    0    0 -0.00000000000E+00 -0.00000000000E+00 -0.45593999997E+02  0.45594000000E+02  0.51100000000E-03 0.  1.
    9900012    2    1    2    0    0  0.43385002596E+02 -0.82203235691E+00 -0.83036936137E+00  0.47787266127E+02  0.19999977579E+02 0.  0.
         12    1    1    2    0    0 -0.43385002596E+02  0.82203235691E+00  0.83036936137E+00  0.43400733873E+02  0.00000000000E+00 0. -1.
         11    1    3    3    0    0  0.12493144640E+01  0.42566486571E+01 -0.43930264882E+00  0.44578954113E+01  0.51100000000E-03 0. -1.
        -11    1    3    3    0    0  0.36574405251E+01 -0.52344904206E+00 -0.26026456913E+01  0.45193622282E+01  0.51100000000E-03 0.  1.
        -12    1    3    3    0    0  0.38478247607E+02 -0.45552319720E+01  0.22115789787E+01  0.38810008487E+02  0.00000000000E+00 0.  1.
</event>
<event>
 7    1  0.2599124E-010  0.4778727E+02  0.7816164E-02  0.1312668E+00
        -11   -1    0    0    0    0  0.00000000000E+00  0.00000000000E+00  0.45593999997E+02  0.45594000000E+02  0.51100000000E-03 0. -1.
         11   -1    0    0    0    0 -0.00000000000E+00 -0.00000000000E+00 -0.45593999997E+02  0.45594000000E+02  0.51100000000E-03 0.  1.
    9900012    2    1    2    0    0 -0.42262110032E+02 -0.57956131643E+01 -0.79967664850E+01  0.47787270161E+02  0.19999995973E+02 0.  0.
         12    1    1    2    0    0  0.42262110032E+02  0.57956131643E+01  0.79967664850E+01  0.43400729839E+02  0.00000000000E+00 0. -1.
         11    1    3    3    0    0 -0.15515616124E+02 -0.68378985172E+01 -0.44792433068E+01  0.17537240966E+02  0.51100000000E-03 0. -1.
        -11    1    3    3    0    0 -0.17335508807E+02 -0.15752223546E+01  0.40756640879E+01  0.17877702008E+02  0.51100000000E-03 0.  1.
        -12    1    3    3    0    0 -0.94109851005E+01  0.26175077074E+01 -0.75931872660E+01  0.12372327187E+02  0.00000000000E+00 0.  1.
</event>
<event>
 7    1  0.2599124E-010  0.4778727E+02  0.7816164E-02  0.1312668E+00
        -11   -1    0    0    0    0  0.00000000000E+00  0.00000000000E+00  0.45593999997E+02  0.45594000000E+02  0.51100000000E-03 0. -1.
         11   -1    0    0    0    0 -0.00000000000E+00 -0.00000000000E+00 -0.45593999997E+02  0.45594000000E+02  0.51100000000E-03 0.  1.
    9900012    2    1    2    0    0 -0.18951428317E+02  0.29087033351E+02 -0.26046322860E+02  0.47787273290E+02  0.20000010238E+02 0.  0.
         12    1    1    2    0    0  0.18951428317E+02 -0.29087033351E+02  0.26046322860E+02  0.43400726710E+02  0.00000000000E+00 0. -1.
         11    1    3    3    0    0 -0.85927808543E+01  0.61710977790E+01 -0.20107317705E+01  0.10768536257E+02  0.51100000000E-03 0. -1.
        -11    1    3    3    0    0 -0.11059317535E+02  0.15228600509E+02 -0.10807240534E+02  0.21702885200E+02  0.51100000000E-03 0.  1.
        -12    1    3    3    0    0  0.70067007168E+00  0.76873350630E+01 -0.13228350556E+02  0.15315851832E+02  0.00000000000E+00 0.  1.
</event>
<event>
 7    1  0.2599124E-010  0.4778727E+02  0.7816164E-02  0.1312668E+00
        -11   -1    0    0    0    0  0.00000000000E+00  0.00000000000E+00  0.45593999997E+02  0.45594000000E+02  0.51100000000E-03 0. -1.
         11   -1    0    0    0    0 -0.00000000000E+00 -0.00000000000E+00 -0.45593999997E+02  0.45594000000E+02  0.51100000000E-03 0.  1.
    9900012    2    1    2    0    0  0.15765839929E+02  0.14077669897E+02 -0.37906207474E+02  0.47787273469E+02  0.20000011055E+02 0.  0.
         12    1    1    2    0    0 -0.15765839929E+02 -0.14077669897E+02  0.37906207474E+02  0.43400726531E+02  0.00000000000E+00 0. -1.
         11    1    3    3    0    0  0.26879594738E+01  0.21526534348E+01 -0.20484712768E+02  0.20772156854E+02  0.51100000000E-03 0. -1.
        -11    1    3    3    0    0  0.10258415709E+02  0.72464275665E+01 -0.17513911237E+02  0.21551865173E+02  0.51100000000E-03 0.  1.
         12    1    3    3    0    0  0.28194647463E+01  0.46785888953E+01  0.92416531329E-01  0.54632514423E+01  0.00000000000E+00 0. -1.
</event>
<event>
 7    1  0.2599124E-010  0.4778727E+02  0.7816164E-02  0.1312668E+00
        -11   -1    0    0    0    0  0.00000000000E+00  0.00000000000E+00  0.45593999997E+02  0.45594000000E+02  0.51100000000E-03 0. -1.
         11   -1    0    0    0    0 -0.00000000000E+00 -0.00000000000E+00 -0.45593999997E+02  0.45594000000E+02  0.51100000000E-03 0.  1.
    9900012    2    1    2    0    0  0.29456047847E+02  0.31790121928E+02 -0.23135272726E+01  0.47787274022E+02  0.20000013575E+02 0.  0.
         12    1    1    2    0    0 -0.29456047847E+02 -0.31790121928E+02  0.23135272726E+01  0.43400725978E+02  0.00000000000E+00 0. -1.
         11    1    3    3    0    0  0.98365708751E+01  0.16222979115E+01  0.11558484829E+01  0.10036232514E+02  0.51100000000E-03 0. -1.
        -11    1    3    3    0    0 -0.47581184778E+00  0.32031059311E+01 -0.25290092875E+01  0.41087921288E+01  0.51100000000E-03 0.  1.
         12    1    3    3    0    0  0.20095288820E+02  0.26964718086E+02 -0.94036646808E+00  0.33642249379E+02  0.00000000000E+00 0. -1.
</event>
<event>
 7    1  0.2599124E-010  0.4778727E+02  0.7816164E-02  0.1312668E+00
        -11   -1    0    0    0    0  0.00000000000E+00  0.00000000000E+00  0.45593999997E+02  0.45594000000E+02  0.51100000000E-03 0. -1.
         11   -1    0    0    0    0 -0.00000000000E+00 -0.00000000000E+00 -0.45593999997E+02  0.45594000000E+02  0.51100000000E-03 0.  1.
    9900012    2    1    2    0    0  0.26975659947E+02 -0.99959782792E+00 -0.33984376095E+02  0.47787271389E+02  0.20000001571E+02 0.  0.
         12    1    1    2    0    0 -0.26975659947E+02  0.99959782792E+00  0.33984376095E+02  0.43400728611E+02  0.00000000000E+00 0. -1.
         11    1    3    3    0    0  0.44443423054E+01  0.30856521973E+01 -0.25356241459E+01  0.59751835186E+01  0.51100000000E-03 0. -1.
        -11    1    3    3    0    0 -0.58588082941E+00 -0.43575663223E+01 -0.42446621464E+01  0.61113662628E+01  0.51100000000E-03 0.  1.
         12    1    3    3    0    0  0.23117198471E+02  0.27231629714E+00 -0.27204089803E+02  0.35700721608E+02  0.00000000000E+00 0. -1.
</event>
<event>
 7    1  0.2599124E-010  0.4778727E+02  0.7816164E-02  0.1312668E+00
        -11   -1    0    0    0    0  0.00000000000E+00  0.00000000000E+00  0.45593999997E+02  0.45594000000E+02  0.51100000000E-03 0.  1.
         11   -1    0    0    0    0 -0.00000000000E+00 -0.00000000000E+00 -0.45593999997E+02  0.45594000000E+02  0.51100000000E-03 0. -1.
    9900012    2    1    2    0    0 -0.14900248722E+02 -0.19078987511E+02  0.36022186121E+02  0.47787273401E+02  0.20000010744E+02 0.  0.
         12    1    1    2    0    0  0.14900248722E+02  0.19078987511E+02 -0.36022186121E+02  0.43400726599E+02  0.00000000000E+00 0. -1.
         11    1    3    3    0    0 -0.10368924446E+01 -0.12815851204E+02  0.78664064345E+01  0.15073205979E+02  0.51100000000E-03 0. -1.
        -11    1    3    3    0    0 -0.48754860281E+01 -0.98898648577E+00  0.39227810505E+01  0.63353507961E+01  0.51100000000E-03 0.  1.
        -12    1    3    3    0    0 -0.89878702491E+01 -0.52741498213E+01  0.24232998636E+02  0.26378716626E+02  0.00000000000E+00 0.  1.
</event>
<event>
 7    1  0.2599124E-010  0.4778727E+02  0.7816164E-02  0.1312668E+00
        -11   -1    0    0    0    0  0.00000000000E+00  0.00000000000E+00  0.45593999997E+02  0.45594000000E+02  0.51100000000E-03 0. -1.
         11   -1    0    0    0    0 -0.00000000000E+00 -0.00000000000E+00 -0.45593999997E+02  0.45594000000E+02  0.51100000000E-03 0.  1.
    9900012    2    1    2    0    0 -0.96564651404E+01  0.37341875515E+02 -0.19898752117E+02  0.47787270493E+02  0.19999997484E+02 0.  0.
         12    1    1    2    0    0  0.96564651404E+01 -0.37341875515E+02  0.19898752117E+02  0.43400729507E+02  0.00000000000E+00 0. -1.
         11    1    3    3    0    0  0.72967246420E+00  0.51305911849E+01 -0.74339958166E+01  0.90619910546E+01  0.51100000000E-03 0. -1.
        -11    1    3    3    0    0 -0.21112981190E+01  0.21769885051E+02 -0.12904795551E+02  0.25395259860E+02  0.51100000000E-03 0.  1.
        -12    1    3    3    0    0 -0.82748394856E+01  0.10441399279E+02  0.44003925058E+00  0.13330019578E+02  0.00000000000E+00 0.  1.
</event>
<event>
 7    1  0.2599124E-010  0.4778727E+02  0.7816164E-02  0.1312668E+00
        -11   -1    0    0    0    0  0.00000000000E+00  0.00000000000E+00  0.45593999997E+02  0.45594000000E+02  0.51100000000E-03 0.  1.
         11   -1    0    0    0    0 -0.00000000000E+00 -0.00000000000E+00 -0.45593999997E+02  0.45594000000E+02  0.51100000000E-03 0. -1.
    9900012    2    1    2    0    0 -0.15131800056E+00 -0.36098020690E+02  0.24094259778E+02  0.47787270177E+02  0.19999996046E+02 0.  0.
         12    1    1    2    0    0  0.15131800056E+00  0.36098020690E+02 -0.24094259778E+02  0.43400729823E+02  0.00000000000E+00 0. -1.
         11    1    3    3    0    0  0.35477441612E+01 -0.27018055755E+01  0.47854368777E+01  0.65411503860E+01  0.51100000000E-03 0. -1.
        -11    1    3    3    0    0  0.20065566874E+01 -0.26974157447E+02  0.18159374909E+02  0.32579047516E+02  0.51100000000E-03 0.  1.
         12    1    3    3    0    0 -0.57056188491E+01 -0.64220576672E+01  0.11494479917E+01  0.86670722749E+01  0.00000000000E+00 0. -1.
</event>
<event>
 7    1  0.2599124E-010  0.4778727E+02  0.7816164E-02  0.1312668E+00
        -11   -1    0    0    0    0  0.00000000000E+00  0.00000000000E+00  0.45593999997E+02  0.45594000000E+02  0.51100000000E-03 0.  1.
         11   -1    0    0    0    0 -0.00000000000E+00 -0.00000000000E+00 -0.45593999997E+02  0.45594000000E+02  0.51100000000E-03 0. -1.
    9900012    2    1    2    0    0 -0.16162018740E+02  0.39741065272E+02 -0.65620306933E+01  0.47787269989E+02  0.19999995188E+02 0.  0.
         12    1    1    2    0    0  0.16162018740E+02 -0.39741065272E+02  0.65620306933E+01  0.43400730011E+02  0.00000000000E+00 0. -1.
         11    1    3    3    0    0  0.40789573845E+01  0.47919755294E+01 -0.15326715934E+01  0.64768823745E+01  0.51100000000E-03 0. -1.
        -11    1    3    3    0    0 -0.64642207510E+01  0.77879799977E+01 -0.38611611876E+01  0.10832698110E+02  0.51100000000E-03 0.  1.
        -12    1    3    3    0    0 -0.13776755373E+02  0.27161109745E+02 -0.11681979124E+01  0.30477689505E+02  0.00000000000E+00 0.  1.
</event>
<event>
 7    1  0.2599124E-010  0.4778727E+02  0.7816164E-02  0.1312668E+00
        -11   -1    0    0    0    0  0.00000000000E+00  0.00000000000E+00  0.45593999997E+02  0.45594000000E+02  0.51100000000E-03 0. -1.
         11   -1    0    0    0    0 -0.00000000000E+00 -0.00000000000E+00 -0.45593999997E+02  0.45594000000E+02  0.51100000000E-03 0.  1.
    9900012    2    1    2    0    0  0.12918619971E+02  0.17277040083E+02 -0.37659480075E+02  0.47787270795E+02  0.19999998865E+02 0.  0.
         12    1    1    2    0    0 -0.12918619971E+02 -0.17277040083E+02  0.37659480075E+02  0.43400729205E+02  0.00000000000E+00 0. -1.
         11    1    3    3    0    0  0.11852649700E+01  0.39503457569E+01 -0.25458926515E+01  0.48468189880E+01  0.51100000000E-03 0.  1.
        -11    1    3    3    0    0  0.16189922960E+00 -0.33345953608E+01 -0.10647302437E+02  0.11158440170E+02  0.51100000000E-03 0. -1.
        -12    1    3    3    0    0  0.11571455771E+02  0.16661289687E+02 -0.24466284986E+02  0.31782011637E+02  0.00000000000E+00 0.  1.
</event>
<event>
 7    1  0.2599124E-010  0.4778729E+02  0.7816164E-02  0.1312668E+00
        -11   -1    0    0    0    0  0.00000000000E+00  0.00000000000E+00  0.45593999997E+02  0.45594000000E+02  0.51100000000E-03 0.  1.
         11   -1    0    0    0    0 -0.00000000000E+00 -0.00000000000E+00 -0.45593999997E+02  0.45594000000E+02  0.51100000000E-03 0. -1.
    9900012    2    1    2    0    0 -0.23567372834E+02 -0.91716489938E+01  0.35271543383E+02  0.47787285949E+02  0.20000067955E+02 0.  0.
         12    1    1    2    0    0  0.23567372834E+02  0.91716489938E+01 -0.35271543383E+02  0.43400714051E+02  0.00000000000E+00 0. -1.
         11    1    3    3    0    0 -0.39729477900E+01 -0.28674248381E+01  0.83643010375E+01  0.96937078279E+01  0.51100000000E-03 0.  1.
        -11    1    3    3    0    0 -0.13310714554E+02 -0.27894792995E+01  0.27691738429E+02  0.30851072821E+02  0.51100000000E-03 0. -1.
         12    1    3    3    0    0 -0.62837104895E+01 -0.35147448561E+01 -0.78449608387E+00  0.72425053004E+01  0.00000000000E+00 0. -1.
</event>
<event>
 7    1  0.2599124E-010  0.4778725E+02  0.7816164E-02  0.1312668E+00
        -11   -1    0    0    0    0  0.00000000000E+00  0.00000000000E+00  0.45593999997E+02  0.45594000000E+02  0.51100000000E-03 0.  1.
         11   -1    0    0    0    0 -0.00000000000E+00 -0.00000000000E+00 -0.45593999997E+02  0.45594000000E+02  0.51100000000E-03 0. -1.
    9900012    2    1    2    0    0 -0.16901308454E+02 -0.22347435357E+02  0.33144570789E+02  0.47787254991E+02  0.19999926807E+02 0.  0.
         12    1    1    2    0    0  0.16901308454E+02  0.22347435357E+02 -0.33144570789E+02  0.43400745009E+02  0.00000000000E+00 0. -1.
         11    1    3    3    0    0 -0.11828193803E-04 -0.33954363141E+01 -0.96265433931E+00  0.35292621611E+01  0.51100000000E-03 0. -1.
        -11    1    3    3    0    0  0.79897129748E+00 -0.64600951021E+01  0.87646076576E+01  0.10917395821E+02  0.51100000000E-03 0.  1.
         12    1    3    3    0    0 -0.17700267923E+02 -0.12491903941E+02  0.25342617471E+02  0.33340597009E+02  0.00000000000E+00 0. -1.
</event>
<event>
 7    1  0.2599124E-010  0.4778728E+02  0.7816164E-02  0.1312668E+00
        -11   -1    0    0    0    0  0.00000000000E+00  0.00000000000E+00  0.45593999997E+02  0.45594000000E+02  0.51100000000E-03 0.  1.
         11   -1    0    0    0    0 -0.00000000000E+00 -0.00000000000E+00 -0.45593999997E+02  0.45594000000E+02  0.51100000000E-03 0. -1.
    9900012    2    1    2    0    0  0.78998762526E+01  0.20196166574E+02  0.37594275884E+02  0.47787276868E+02  0.20000026553E+02 0.  0.
         12    1    1    2    0    0 -0.78998762526E+01 -0.20196166574E+02 -0.37594275884E+02  0.43400723132E+02  0.00000000000E+00 0. -1.
         11    1    3    3    0    0 -0.96073510247E+00  0.11338172880E+01 -0.96673259081E+00  0.17728862747E+01  0.51100000000E-03 0. -1.
        -11    1    3    3    0    0  0.12983205595E+01 -0.16999734730E+01  0.81325706296E+01  0.84091766179E+01  0.51100000000E-03 0.  1.
        -12    1    3    3    0    0  0.75622907955E+01  0.20762322759E+02  0.30428437845E+02  0.37605213976E+02  0.00000000000E+00 0.  1.
</event>
<event>
 7    1  0.2599124E-010  0.4778727E+02  0.7816164E-02  0.1312668E+00
        -11   -1    0    0    0    0  0.00000000000E+00  0.00000000000E+00  0.45593999997E+02  0.45594000000E+02  0.51100000000E-03 0. -1.
         11   -1    0    0    0    0 -0.00000000000E+00 -0.00000000000E+00 -0.45593999997E+02  0.45594000000E+02  0.51100000000E-03 0.  1.
    9900012    2    1    2    0    0 -0.39569314007E+02 -0.17428024806E+02 -0.37625388888E+01  0.47787270070E+02  0.19999995556E+02 0.  0.
         12    1    1    2    0    0  0.39569314007E+02  0.17428024806E+02  0.37625388888E+01  0.43400729930E+02  0.00000000000E+00 0. -1.
         11    1    3    3    0    0 -0.12370223815E+02 -0.23657269291E+00  0.22004374293E+01  0.12566635548E+02  0.51100000000E-03 0. -1.
        -11    1    3    3    0    0 -0.23310453732E+02 -0.87245300415E+01 -0.69753280702E+01  0.25848595312E+02  0.51100000000E-03 0.  1.
        -12    1    3    3    0    0 -0.38886364603E+01 -0.84669220713E+01  0.10123517521E+01  0.93720392099E+01  0.00000000000E+00 0.  1.
</event>
<event>
 7    1  0.2599124E-010  0.4778727E+02  0.7816164E-02  0.1312668E+00
        -11   -1    0    0    0    0  0.00000000000E+00  0.00000000000E+00  0.45593999997E+02  0.45594000000E+02  0.51100000000E-03 0.  1.
         11   -1    0    0    0    0 -0.00000000000E+00 -0.00000000000E+00 -0.45593999997E+02  0.45594000000E+02  0.51100000000E-03 0. -1.
    9900012    2    1    2    0    0  0.24381946482E+02  0.31940757011E+02  0.16399146289E+02  0.47787271069E+02  0.20000000114E+02 0.  0.
         12    1    1    2    0    0 -0.24381946482E+02 -0.31940757011E+02 -0.16399146289E+02  0.43400728931E+02  0.00000000000E+00 0. -1.
         11    1    3    3    0    0  0.12902193170E+02  0.16168475889E+02  0.36270345863E+01  0.21000990008E+02  0.51100000000E-03 0. -1.
        -11    1    3    3    0    0  0.62746801742E+01  0.12923585876E+02  0.14693149295E+02  0.20549435993E+02  0.51100000000E-03 0.  1.
        -12    1    3    3    0    0  0.52050731376E+01  0.28486952464E+01 -0.19210375917E+01  0.62368450680E+01  0.00000000000E+00 0.  1.
</event>
<event>
 7    1  0.2644629E-010  0.4778727E+02  0.7816164E-02  0.1312668E+00
        -11   -1    0    0    0    0  0.00000000000E+00  0.00000000000E+00  0.45593999997E+02  0.45594000000E+02  0.51100000000E-03 0. -1.
         11   -1    0    0    0    0 -0.00000000000E+00 -0.00000000000E+00 -0.45593999997E+02  0.45594000000E+02  0.51100000000E-03 0.  1.
    9900012    2    1    2    0    0 -0.29319501704E+02 -0.27843956767E+02 -0.15770367743E+02  0.47787267203E+02  0.19999982484E+02 0.  0.
         12    1    1    2    0    0  0.29319501704E+02  0.27843956767E+02  0.15770367743E+02  0.43400732797E+02  0.00000000000E+00 0. -1.
         11    1    3    3    0    0 -0.21259504229E+01 -0.39169912948E+01  0.22706437909E+01  0.50018306139E+01  0.51100000000E-03 0. -1.
        -11    1    3    3    0    0 -0.21996101308E+02 -0.20837538396E+02 -0.84632177874E+01  0.31458822844E+02  0.51100000000E-03 0.  1.
        -12    1    3    3    0    0 -0.51974499733E+01 -0.30894270763E+01 -0.95777937460E+01  0.11326613745E+02  0.00000000000E+00 0.  1.
</event>
<event>
 7    1  0.2599124E-010  0.4778727E+02  0.7816164E-02  0.1312668E+00
        -11   -1    0    0    0    0  0.00000000000E+00  0.00000000000E+00  0.45593999997E+02  0.45594000000E+02  0.51100000000E-03 0.  1.
         11   -1    0    0    0    0 -0.00000000000E+00 -0.00000000000E+00 -0.45593999997E+02  0.45594000000E+02  0.51100000000E-03 0. -1.
    9900012    2    1    2    0    0  0.24638051315E+02 -0.31610685035E+02  0.16653970313E+02  0.47787266041E+02  0.19999977189E+02 0.  0.
         12    1    1    2    0    0 -0.24638051315E+02  0.31610685035E+02 -0.16653970313E+02  0.43400733959E+02  0.00000000000E+00 0. -1.
         11    1    3    3    0    0 -0.13549251071E+01  0.59189127060E+00 -0.71852743688E+00  0.16439097484E+01  0.51100000000E-03 0. -1.
        -11    1    3    3    0    0  0.17244893517E+01 -0.76081670731E+01  0.86019231981E+00  0.78484393878E+01  0.51100000000E-03 0.  1.
        -12    1    3    3    0    0  0.24268487070E+02 -0.24594409232E+02  0.16512305430E+02  0.38294916905E+02  0.00000000000E+00 0.  1.
</event>
<event>
 7    1  0.2599124E-010  0.4778727E+02  0.7816164E-02  0.1312668E+00
        -11   -1    0    0    0    0  0.00000000000E+00  0.00000000000E+00  0.45593999997E+02  0.45594000000E+02  0.51100000000E-03 0. -1.
         11   -1    0    0    0    0 -0.00000000000E+00 -0.00000000000E+00 -0.45593999997E+02  0.45594000000E+02  0.51100000000E-03 0.  1.
    9900012    2    1    2    0    0  0.26874854728E+02  0.32443463889E+02 -0.10430098891E+02  0.47787272718E+02  0.20000007629E+02 0.  0.
         12    1    1    2    0    0 -0.26874854728E+02 -0.32443463889E+02  0.10430098891E+02  0.43400727282E+02  0.00000000000E+00 0. -1.
         11    1    3    3    0    0  0.61618653379E+01  0.11335204811E+02 -0.91045229368E+01  0.15790750163E+02  0.51100000000E-03 0. -1.
        -11    1    3    3    0    0  0.62138569616E+01  0.11872345701E+02 -0.52011759565E+01  0.14374172755E+02  0.51100000000E-03 0.  1.
         12    1    3    3    0    0  0.14499132429E+02  0.92359133763E+01  0.38756000027E+01  0.17622349800E+02  0.00000000000E+00 0. -1.
</event>
<event>
 7    1  0.2599124E-010  0.4778727E+02  0.7816164E-02  0.1312668E+00
        -11   -1    0    0    0    0  0.00000000000E+00  0.00000000000E+00  0.45593999997E+02  0.45594000000E+02  0.51100000000E-03 0.  1.
         11   -1    0    0    0    0 -0.00000000000E+00 -0.00000000000E+00 -0.45593999997E+02  0.45594000000E+02  0.51100000000E-03 0. -1.
    9900012    2    1    2    0    0 -0.14414005957E+02  0.26472263501E+02  0.31226258125E+02  0.47787268450E+02  0.19999988171E+02 0.  0.
         12    1    1    2    0    0  0.14414005957E+02 -0.26472263501E+02 -0.31226258125E+02  0.43400731550E+02  0.00000000000E+00 0. -1.
         11    1    3    3    0    0  0.14740717014E+01  0.13014727748E+02  0.64205000116E+01  0.14586940954E+02  0.51100000000E-03 0. -1.
        -11    1    3    3    0    0 -0.23091512716E+01  0.59312995999E+01  0.53891142984E+01  0.83399668897E+01  0.51100000000E-03 0.  1.
        -12    1    3    3    0    0 -0.13578926387E+02  0.75262361528E+01  0.19416643815E+02  0.24860360606E+02  0.00000000000E+00 0.  1.
</event>
<event>
 7    1  0.2599124E-010  0.4778727E+02  0.7816164E-02  0.1312668E+00
        -11   -1    0    0    0    0  0.00000000000E+00  0.00000000000E+00  0.45593999997E+02  0.45594000000E+02  0.51100000000E-03 0.  1.
         11   -1    0    0    0    0 -0.00000000000E+00 -0.00000000000E+00 -0.45593999997E+02  0.45594000000E+02  0.51100000000E-03 0. -1.
    9900012    2    1    2    0    0  0.78240858147E+01 -0.40597366153E+02  0.13200784028E+02  0.47787272398E+02  0.20000006171E+02 0.  0.
         12    1    1    2    0    0 -0.78240858147E+01  0.40597366153E+02 -0.13200784028E+02  0.43400727602E+02  0.00000000000E+00 0. -1.
         11    1    3    3    0    0 -0.26004252438E+00 -0.61919908455E+01  0.68479009821E+01  0.92359147282E+01  0.51100000000E-03 0. -1.
        -11    1    3    3    0    0  0.74860758189E+01 -0.65912934750E+01  0.35618821557E+01  0.10591198496E+02  0.51100000000E-03 0.  1.
        -12    1    3    3    0    0  0.59805252022E+00 -0.27814081833E+02  0.27910008903E+01  0.27960159173E+02  0.00000000000E+00 0.  1.
</event>
<event>
 7    1  0.2599124E-010  0.4778727E+02  0.7816164E-02  0.1312668E+00
        -11   -1    0    0    0    0  0.00000000000E+00  0.00000000000E+00  0.45593999997E+02  0.45594000000E+02  0.51100000000E-03 0. -1.
         11   -1    0    0    0    0 -0.00000000000E+00 -0.00000000000E+00 -0.45593999997E+02  0.45594000000E+02  0.51100000000E-03 0.  1.
    9900012    2    1    2    0    0 -0.54163838756E+01  0.42159183842E+02  0.87686518864E+01  0.47787271291E+02  0.20000001125E+02 0.  0.
         12    1    1    2    0    0  0.54163838756E+01 -0.42159183842E+02 -0.87686518864E+01  0.43400728709E+02  0.00000000000E+00 0. -1.
         11    1    3    3    0    0 -0.52300869823E+01  0.20356282732E+02  0.49226276210E+01  0.21586206695E+02  0.51100000000E-03 0. -1.
        -11    1    3    3    0    0  0.22263257631E+01  0.22388367168E+02  0.11384385130E+01  0.22527573179E+02  0.51100000000E-03 0.  1.
         12    1    3    3    0    0 -0.24126226564E+01 -0.58546605732E+00  0.27075857524E+01  0.36734914173E+01  0.00000000000E+00 0. -1.
</event>
<event>
 7    1  0.2599124E-010  0.4778727E+02  0.7816164E-02  0.1312668E+00
        -11   -1    0    0    0    0  0.00000000000E+00  0.00000000000E+00  0.45593999997E+02  0.45594000000E+02  0.51100000000E-03 0.  1.
         11   -1    0    0    0    0 -0.00000000000E+00 -0.00000000000E+00 -0.45593999997E+02  0.45594000000E+02  0.51100000000E-03 0. -1.
    9900012    2    1    2    0    0 -0.35307505431E+02 -0.83241046826E+01  0.23826723841E+02  0.47787269274E+02  0.19999991930E+02 0.  0.
         12    1    1    2    0    0  0.35307505431E+02  0.83241046826E+01 -0.23826723841E+02  0.43400730726E+02  0.00000000000E+00 0. -1.
         11    1    3    3    0    0 -0.61133301108E+01 -0.11303411245E+01 -0.21628384253E+01  0.65824270916E+01  0.51100000000E-03 0. -1.
        -11    1    3    3    0    0 -0.21452598623E+02 -0.22472121802E+01  0.12643494728E+02  0.25002438070E+02  0.51100000000E-03 0.  1.
        -12    1    3    3    0    0 -0.77415766974E+01 -0.49465513780E+01  0.13346067538E+02  0.16202404113E+02  0.00000000000E+00 0.  1.
</event>
<event>
 7    1  0.2599124E-010  0.4778727E+02  0.7816164E-02  0.1312668E+00
        -11   -1    0    0    0    0  0.00000000000E+00  0.00000000000E+00  0.45593999997E+02  0.45594000000E+02  0.51100000000E-03 0.  1.
         11   -1    0    0    0    0 -0.00000000000E+00 -0.00000000000E+00 -0.45593999997E+02  0.45594000000E+02  0.51100000000E-03 0. -1.
    9900012    2    1    2    0    0  0.38528743561E+01  0.42072036437E+02  0.99359182455E+01  0.47787270027E+02  0.19999995363E+02 0.  0.
         12    1    1    2    0    0 -0.38528743561E+01 -0.42072036437E+02 -0.99359182455E+01  0.43400729973E+02  0.00000000000E+00 0. -1.
         11    1    3    3    0    0 -0.34209820574E+01  0.14523876859E+02  0.63351260042E+01  0.16210488549E+02  0.51100000000E-03 0.  1.
        -11    1    3    3    0    0  0.15268672524E+01  0.22718797536E+02 -0.96519085259E+00  0.22790495360E+02  0.51100000000E-03 0. -1.
         12    1    3    3    0    0  0.57469891611E+01  0.48293620424E+01  0.45659830938E+01  0.87862861191E+01  0.00000000000E+00 0. -1.
</event>
<event>
 7    1  0.2599124E-010  0.4778727E+02  0.7816164E-02  0.1312668E+00
        -11   -1    0    0    0    0  0.00000000000E+00  0.00000000000E+00  0.45593999997E+02  0.45594000000E+02  0.51100000000E-03 0.  1.
         11   -1    0    0    0    0 -0.00000000000E+00 -0.00000000000E+00 -0.45593999997E+02  0.45594000000E+02  0.51100000000E-03 0. -1.
    9900012    2    1    2    0    0 -0.38561917183E+01 -0.35887734772E+02  0.24100276327E+02  0.47787273731E+02  0.20000012249E+02 0.  0.
         12    1    1    2    0    0  0.38561917183E+01  0.35887734772E+02 -0.24100276327E+02  0.43400726269E+02  0.00000000000E+00 0. -1.
         11    1    3    3    0    0 -0.18201298388E+01 -0.13605273489E+02  0.10698627303E+02  0.17403360760E+02  0.51100000000E-03 0.  1.
        -11    1    3    3    0    0 -0.69394157349E+01 -0.49803136074E+01  0.77492811389E+01  0.11533012304E+02  0.51100000000E-03 0. -1.
         12    1    3    3    0    0  0.49033538554E+01 -0.17302147676E+02  0.56523678851E+01  0.18850900667E+02  0.00000000000E+00 0. -1.
</event>
<event>
 7    1  0.2599124E-010  0.4778727E+02  0.7816164E-02  0.1312668E+00
        -11   -1    0    0    0    0  0.00000000000E+00  0.00000000000E+00  0.45593999997E+02  0.45594000000E+02  0.51100000000E-03 0.  1.
         11   -1    0    0    0    0 -0.00000000000E+00 -0.00000000000E+00 -0.45593999997E+02  0.45594000000E+02  0.51100000000E-03 0. -1.
    9900012    2    1    2    0    0 -0.22634555928E+02 -0.36961062962E+02 -0.22759215920E+01  0.47787272858E+02  0.20000008270E+02 0.  0.
         12    1    1    2    0    0  0.22634555928E+02  0.36961062962E+02  0.22759215920E+01  0.43400727142E+02  0.00000000000E+00 0. -1.
         11    1    3    3    0    0 -0.30331603492E+01 -0.59593054195E+00 -0.46607671578E+01  0.55926689224E+01  0.51100000000E-03 0. -1.
        -11    1    3    3    0    0 -0.10602080163E+02 -0.12051522966E+02 -0.81663725311E+00  0.16072031802E+02  0.51100000000E-03 0.  1.
         12    1    3    3    0    0 -0.89993154154E+01 -0.24313609454E+02  0.32014828189E+01  0.26122572133E+02  0.00000000000E+00 0. -1.
</event>
<event>
 7    1  0.2599124E-010  0.4778727E+02  0.7816164E-02  0.1312668E+00
        -11   -1    0    0    0    0  0.00000000000E+00  0.00000000000E+00  0.45593999997E+02  0.45594000000E+02  0.51100000000E-03 0.  1.
         11   -1    0    0    0    0 -0.00000000000E+00 -0.00000000000E+00 -0.45593999997E+02  0.45594000000E+02  0.51100000000E-03 0. -1.
    9900012    2    1    2    0    0  0.72383124460E+01  0.75354579372E+01  0.42124181377E+02  0.47787274775E+02  0.20000017009E+02 0.  0.
         12    1    1    2    0    0 -0.72383124460E+01 -0.75354579372E+01 -0.42124181377E+02  0.43400725225E+02  0.00000000000E+00 0. -1.
         11    1    3    3    0    0  0.89465304303E+00  0.21738441563E+01  0.80829721109E+00  0.24858292632E+01  0.51100000000E-03 0. -1.
        -11    1    3    3    0    0 -0.27377817012E+01  0.85218647695E+01  0.20785847493E+02  0.22631152955E+02  0.51100000000E-03 0.  1.
         12    1    3    3    0    0  0.90814411042E+01 -0.31602509886E+01  0.20530036673E+02  0.22670292557E+02  0.00000000000E+00 0. -1.
</event>
<event>
 7    1  0.2599124E-010  0.4778728E+02  0.7816164E-02  0.1312668E+00
        -11   -1    0    0    0    0  0.00000000000E+00  0.00000000000E+00  0.45593999997E+02  0.45594000000E+02  0.51100000000E-03 0. -1.
         11   -1    0    0    0    0 -0.00000000000E+00 -0.00000000000E+00 -0.45593999997E+02  0.45594000000E+02  0.51100000000E-03 0.  1.
    9900012    2    1    2    0    0  0.35508423227E+01 -0.27103795027E+02 -0.33710510695E+02  0.47787277456E+02  0.20000029231E+02 0.  0.
         12    1    1    2    0    0 -0.35508423227E+01  0.27103795027E+02  0.33710510695E+02  0.43400722544E+02  0.00000000000E+00 0. -1.
         11    1    3    3    0    0 -0.47258370787E+01 -0.52544549574E+01 -0.62751533886E+01  0.94509461592E+01  0.51100000000E-03 0. -1.
        -11    1    3    3    0    0  0.10441016510E+01  0.17804736812E+01 -0.20554354091E+01  0.29129108756E+01  0.51100000000E-03 0.  1.
        -12    1    3    3    0    0  0.72325777504E+01 -0.23629813751E+02 -0.25379921897E+02  0.35423420421E+02  0.00000000000E+00 0.  1.
</event>
<event>
 7    1  0.2599124E-010  0.4778727E+02  0.7816164E-02  0.1312668E+00
        -11   -1    0    0    0    0  0.00000000000E+00  0.00000000000E+00  0.45593999997E+02  0.45594000000E+02  0.51100000000E-03 0. -1.
         11   -1    0    0    0    0 -0.00000000000E+00 -0.00000000000E+00 -0.45593999997E+02  0.45594000000E+02  0.51100000000E-03 0.  1.
    9900012    2    1    2    0    0 -0.11014368307E+02 -0.28365095810E+02 -0.30947186963E+02  0.47787270162E+02  0.19999995978E+02 0.  0.
         12    1    1    2    0    0  0.11014368307E+02  0.28365095810E+02  0.30947186963E+02  0.43400729838E+02  0.00000000000E+00 0. -1.
         11    1    3    3    0    0 -0.84358900897E+01 -0.16255266047E+02 -0.13304901533E+02  0.22636658784E+02  0.51100000000E-03 0. -1.
        -11    1    3    3    0    0 -0.40851203754E+01 -0.34080583398E+01  0.11195734749E+00  0.53212409115E+01  0.51100000000E-03 0.  1.
        -12    1    3    3    0    0  0.15066421576E+01 -0.87017714234E+01 -0.17754242778E+02  0.19829370467E+02  0.00000000000E+00 0.  1.
</event>
<event>
 7    1  0.2599124E-010  0.4778727E+02  0.7816164E-02  0.1312668E+00
        -11   -1    0    0    0    0  0.00000000000E+00  0.00000000000E+00  0.45593999997E+02  0.45594000000E+02  0.51100000000E-03 0.  1.
         11   -1    0    0    0    0 -0.00000000000E+00 -0.00000000000E+00 -0.45593999997E+02  0.45594000000E+02  0.51100000000E-03 0. -1.
    9900012    2    1    2    0    0 -0.14983587253E+01 -0.27094873649E+02  0.33871020541E+02  0.47787270866E+02  0.19999999186E+02 0.  0.
         12    1    1    2    0    0  0.14983587253E+01  0.27094873649E+02 -0.33871020541E+02  0.43400729134E+02  0.00000000000E+00 0. -1.
         11    1    3    3    0    0  0.29868635891E+01 -0.45057650777E+00  0.23997764328E+01  0.38578880852E+01  0.51100000000E-03 0. -1.
        -11    1    3    3    0    0  0.51079863612E+01 -0.13010092674E+02  0.14179133596E+02  0.19909843441E+02  0.51100000000E-03 0.  1.
        -12    1    3    3    0    0 -0.95932086757E+01 -0.13634204466E+02  0.17292110512E+02  0.24019539339E+02  0.00000000000E+00 0.  1.
</event>
<event>
 7    1  0.2599124E-010  0.4778727E+02  0.7816164E-02  0.1312668E+00
        -11   -1    0    0    0    0  0.00000000000E+00  0.00000000000E+00  0.45593999997E+02  0.45594000000E+02  0.51100000000E-03 0.  1.
         11   -1    0    0    0    0 -0.00000000000E+00 -0.00000000000E+00 -0.45593999997E+02  0.45594000000E+02  0.51100000000E-03 0. -1.
    9900012    2    1    2    0    0 -0.29312111117E+02 -0.85146527099E+01  0.30853269120E+02  0.47787269773E+02  0.19999994203E+02 0.  0.
         12    1    1    2    0    0  0.29312111117E+02  0.85146527099E+01 -0.30853269120E+02  0.43400730227E+02  0.00000000000E+00 0. -1.
         11    1    3    3    0    0 -0.54498860052E+01 -0.43742867408E+01  0.98812216574E+01  0.12102651927E+02  0.51100000000E-03 0.  1.
        -11    1    3    3    0    0 -0.33479471069E+00 -0.22716574674E+01  0.88676753385E+01  0.91601409005E+01  0.51100000000E-03 0. -1.
        -12    1    3    3    0    0 -0.23527430401E+02 -0.18687085018E+01  0.12104372124E+02  0.26524476945E+02  0.00000000000E+00 0.  1.
</event>
<event>
 7    1  0.2599124E-010  0.4778727E+02  0.7816164E-02  0.1312668E+00
        -11   -1    0    0    0    0  0.00000000000E+00  0.00000000000E+00  0.45593999997E+02  0.45594000000E+02  0.51100000000E-03 0. -1.
         11   -1    0    0    0    0 -0.00000000000E+00 -0.00000000000E+00 -0.45593999997E+02  0.45594000000E+02  0.51100000000E-03 0.  1.
    9900012    2    1    2    0    0  0.20058599738E+02 -0.70807049049E+01 -0.37830403082E+02  0.47787271864E+02  0.20000003736E+02 0.  0.
         12    1    1    2    0    0 -0.20058599738E+02  0.70807049049E+01  0.37830403082E+02  0.43400728136E+02  0.00000000000E+00 0. -1.
         11    1    3    3    0    0  0.10537431719E+01 -0.51785687336E+01 -0.12068336264E+02  0.13174698829E+02  0.51100000000E-03 0. -1.
        -11    1    3    3    0    0  0.13843677896E+02 -0.39995018321E+01 -0.25179395849E+02  0.29011125593E+02  0.51100000000E-03 0.  1.
         12    1    3    3    0    0  0.51611786699E+01  0.20973656609E+01 -0.58267096891E+00  0.56014474411E+01  0.00000000000E+00 0. -1.
</event>
<event>
 7    1  0.2599124E-010  0.4778726E+02  0.7816164E-02  0.1312668E+00
        -11   -1    0    0    0    0  0.00000000000E+00  0.00000000000E+00  0.45593999997E+02  0.45594000000E+02  0.51100000000E-03 0.  1.
         11   -1    0    0    0    0 -0.00000000000E+00 -0.00000000000E+00 -0.45593999997E+02  0.45594000000E+02  0.51100000000E-03 0. -1.
    9900012    2    1    2    0    0 -0.20086087665E+01 -0.14410669714E+02  0.40889142738E+02  0.47787263778E+02  0.19999966870E+02 0.  0.
         12    1    1    2    0    0  0.20086087665E+01  0.14410669714E+02 -0.40889142738E+02  0.43400736222E+02  0.00000000000E+00 0. -1.
         11    1    3    3    0    0  0.32328919199E+01 -0.33272136300E+01  0.29010717862E+02  0.29379307204E+02  0.51100000000E-03 0. -1.
        -11    1    3    3    0    0  0.51418705070E+00 -0.52692988215E+01  0.73463185163E+01  0.90552909615E+01  0.51100000000E-03 0.  1.
         12    1    3    3    0    0 -0.57556877371E+01 -0.58141572623E+01  0.45321063598E+01  0.93526656122E+01  0.00000000000E+00 0. -1.
</event>
<event>
 7    1  0.2599124E-010  0.4778727E+02  0.7816164E-02  0.1312668E+00
        -11   -1    0    0    0    0  0.00000000000E+00  0.00000000000E+00  0.45593999997E+02  0.45594000000E+02  0.51100000000E-03 0.  1.
         11   -1    0    0    0    0 -0.00000000000E+00 -0.00000000000E+00 -0.45593999997E+02  0.45594000000E+02  0.51100000000E-03 0. -1.
    9900012    2    1    2    0    0 -0.22370820532E+02  0.28356143244E+02  0.24064477412E+02  0.47787267932E+02  0.19999985808E+02 0.  0.
         12    1    1    2    0    0  0.22370820532E+02 -0.28356143244E+02 -0.24064477412E+02  0.43400732068E+02  0.00000000000E+00 0. -1.
         11    1    3    3    0    0  0.15127744739E+01  0.66014226789E+01  0.74709623991E+01  0.10083776447E+02  0.51100000000E-03 0. -1.
        -11    1    3    3    0    0 -0.20061936338E+01 -0.89034181501E+00  0.21124434503E+01  0.30462992360E+01  0.51100000000E-03 0.  1.
        -12    1    3    3    0    0 -0.21877401372E+02  0.22645062380E+02  0.14481071563E+02  0.34657192249E+02  0.00000000000E+00 0.  1.
</event>
<event>
 7    1  0.2599124E-010  0.4778727E+02  0.7816164E-02  0.1312668E+00
        -11   -1    0    0    0    0  0.00000000000E+00  0.00000000000E+00  0.45593999997E+02  0.45594000000E+02  0.51100000000E-03 0.  1.
         11   -1    0    0    0    0 -0.00000000000E+00 -0.00000000000E+00 -0.45593999997E+02  0.45594000000E+02  0.51100000000E-03 0. -1.
    9900012    2    1    2    0    0  0.42221540667E+01 -0.41655065383E+02  0.11430316011E+02  0.47787272113E+02  0.20000004872E+02 0.  0.
         12    1    1    2    0    0 -0.42221540667E+01  0.41655065383E+02 -0.11430316011E+02  0.43400727887E+02  0.00000000000E+00 0. -1.
         11    1    3    3    0    0  0.31774296479E+01 -0.21288259377E+01  0.40625297771E+01  0.55796153534E+01  0.51100000000E-03 0. -1.
        -11    1    3    3    0    0 -0.16889679075E+01 -0.32071534460E+01 -0.25831089599E+01  0.44509434931E+01  0.51100000000E-03 0.  1.
        -12    1    3    3    0    0  0.27336923263E+01 -0.36319085999E+02  0.99508951935E+01  0.37756713267E+02  0.00000000000E+00 0.  1.
</event>
<event>
 7    1  0.2599124E-010  0.4778727E+02  0.7816164E-02  0.1312668E+00
        -11   -1    0    0    0    0  0.00000000000E+00  0.00000000000E+00  0.45593999997E+02  0.45594000000E+02  0.51100000000E-03 0.  1.
         11   -1    0    0    0    0 -0.00000000000E+00 -0.00000000000E+00 -0.45593999997E+02  0.45594000000E+02  0.51100000000E-03 0. -1.
    9900012    2    1    2    0    0  0.38906263179E+01  0.12304443683E+01  0.43208476539E+02  0.47787269461E+02  0.19999992781E+02 0.  0.
         12    1    1    2    0    0 -0.38906263179E+01 -0.12304443683E+01 -0.43208476539E+02  0.43400730539E+02  0.00000000000E+00 0. -1.
         11    1    3    3    0    0  0.30382858057E+01 -0.83217101210E+01  0.25993373032E+02  0.27461563718E+02  0.51100000000E-03 0. -1.
        -11    1    3    3    0    0 -0.10612223429E+01  0.35890384446E+01  0.30152331554E+01  0.48061440949E+01  0.51100000000E-03 0.  1.
        -12    1    3    3    0    0  0.19135628551E+01  0.59631160446E+01  0.14199870351E+02  0.15519561648E+02  0.00000000000E+00 0.  1.
</event>
<event>
 7    1  0.2599124E-010  0.4778727E+02  0.7816164E-02  0.1312668E+00
        -11   -1    0    0    0    0  0.00000000000E+00  0.00000000000E+00  0.45593999997E+02  0.45594000000E+02  0.51100000000E-03 0. -1.
         11   -1    0    0    0    0 -0.00000000000E+00 -0.00000000000E+00 -0.45593999997E+02  0.45594000000E+02  0.51100000000E-03 0.  1.
    9900012    2    1    2    0    0 -0.21099024733E+01 -0.42704588399E+02 -0.74491354519E+01  0.47787272151E+02  0.20000005047E+02 0.  0.
         12    1    1    2    0    0  0.21099024733E+01  0.42704588399E+02  0.74491354519E+01  0.43400727849E+02  0.00000000000E+00 0. -1.
         11    1    3    3    0    0  0.17360220097E+01 -0.65655598364E+01 -0.62936939684E+01  0.92590999786E+01  0.51100000000E-03 0. -1.
        -11    1    3    3    0    0 -0.40498485347E+01 -0.11274275962E+02 -0.56739877710E+01  0.13255365295E+02  0.51100000000E-03 0.  1.
         12    1    3    3    0    0  0.20392405171E+00 -0.24864752601E+02  0.45185462875E+01  0.25272806878E+02  0.00000000000E+00 0. -1.
</event>
<event>
 7    1  0.2599124E-010  0.4778727E+02  0.7816164E-02  0.1312668E+00
        -11   -1    0    0    0    0  0.00000000000E+00  0.00000000000E+00  0.45593999997E+02  0.45594000000E+02  0.51100000000E-03 0. -1.
         11   -1    0    0    0    0 -0.00000000000E+00 -0.00000000000E+00 -0.45593999997E+02  0.45594000000E+02  0.51100000000E-03 0.  1.
    9900012    2    1    2    0    0  0.36142720415E+02 -0.22326270808E+02 -0.88805805513E+01  0.47787270534E+02  0.19999997674E+02 0.  0.
         12    1    1    2    0    0 -0.36142720415E+02  0.22326270808E+02  0.88805805513E+01  0.43400729466E+02  0.00000000000E+00 0. -1.
         11    1    3    3    0    0  0.17405090116E+02 -0.93695990857E+01 -0.13945373848E+01  0.19815935097E+02  0.51100000000E-03 0. -1.
        -11    1    3    3    0    0  0.72311322551E+01 -0.78537760582E+01  0.35301506904E+01  0.11244244582E+02  0.51100000000E-03 0.  1.
        -12    1    3    3    0    0  0.11506498044E+02 -0.51028956639E+01 -0.11016193857E+02  0.16727090856E+02  0.00000000000E+00 0.  1.
</event>
<event>
 7    1  0.2599124E-010  0.4778725E+02  0.7816164E-02  0.1312668E+00
        -11   -1    0    0    0    0  0.00000000000E+00  0.00000000000E+00  0.45593999997E+02  0.45594000000E+02  0.51100000000E-03 0. -1.
         11   -1    0    0    0    0 -0.00000000000E+00 -0.00000000000E+00 -0.45593999997E+02  0.45594000000E+02  0.51100000000E-03 0.  1.
    9900012    2    1    2    0    0 -0.39349083242E+02  0.18250647189E+02 -0.14793414836E+01  0.47787252010E+02  0.19999913216E+02 0.  0.
         12    1    1    2    0    0  0.39349083242E+02 -0.18250647189E+02  0.14793414836E+01  0.43400747990E+02  0.00000000000E+00 0. -1.
         11    1    3    3    0    0 -0.10979652761E+02  0.19326086702E+01  0.56734578737E+01  0.12509031758E+02  0.51100000000E-03 0. -1.
        -11    1    3    3    0    0 -0.14702211378E+02  0.76735436809E+01  0.19864217045E+01  0.16702819028E+02  0.51100000000E-03 0.  1.
         12    1    3    3    0    0 -0.13667219103E+02  0.86444948379E+01 -0.91392210618E+01  0.18575401224E+02  0.00000000000E+00 0. -1.
</event>
<event>
 7    1  0.2599124E-010  0.4778728E+02  0.7816164E-02  0.1312668E+00
        -11   -1    0    0    0    0  0.00000000000E+00  0.00000000000E+00  0.45593999997E+02  0.45594000000E+02  0.51100000000E-03 0.  1.
         11   -1    0    0    0    0 -0.00000000000E+00 -0.00000000000E+00 -0.45593999997E+02  0.45594000000E+02  0.51100000000E-03 0. -1.
    9900012    2    1    2    0    0  0.40690905673E+02  0.67223882098E+01  0.13516001983E+02  0.47787278608E+02  0.20000034485E+02 0.  0.
         12    1    1    2    0    0 -0.40690905673E+02 -0.67223882098E+01 -0.13516001983E+02  0.43400721392E+02  0.00000000000E+00 0. -1.
         11    1    3    3    0    0  0.29574455347E+01 -0.49711701429E-01  0.65883839855E+01  0.72218944291E+01  0.51100000000E-03 0. -1.
        -11    1    3    3    0    0  0.11983274814E+02  0.47902686915E+01  0.71185081160E+01  0.14738341408E+02  0.51100000000E-03 0.  1.
         12    1    3    3    0    0  0.25750185325E+02  0.19818312198E+01 -0.19089011846E+00  0.25827042771E+02  0.00000000000E+00 0. -1.
</event>
<event>
 7    1  0.2599124E-010  0.4778727E+02  0.7816164E-02  0.1312668E+00
        -11   -1    0    0    0    0  0.00000000000E+00  0.00000000000E+00  0.45593999997E+02  0.45594000000E+02  0.51100000000E-03 0.  1.
         11   -1    0    0    0    0 -0.00000000000E+00 -0.00000000000E+00 -0.45593999997E+02  0.45594000000E+02  0.51100000000E-03 0. -1.
    9900012    2    1    2    0    0  0.16508733764E+02 -0.15453615184E+02  0.37044177691E+02  0.47787267131E+02  0.19999982157E+02 0.  0.
         12    1    1    2    0    0 -0.16508733764E+02  0.15453615184E+02 -0.37044177691E+02  0.43400732869E+02  0.00000000000E+00 0. -1.
         11    1    3    3    0    0  0.30467254684E+01 -0.11814593483E+02  0.19862231742E+02  0.23310414095E+02  0.51100000000E-03 0. -1.
        -11    1    3    3    0    0  0.48820333641E+01 -0.56658664341E+01  0.36395024230E+01  0.83175880137E+01  0.51100000000E-03 0.  1.
         12    1    3    3    0    0  0.85799749318E+01  0.20268447326E+01  0.13542443526E+02  0.16159265022E+02  0.00000000000E+00 0. -1.
</event>
<event>
 7    1  0.4593587E-010  0.4778725E+02  0.7816164E-02  0.1312668E+00
        -11   -1    0    0    0    0  0.00000000000E+00  0.00000000000E+00  0.45593999997E+02  0.45594000000E+02  0.51100000000E-03 0.  1.
         11   -1    0    0    0    0 -0.00000000000E+00 -0.00000000000E+00 -0.45593999997E+02  0.45594000000E+02  0.51100000000E-03 0. -1.
    9900012    2    1    2    0    0  0.16564175157E+02 -0.38095356781E+02  0.12569674456E+02  0.47787253200E+02  0.19999918640E+02 0.  0.
         12    1    1    2    0    0 -0.16564175157E+02  0.38095356781E+02 -0.12569674456E+02  0.43400746800E+02  0.00000000000E+00 0. -1.
         11    1    3    3    0    0 -0.63991860949E+00  0.17339274936E+00 -0.80844303991E+00  0.10455339699E+01  0.51100000000E-03 0. -1.
        -11    1    3    3    0    0  0.15699945979E+02 -0.23731533307E+02  0.25819354504E+01  0.28571670720E+02  0.51100000000E-03 0.  1.
        -12    1    3    3    0    0  0.15041477874E+01 -0.14537216224E+02  0.10796182045E+02  0.18170048510E+02  0.00000000000E+00 0.  1.
</event>
<event>
 7    1  0.2599124E-010  0.4778727E+02  0.7816164E-02  0.1312668E+00
        -11   -1    0    0    0    0  0.00000000000E+00  0.00000000000E+00  0.45593999997E+02  0.45594000000E+02  0.51100000000E-03 0.  1.
         11   -1    0    0    0    0 -0.00000000000E+00 -0.00000000000E+00 -0.45593999997E+02  0.45594000000E+02  0.51100000000E-03 0. -1.
    9900012    2    1    2    0    0  0.25558594364E+02  0.25394281620E+02  0.24197353269E+02  0.47787272010E+02  0.20000004402E+02 0.  0.
         12    1    1    2    0    0 -0.25558594364E+02 -0.25394281620E+02 -0.24197353269E+02  0.43400727990E+02  0.00000000000E+00 0. -1.
         11    1    3    3    0    0  0.54619844402E+01  0.21263676110E+01  0.89328903678E+01  0.10684158546E+02  0.51100000000E-03 0. -1.
        -11    1    3    3    0    0  0.18339553270E+02  0.15932002179E+02  0.16625858353E+02  0.29437851039E+02  0.51100000000E-03 0.  1.
         12    1    3    3    0    0  0.17570566537E+01  0.73359118306E+01 -0.13613954523E+01  0.76652624252E+01  0.00000000000E+00 0. -1.
</event>
<event>
 7    1  0.2599124E-010  0.4778727E+02  0.7816164E-02  0.1312668E+00
        -11   -1    0    0    0    0  0.00000000000E+00  0.00000000000E+00  0.45593999997E+02  0.45594000000E+02  0.51100000000E-03 0.  1.
         11   -1    0    0    0    0 -0.00000000000E+00 -0.00000000000E+00 -0.45593999997E+02  0.45594000000E+02  0.51100000000E-03 0. -1.
    9900012    2    1    2    0    0 -0.25326778314E+02  0.32851780957E+02  0.12764709881E+02  0.47787273852E+02  0.20000012803E+02 0.  0.
         12    1    1    2    0    0  0.25326778314E+02 -0.32851780957E+02 -0.12764709881E+02  0.43400726148E+02  0.00000000000E+00 0. -1.
         11    1    3    3    0    0  0.11101958336E+01  0.46361405035E+00 -0.90835412950E+00  0.15075079643E+01  0.51100000000E-03 0. -1.
        -11    1    3    3    0    0 -0.99874977651E+01  0.29067271316E+01  0.41808741970E+01  0.11210659371E+02  0.51100000000E-03 0.  1.
        -12    1    3    3    0    0 -0.16449476382E+02  0.29481439775E+02  0.94921898137E+01  0.35069106517E+02  0.00000000000E+00 0.  1.
</event>
<event>
 7    1  0.2599124E-010  0.4778726E+02  0.7816164E-02  0.1312668E+00
        -11   -1    0    0    0    0  0.00000000000E+00  0.00000000000E+00  0.45593999997E+02  0.45594000000E+02  0.51100000000E-03 0.  1.
         11   -1    0    0    0    0 -0.00000000000E+00 -0.00000000000E+00 -0.45593999997E+02  0.45594000000E+02  0.51100000000E-03 0. -1.
    9900012    2    1    2    0    0  0.35166844362E+02 -0.22779217861E+02  0.11314794568E+02  0.47787259397E+02  0.19999946895E+02 0.  0.
         12    1    1    2    0    0 -0.35166844362E+02  0.22779217861E+02 -0.11314794568E+02  0.43400740603E+02  0.00000000000E+00 0. -1.
         11    1    3    3    0    0  0.17415232013E+02 -0.50040828304E+01  0.47615549297E+01  0.18735088915E+02  0.51100000000E-03 0. -1.
        -11    1    3    3    0    0  0.68464545099E+01  0.33276064481E+00  0.34945897697E+01  0.76939474214E+01  0.51100000000E-03 0.  1.
         12    1    3    3    0    0  0.10905157839E+02 -0.18107895676E+02  0.30586498688E+01  0.21358223061E+02  0.00000000000E+00 0. -1.
</event>
<event>
 7    1  0.2599124E-010  0.4778726E+02  0.7816164E-02  0.1312668E+00
        -11   -1    0    0    0    0  0.00000000000E+00  0.00000000000E+00  0.45593999997E+02  0.45594000000E+02  0.51100000000E-03 0.  1.
         11   -1    0    0    0    0 -0.00000000000E+00 -0.00000000000E+00 -0.45593999997E+02  0.45594000000E+02  0.51100000000E-03 0. -1.
    9900012    2    1    2    0    0 -0.13451080108E+02  0.22509249548E+01  0.41202259739E+02  0.47787257762E+02  0.19999939440E+02 0.  0.
         12    1    1    2    0    0  0.13451080108E+02 -0.22509249548E+01 -0.41202259739E+02  0.43400742238E+02  0.00000000000E+00 0. -1.
         11    1    3    3    0    0 -0.11280266616E+02  0.20889371088E+01  0.12612468039E+02  0.17049411236E+02  0.51100000000E-03 0. -1.
        -11    1    3    3    0    0 -0.23494031359E+01  0.32928766704E+01  0.32071671079E+01  0.51622333326E+01  0.51100000000E-03 0.  1.
        -12    1    3    3    0    0  0.17858964382E+00 -0.31308888244E+01  0.25382624591E+02  0.25575613194E+02  0.00000000000E+00 0.  1.
</event>
<event>
 7    1  0.2599124E-010  0.4778727E+02  0.7816164E-02  0.1312668E+00
        -11   -1    0    0    0    0  0.00000000000E+00  0.00000000000E+00  0.45593999997E+02  0.45594000000E+02  0.51100000000E-03 0.  1.
         11   -1    0    0    0    0 -0.00000000000E+00 -0.00000000000E+00 -0.45593999997E+02  0.45594000000E+02  0.51100000000E-03 0. -1.
    9900012    2    1    2    0    0 -0.19991837078E+02 -0.18875372967E+02  0.33580800005E+02  0.47787269783E+02  0.19999994248E+02 0.  0.
         12    1    1    2    0    0  0.19991837078E+02  0.18875372967E+02 -0.33580800005E+02  0.43400730217E+02  0.00000000000E+00 0. -1.
         11    1    3    3    0    0 -0.75587491646E+01 -0.37613421984E+01  0.42534062328E+01  0.94537743209E+01  0.51100000000E-03 0. -1.
        -11    1    3    3    0    0 -0.15740379048E+02 -0.13378926880E+02  0.26738743400E+02  0.33789282560E+02  0.51100000000E-03 0.  1.
         12    1    3    3    0    0  0.33072911342E+01 -0.17351038891E+01  0.25886503718E+01  0.45442129022E+01  0.00000000000E+00 0. -1.
</event>
<event>
 7    1  0.2599124E-010  0.4778726E+02  0.7816164E-02  0.1312668E+00
        -11   -1    0    0    0    0  0.00000000000E+00  0.00000000000E+00  0.45593999997E+02  0.45594000000E+02  0.51100000000E-03 0.  1.
         11   -1    0    0    0    0 -0.00000000000E+00 -0.00000000000E+00 -0.45593999997E+02  0.45594000000E+02  0.51100000000E-03 0. -1.
    9900012    2    1    2    0    0  0.35567661062E+02  0.23514954318E+02 -0.81001564626E+01  0.47787261242E+02  0.19999955306E+02 0.  0.
         12    1    1    2    0    0 -0.35567661062E+02 -0.23514954318E+02  0.81001564626E+01  0.43400738758E+02  0.00000000000E+00 0. -1.
         11    1    3    3    0    0  0.84660725501E+01 -0.15961979006E+01 -0.37758525877E+01  0.94063433484E+01  0.51100000000E-03 0. -1.
        -11    1    3    3    0    0  0.15495442061E+01  0.10272204803E+01  0.19691412192E+01  0.27080964836E+01  0.51100000000E-03 0.  1.
        -12    1    3    3    0    0  0.25552044306E+02  0.24083931738E+02 -0.62934450941E+01  0.35672821410E+02  0.00000000000E+00 0.  1.
</event>
<event>
 7    1  0.2599124E-010  0.4778727E+02  0.7816164E-02  0.1312668E+00
        -11   -1    0    0    0    0  0.00000000000E+00  0.00000000000E+00  0.45593999997E+02  0.45594000000E+02  0.51100000000E-03 0.  1.
         11   -1    0    0    0    0 -0.00000000000E+00 -0.00000000000E+00 -0.45593999997E+02  0.45594000000E+02  0.51100000000E-03 0. -1.
    9900012    2    1    2    0    0  0.34254880987E+02 -0.13136147109E+02  0.23187669763E+02  0.47787271189E+02  0.20000000657E+02 0.  0.
         12    1    1    2    0    0 -0.34254880987E+02  0.13136147109E+02 -0.23187669763E+02  0.43400728811E+02  0.00000000000E+00 0. -1.
         11    1    3    3    0    0  0.11623019418E+02  0.80668070240E+00  0.15014107576E+02  0.19004440026E+02  0.51100000000E-03 0. -1.
        -11    1    3    3    0    0  0.98081306833E+00 -0.11827378165E+01  0.26320555696E+01  0.30477171457E+01  0.51100000000E-03 0.  1.
        -12    1    3    3    0    0  0.21651048501E+02 -0.12760089995E+02  0.55415066181E+01  0.25735114017E+02  0.00000000000E+00 0.  1.
</event>
<event>
 7    1  0.2599124E-010  0.4778728E+02  0.7816164E-02  0.1312668E+00
        -11   -1    0    0    0    0  0.00000000000E+00  0.00000000000E+00  0.45593999997E+02  0.45594000000E+02  0.51100000000E-03 0.  1.
         11   -1    0    0    0    0 -0.00000000000E+00 -0.00000000000E+00 -0.45593999997E+02  0.45594000000E+02  0.51100000000E-03 0. -1.
    9900012    2    1    2    0    0  0.94143033696E+01  0.41678651988E+02 -0.76081266258E+01  0.47787277308E+02  0.20000028557E+02 0.  0.
         12    1    1    2    0    0 -0.94143033696E+01 -0.41678651988E+02  0.76081266258E+01  0.43400722692E+02  0.00000000000E+00 0. -1.
         11    1    3    3    0    0  0.81429002411E+01  0.11632820997E+02 -0.36044931712E+01  0.14649973378E+02  0.51100000000E-03 0. -1.
        -11    1    3    3    0    0  0.15042672386E+01  0.21940513652E+02 -0.88328296171E+01  0.23699532454E+02  0.51100000000E-03 0.  1.
         12    1    3    3    0    0 -0.23286411011E+00  0.81053173388E+01  0.48291961625E+01  0.94377714760E+01  0.00000000000E+00 0. -1.
</event>
<event>
 7    1  0.2599124E-010  0.4778724E+02  0.7816164E-02  0.1312668E+00
        -11   -1    0    0    0    0  0.00000000000E+00  0.00000000000E+00  0.45593999997E+02  0.45594000000E+02  0.51100000000E-03 0.  1.
         11   -1    0    0    0    0 -0.00000000000E+00 -0.00000000000E+00 -0.45593999997E+02  0.45594000000E+02  0.51100000000E-03 0. -1.
    9900012    2    1    2    0    0 -0.27822235208E+02 -0.93690745163E+01  0.31965125923E+02  0.47787244194E+02  0.19999877580E+02 0.  0.
         12    1    1    2    0    0  0.27822235208E+02  0.93690745163E+01 -0.31965125923E+02  0.43400755806E+02  0.00000000000E+00 0. -1.
         11    1    3    3    0    0 -0.10680554738E+01  0.39242559031E+00  0.42005254152E+01  0.43519138737E+01  0.51100000000E-03 0. -1.
        -11    1    3    3    0    0 -0.25432998017E+02 -0.94674005858E+01  0.30229176766E+02  0.40623542315E+02  0.51100000000E-03 0.  1.
        -12    1    3    3    0    0 -0.13211817170E+01 -0.29409952080E+00 -0.24645762585E+01  0.28117880061E+01  0.00000000000E+00 0.  1.
</event>
<event>
 7    1  0.2599124E-010  0.4778726E+02  0.7816164E-02  0.1312668E+00
        -11   -1    0    0    0    0  0.00000000000E+00  0.00000000000E+00  0.45593999997E+02  0.45594000000E+02  0.51100000000E-03 0.  1.
         11   -1    0    0    0    0 -0.00000000000E+00 -0.00000000000E+00 -0.45593999997E+02  0.45594000000E+02  0.51100000000E-03 0. -1.
    9900012    2    1    2    0    0 -0.17633660045E+02 -0.29684669500E+02  0.26296358703E+02  0.47787262092E+02  0.19999959183E+02 0.  0.
         12    1    1    2    0    0  0.17633660045E+02  0.29684669500E+02 -0.26296358703E+02  0.43400737908E+02  0.00000000000E+00 0. -1.
         11    1    3    3    0    0 -0.87382624998E+01 -0.26687718343E+01  0.76358078260E+01  0.11907356383E+02  0.51100000000E-03 0. -1.
        -11    1    3    3    0    0  0.13478893389E+01  0.37398139868E+00  0.73075573511E+00  0.15781862887E+01  0.51100000000E-03 0.  1.
        -12    1    3    3    0    0 -0.10243286884E+02 -0.27389879065E+02  0.17929795142E+02  0.34301719420E+02  0.00000000000E+00 0.  1.
</event>
<event>
 7    1  0.2745709E-010  0.4778728E+02  0.7816164E-02  0.1312668E+00
        -11   -1    0    0    0    0  0.00000000000E+00  0.00000000000E+00  0.45593999997E+02  0.45594000000E+02  0.51100000000E-03 0. -1.
         11   -1    0    0    0    0 -0.00000000000E+00 -0.00000000000E+00 -0.45593999997E+02  0.45594000000E+02  0.51100000000E-03 0.  1.
    9900012    2    1    2    0    0 -0.32780825900E+02  0.27720151368E+02  0.63744456230E+01  0.47787275402E+02  0.20000019870E+02 0.  0.
         12    1    1    2    0    0  0.32780825900E+02 -0.27720151368E+02 -0.63744456230E+01  0.43400724598E+02  0.00000000000E+00 0. -1.
         11    1    3    3    0    0 -0.25333455857E+01  0.46449066248E+00 -0.32257622623E+01  0.41278485760E+01  0.51100000000E-03 0. -1.
        -11    1    3    3    0    0 -0.16250810981E+02  0.14585943099E+02 -0.12714504056E+01  0.21873618357E+02  0.51100000000E-03 0.  1.
        -12    1    3    3    0    0 -0.13996669333E+02  0.12669717607E+02  0.10871658291E+02  0.21785808469E+02  0.00000000000E+00 0.  1.
</event>
<event>
 7    1  0.2599124E-010  0.4778727E+02  0.7816164E-02  0.1312668E+00
        -11   -1    0    0    0    0  0.00000000000E+00  0.00000000000E+00  0.45593999997E+02  0.45594000000E+02  0.51100000000E-03 0.  1.
         11   -1    0    0    0    0 -0.00000000000E+00 -0.00000000000E+00 -0.45593999997E+02  0.45594000000E+02  0.51100000000E-03 0. -1.
    9900012    2    1    2    0    0  0.38480779079E+02  0.58887342067E+01  0.19187916391E+02  0.47787266313E+02  0.19999978428E+02 0.  0.
         12    1    1    2    0    0 -0.38480779079E+02 -0.58887342067E+01 -0.19187916391E+02  0.43400733687E+02  0.00000000000E+00 0. -1.
         11    1    3    3    0    0 -0.62015625459E-01 -0.22328664406E+01  0.17342695242E+01  0.28279373266E+01  0.51100000000E-03 0. -1.
        -11    1    3    3    0    0  0.33492229151E+01 -0.97408515133E+00  0.58343364675E+01  0.67974714633E+01  0.51100000000E-03 0.  1.
        -12    1    3    3    0    0  0.35193571790E+02  0.90956857986E+01  0.11619310400E+02  0.38161857523E+02  0.00000000000E+00 0.  1.
</event>
<event>
 7    1  0.2599124E-010  0.4778727E+02  0.7816164E-02  0.1312668E+00
        -11   -1    0    0    0    0  0.00000000000E+00  0.00000000000E+00  0.45593999997E+02  0.45594000000E+02  0.51100000000E-03 0. -1.
         11   -1    0    0    0    0 -0.00000000000E+00 -0.00000000000E+00 -0.45593999997E+02  0.45594000000E+02  0.51100000000E-03 0.  1.
    9900012    2    1    2    0    0  0.17304951884E+01 -0.41495746604E+02 -0.12598875656E+02  0.47787271117E+02  0.20000000330E+02 0.  0.
         12    1    1    2    0    0 -0.17304951884E+01  0.41495746604E+02  0.12598875656E+02  0.43400728883E+02  0.00000000000E+00 0. -1.
         11    1    3    3    0    0  0.97199232138E+01 -0.19884016960E+02 -0.91162956545E+01  0.23936538690E+02  0.51100000000E-03 0. -1.
        -11    1    3    3    0    0 -0.43076454898E+00 -0.81027761489E+01 -0.10905548318E+01  0.81871759184E+01  0.51100000000E-03 0.  1.
         12    1    3    3    0    0 -0.75586634764E+01 -0.13508953495E+02 -0.23920251693E+01  0.15663556509E+02  0.00000000000E+00 0. -1.
</event>
<event>
 7    1  0.2599124E-010  0.4778728E+02  0.7816164E-02  0.1312668E+00
        -11   -1    0    0    0    0  0.00000000000E+00  0.00000000000E+00  0.45593999997E+02  0.45594000000E+02  0.51100000000E-03 0.  1.
         11   -1    0    0    0    0 -0.00000000000E+00 -0.00000000000E+00 -0.45593999997E+02  0.45594000000E+02  0.51100000000E-03 0. -1.
    9900012    2    1    2    0    0 -0.44325839663E-01 -0.36367613432E+02 -0.23685806389E+02  0.47787277703E+02  0.20000030361E+02 0.  0.
         12    1    1    2    0    0  0.44325839663E-01  0.36367613432E+02  0.23685806389E+02  0.43400722297E+02  0.00000000000E+00 0. -1.
         11    1    3    3    0    0  0.47699001345E+01 -0.14431668360E+02 -0.79703154994E+01  0.17162486078E+02  0.51100000000E-03 0.  1.
        -11    1    3    3    0    0  0.44446056329E+01 -0.78215285666E+01 -0.29718997632E+01  0.94743346370E+01  0.51100000000E-03 0. -1.
         12    1    3    3    0    0 -0.92588316071E+01 -0.14114416506E+02 -0.12743591127E+02  0.21150456989E+02  0.00000000000E+00 0. -1.
</event>
<event>
 7    1  0.2599124E-010  0.4778727E+02  0.7816164E-02  0.1312668E+00
        -11   -1    0    0    0    0  0.00000000000E+00  0.00000000000E+00  0.45593999997E+02  0.45594000000E+02  0.51100000000E-03 0.  1.
         11   -1    0    0    0    0 -0.00000000000E+00 -0.00000000000E+00 -0.45593999997E+02  0.45594000000E+02  0.51100000000E-03 0. -1.
    9900012    2    1    2    0    0  0.28592899543E+02 -0.80170338817E+01  0.31651167941E+02  0.47787272257E+02  0.20000005529E+02 0.  0.
         12    1    1    2    0    0 -0.28592899543E+02  0.80170338817E+01 -0.31651167941E+02  0.43400727743E+02  0.00000000000E+00 0. -1.
         11    1    3    3    0    0  0.37888194006E+01 -0.42145484809E+01  0.23459407406E+01  0.61335967888E+01  0.51100000000E-03 0. -1.
        -11    1    3    3    0    0  0.26736161801E+02 -0.51721751602E+01  0.26864905368E+02  0.38253063726E+02  0.51100000000E-03 0.  1.
        -12    1    3    3    0    0 -0.19320816587E+01  0.13696897594E+01  0.24403218330E+01  0.34006117422E+01  0.00000000000E+00 0.  1.
</event>
<event>
 7    1  0.2599124E-010  0.4778726E+02  0.7816164E-02  0.1312668E+00
        -11   -1    0    0    0    0  0.00000000000E+00  0.00000000000E+00  0.45593999997E+02  0.45594000000E+02  0.51100000000E-03 0.  1.
         11   -1    0    0    0    0 -0.00000000000E+00 -0.00000000000E+00 -0.45593999997E+02  0.45594000000E+02  0.51100000000E-03 0. -1.
    9900012    2    1    2    0    0  0.37546032129E+02  0.86092312270E+01  0.19995014464E+02  0.47787262744E+02  0.19999962155E+02 0.  0.
         12    1    1    2    0    0 -0.37546032129E+02 -0.86092312270E+01 -0.19995014464E+02  0.43400737256E+02  0.00000000000E+00 0. -1.
         11    1    3    3    0    0  0.37928481979E+00  0.96063459083E+00 -0.79576030653E+00  0.13038061659E+01  0.51100000000E-03 0. -1.
        -11    1    3    3    0    0  0.17096640464E+02 -0.32582150388E+01  0.14856679870E+02  0.22883007176E+02  0.51100000000E-03 0.  1.
         12    1    3    3    0    0  0.20070106846E+02  0.10906811675E+02  0.59340949005E+01  0.23600449403E+02  0.00000000000E+00 0. -1.
</event>
<event>
 7    1  0.2599124E-010  0.4778727E+02  0.7816164E-02  0.1312668E+00
        -11   -1    0    0    0    0  0.00000000000E+00  0.00000000000E+00  0.45593999997E+02  0.45594000000E+02  0.51100000000E-03 0.  1.
         11   -1    0    0    0    0 -0.00000000000E+00 -0.00000000000E+00 -0.45593999997E+02  0.45594000000E+02  0.51100000000E-03 0. -1.
    9900012    2    1    2    0    0 -0.33679478460E+01  0.35358911345E+02  0.24940475940E+02  0.47787273919E+02  0.20000013108E+02 0.  0.
         12    1    1    2    0    0  0.33679478460E+01 -0.35358911345E+02 -0.24940475940E+02  0.43400726081E+02  0.00000000000E+00 0. -1.
         11    1    3    3    0    0  0.18939734251E+01  0.11894222040E+02  0.14199675302E+02  0.18619624922E+02  0.51100000000E-03 0. -1.
        -11    1    3    3    0    0  0.23551472346E+01  0.15434895497E+02  0.88257396339E+01  0.17935339357E+02  0.51100000000E-03 0.  1.
         12    1    3    3    0    0 -0.76170685057E+01  0.80297938083E+01  0.19150610036E+01  0.11232309641E+02  0.00000000000E+00 0. -1.
</event>
<event>
 7    1  0.2599124E-010  0.4778727E+02  0.7816164E-02  0.1312668E+00
        -11   -1    0    0    0    0  0.00000000000E+00  0.00000000000E+00  0.45593999997E+02  0.45594000000E+02  0.51100000000E-03 0.  1.
         11   -1    0    0    0    0 -0.00000000000E+00 -0.00000000000E+00 -0.45593999997E+02  0.45594000000E+02  0.51100000000E-03 0. -1.
    9900012    2    1    2    0    0 -0.75651217056E+01 -0.39655244836E+02  0.15932785025E+02  0.47787272493E+02  0.20000006606E+02 0.  0.
         12    1    1    2    0    0  0.75651217056E+01  0.39655244836E+02 -0.15932785025E+02  0.43400727507E+02  0.00000000000E+00 0. -1.
         11    1    3    3    0    0 -0.90032667241E+00 -0.15298247707E+02  0.43307985581E+01  0.15924910908E+02  0.51100000000E-03 0. -1.
        -11    1    3    3    0    0  0.91201756838E+00 -0.20362412948E+02  0.11269023486E+02  0.23290567355E+02  0.51100000000E-03 0.  1.
         12    1    3    3    0    0 -0.75768126015E+01 -0.39945841808E+01  0.33296298101E+00  0.85717942301E+01  0.00000000000E+00 0. -1.
</event>
<event>
 7    1  0.2599124E-010  0.4778727E+02  0.7816164E-02  0.1312668E+00
        -11   -1    0    0    0    0  0.00000000000E+00  0.00000000000E+00  0.45593999997E+02  0.45594000000E+02  0.51100000000E-03 0. -1.
         11   -1    0    0    0    0 -0.00000000000E+00 -0.00000000000E+00 -0.45593999997E+02  0.45594000000E+02  0.51100000000E-03 0.  1.
    9900012    2    1    2    0    0  0.25325138260E+02  0.29075154716E+02 -0.19922249224E+02  0.47787271160E+02  0.20000000529E+02 0.  0.
         12    1    1    2    0    0 -0.25325138260E+02 -0.29075154716E+02  0.19922249224E+02  0.43400728840E+02  0.00000000000E+00 0. -1.
         11    1    3    3    0    0  0.13438464084E+01  0.68408814279E+01 -0.15130169202E+01  0.71339191432E+01  0.51100000000E-03 0. -1.
        -11    1    3    3    0    0 -0.56502993837E+00  0.69907037923E+01 -0.59090258899E+01  0.91709206502E+01  0.51100000000E-03 0.  1.
        -12    1    3    3    0    0  0.24546321790E+02  0.15243569496E+02 -0.12500206414E+02  0.31482431367E+02  0.00000000000E+00 0.  1.
</event>
<event>
 7    1  0.2599124E-010  0.4778727E+02  0.7816164E-02  0.1312668E+00
        -11   -1    0    0    0    0  0.00000000000E+00  0.00000000000E+00  0.45593999997E+02  0.45594000000E+02  0.51100000000E-03 0. -1.
         11   -1    0    0    0    0 -0.00000000000E+00 -0.00000000000E+00 -0.45593999997E+02  0.45594000000E+02  0.51100000000E-03 0.  1.
    9900012    2    1    2    0    0  0.37386413596E+02  0.56032692951E+01 -0.21318605025E+02  0.47787268802E+02  0.19999989774E+02 0.  0.
         12    1    1    2    0    0 -0.37386413596E+02 -0.56032692951E+01  0.21318605025E+02  0.43400731198E+02  0.00000000000E+00 0. -1.
         11    1    3    3    0    0  0.21691046005E+02  0.35264621839E+01 -0.31178696365E+01  0.22195912318E+02  0.51100000000E-03 0.  1.
        -11    1    3    3    0    0  0.10180351297E+02  0.27587335336E+01 -0.58808933804E+01  0.12076219212E+02  0.51100000000E-03 0. -1.
        -12    1    3    3    0    0  0.55150162946E+01 -0.68192642242E+00 -0.12319842008E+02  0.13515137272E+02  0.00000000000E+00 0.  1.
</event>
<event>
 7    1  0.2599124E-010  0.4778727E+02  0.7816164E-02  0.1312668E+00
        -11   -1    0    0    0    0  0.00000000000E+00  0.00000000000E+00  0.45593999997E+02  0.45594000000E+02  0.51100000000E-03 0.  1.
         11   -1    0    0    0    0 -0.00000000000E+00 -0.00000000000E+00 -0.45593999997E+02  0.45594000000E+02  0.51100000000E-03 0. -1.
    9900012    2    1    2    0    0 -0.16389994730E+02 -0.48134718637E+01  0.39897644237E+02  0.47787268966E+02  0.19999990525E+02 0.  0.
         12    1    1    2    0    0  0.16389994730E+02  0.48134718637E+01 -0.39897644237E+02  0.43400731034E+02  0.00000000000E+00 0. -1.
         11    1    3    3    0    0 -0.11713701752E+02 -0.78902178754E+01  0.26523794887E+02  0.30049593047E+02  0.51100000000E-03 0. -1.
        -11    1    3    3    0    0 -0.78662985953E+01  0.13211032150E+01  0.97975268083E+01  0.12633902767E+02  0.51100000000E-03 0.  1.
         12    1    3    3    0    0  0.31900056175E+01  0.17556427967E+01  0.35763225417E+01  0.51037731525E+01  0.00000000000E+00 0. -1.
</event>
<event>
 7    1  0.2599124E-010  0.4778727E+02  0.7816164E-02  0.1312668E+00
        -11   -1    0    0    0    0  0.00000000000E+00  0.00000000000E+00  0.45593999997E+02  0.45594000000E+02  0.51100000000E-03 0. -1.
         11   -1    0    0    0    0 -0.00000000000E+00 -0.00000000000E+00 -0.45593999997E+02  0.45594000000E+02  0.51100000000E-03 0.  1.
    9900012    2    1    2    0    0 -0.36892518922E+02 -0.19253277544E+02  0.12323837861E+02  0.47787266962E+02  0.19999981386E+02 0.  0.
         12    1    1    2    0    0  0.36892518922E+02  0.19253277544E+02 -0.12323837861E+02  0.43400733038E+02  0.00000000000E+00 0. -1.
         11    1    3    3    0    0 -0.72304371331E+00  0.64741818735E+00 -0.19064634697E+01  0.21392862696E+01  0.51100000000E-03 0. -1.
        -11    1    3    3    0    0 -0.70222817032E+01  0.58028997762E+00 -0.57672159311E+00  0.70697796878E+01  0.51100000000E-03 0.  1.
        -12    1    3    3    0    0 -0.29147193506E+02 -0.20480985709E+02  0.14807022924E+02  0.38578201005E+02  0.00000000000E+00 0.  1.
</event>
<event>
 7    1  0.2599124E-010  0.4778726E+02  0.7816164E-02  0.1312668E+00
        -11   -1    0    0    0    0  0.00000000000E+00  0.00000000000E+00  0.45593999997E+02  0.45594000000E+02  0.51100000000E-03 0.  1.
         11   -1    0    0    0    0 -0.00000000000E+00 -0.00000000000E+00 -0.45593999997E+02  0.45594000000E+02  0.51100000000E-03 0. -1.
    9900012    2    1    2    0    0  0.34796838197E+01  0.12986030776E+02  0.41265955049E+02  0.47787259904E+02  0.19999949205E+02 0.  0.
         12    1    1    2    0    0 -0.34796838197E+01 -0.12986030776E+02 -0.41265955049E+02  0.43400740096E+02  0.00000000000E+00 0. -1.
         11    1    3    3    0    0  0.10572531758E+01  0.14218106390E+01 -0.13596240848E+01  0.22333624166E+01  0.51100000000E-03 0. -1.
        -11    1    3    3    0    0 -0.35798571745E+00 -0.18062526121E+01  0.10278907774E+02  0.10442540283E+02  0.51100000000E-03 0.  1.
        -12    1    3    3    0    0  0.27804163614E+01  0.13370472749E+02  0.32346671360E+02  0.35111357204E+02  0.00000000000E+00 0.  1.
</event>
<event>
 7    1  0.2599124E-010  0.4778725E+02  0.7816164E-02  0.1312668E+00
        -11   -1    0    0    0    0  0.00000000000E+00  0.00000000000E+00  0.45593999997E+02  0.45594000000E+02  0.51100000000E-03 0. -1.
         11   -1    0    0    0    0 -0.00000000000E+00 -0.00000000000E+00 -0.45593999997E+02  0.45594000000E+02  0.51100000000E-03 0.  1.
    9900012    2    1    2    0    0  0.39391209593E+02 -0.76585119093E+01 -0.16531941035E+02  0.47787248022E+02  0.19999895031E+02 0.  0.
         12    1    1    2    0    0 -0.39391209593E+02  0.76585119093E+01  0.16531941035E+02  0.43400751978E+02  0.00000000000E+00 0. -1.
         11    1    3    3    0    0  0.98986995216E+01 -0.34471994432E+01  0.23926164509E+01  0.10751374329E+02  0.51100000000E-03 0. -1.
        -11    1    3    3    0    0  0.11392754579E+01  0.21659610436E+01 -0.18069814627E+00  0.24539738982E+01  0.51100000000E-03 0.  1.
        -12    1    3    3    0    0  0.28353234613E+02 -0.63772735097E+01 -0.18743859340E+02  0.34581899795E+02  0.00000000000E+00 0.  1.
</event>
<event>
 7    1  0.2599124E-010  0.4778727E+02  0.7816164E-02  0.1312668E+00
        -11   -1    0    0    0    0  0.00000000000E+00  0.00000000000E+00  0.45593999997E+02  0.45594000000E+02  0.51100000000E-03 0. -1.
         11   -1    0    0    0    0 -0.00000000000E+00 -0.00000000000E+00 -0.45593999997E+02  0.45594000000E+02  0.51100000000E-03 0.  1.
    9900012    2    1    2    0    0  0.31343419073E+02 -0.15426455047E+02  0.25753411214E+02  0.47787267015E+02  0.19999981627E+02 0.  0.
         12    1    1    2    0    0 -0.31343419073E+02  0.15426455047E+02 -0.25753411214E+02  0.43400732985E+02  0.00000000000E+00 0. -1.
         11    1    3    3    0    0  0.15967743453E+01  0.31486713113E+01  0.43529227433E+01  0.56046191670E+01  0.51100000000E-03 0. -1.
        -11    1    3    3    0    0  0.16821532135E+00 -0.24870258989E+01  0.46959969830E+00  0.25365563968E+01  0.51100000000E-03 0.  1.
        -12    1    3    3    0    0  0.29578429406E+02 -0.16088100459E+02  0.20930888773E+02  0.39646091451E+02  0.00000000000E+00 0.  1.
</event>
<event>
 7    1  0.2599124E-010  0.4778727E+02  0.7816164E-02  0.1312668E+00
        -11   -1    0    0    0    0  0.00000000000E+00  0.00000000000E+00  0.45593999997E+02  0.45594000000E+02  0.51100000000E-03 0.  1.
         11   -1    0    0    0    0 -0.00000000000E+00 -0.00000000000E+00 -0.45593999997E+02  0.45594000000E+02  0.51100000000E-03 0. -1.
    9900012    2    1    2    0    0  0.34846124989E+02 -0.25872080001E+02 -0.81169119486E-01  0.47787267993E+02  0.19999986088E+02 0.  0.
         12    1    1    2    0    0 -0.34846124989E+02  0.25872080001E+02  0.81169119486E-01  0.43400732007E+02  0.00000000000E+00 0. -1.
         11    1    3    3    0    0  0.42244007842E+01 -0.54542391887E+01  0.14036745907E+01  0.70402123356E+01  0.51100000000E-03 0. -1.
        -11    1    3    3    0    0  0.28573577900E+02 -0.20705133693E+02 -0.59884609974E+01  0.35791250057E+02  0.51100000000E-03 0.  1.
         12    1    3    3    0    0  0.20481463051E+01  0.28729288099E+00  0.45036172871E+01  0.49558056011E+01  0.00000000000E+00 0. -1.
</event>
<event>
 7    1  0.2599124E-010  0.4778727E+02  0.7816164E-02  0.1312668E+00
        -11   -1    0    0    0    0  0.00000000000E+00  0.00000000000E+00  0.45593999997E+02  0.45594000000E+02  0.51100000000E-03 0.  1.
         11   -1    0    0    0    0 -0.00000000000E+00 -0.00000000000E+00 -0.45593999997E+02  0.45594000000E+02  0.51100000000E-03 0. -1.
    9900012    2    1    2    0    0 -0.18133624526E+02 -0.38626818991E+02  0.79223440719E+01  0.47787273976E+02  0.20000013367E+02 0.  0.
         12    1    1    2    0    0  0.18133624526E+02  0.38626818991E+02 -0.79223440719E+01  0.43400726024E+02  0.00000000000E+00 0. -1.
         11    1    3    3    0    0 -0.25109433738E+00 -0.82857456655E+01 -0.39546214140E+00  0.82989770554E+01  0.51100000000E-03 0. -1.
        -11    1    3    3    0    0 -0.25886885424E+01 -0.18934900565E+02  0.70408302906E+01  0.20366763592E+02  0.51100000000E-03 0.  1.
        -12    1    3    3    0    0 -0.15293841646E+02 -0.11406172761E+02  0.12769759227E+01  0.19121533329E+02  0.00000000000E+00 0.  1.
</event>
<event>
 7    1  0.2599124E-010  0.4778728E+02  0.7816164E-02  0.1312668E+00
        -11   -1    0    0    0    0  0.00000000000E+00  0.00000000000E+00  0.45593999997E+02  0.45594000000E+02  0.51100000000E-03 0.  1.
         11   -1    0    0    0    0 -0.00000000000E+00 -0.00000000000E+00 -0.45593999997E+02  0.45594000000E+02  0.51100000000E-03 0. -1.
    9900012    2    1    2    0    0  0.33902361511E+02 -0.25465446478E+02  0.92608574885E+01  0.47787279248E+02  0.20000037405E+02 0.  0.
         12    1    1    2    0    0 -0.33902361511E+02  0.25465446478E+02 -0.92608574885E+01  0.43400720752E+02  0.00000000000E+00 0. -1.
         11    1    3    3    0    0  0.34402093218E+01 -0.19106456473E+01  0.49465840890E+01  0.63209414946E+01  0.51100000000E-03 0. -1.
        -11    1    3    3    0    0  0.19615175059E+02 -0.60847495364E+01  0.38655714768E+01  0.20897892540E+02  0.51100000000E-03 0.  1.
         12    1    3    3    0    0  0.10846977130E+02 -0.17470051294E+02  0.44870192266E+00  0.20568445214E+02  0.00000000000E+00 0. -1.
</event>
<event>
 7    1  0.2599124E-010  0.4778727E+02  0.7816164E-02  0.1312668E+00
        -11   -1    0    0    0    0  0.00000000000E+00  0.00000000000E+00  0.45593999997E+02  0.45594000000E+02  0.51100000000E-03 0.  1.
         11   -1    0    0    0    0 -0.00000000000E+00 -0.00000000000E+00 -0.45593999997E+02  0.45594000000E+02  0.51100000000E-03 0. -1.
    9900012    2    1    2    0    0  0.29304717155E+02  0.13145980239E+02  0.29189720065E+02  0.47787274183E+02  0.20000014311E+02 0.  0.
         12    1    1    2    0    0 -0.29304717155E+02 -0.13145980239E+02 -0.29189720065E+02  0.43400725817E+02  0.00000000000E+00 0. -1.
         11    1    3    3    0    0  0.10097677749E+02  0.10328571845E+02  0.60483535835E+01  0.15659663904E+02  0.51100000000E-03 0. -1.
        -11    1    3    3    0    0  0.17310966912E+02  0.58079384960E+01  0.16541460347E+02  0.24637809068E+02  0.51100000000E-03 0.  1.
         12    1    3    3    0    0  0.18960724937E+01 -0.29905301019E+01  0.65999061345E+01  0.74898012107E+01  0.00000000000E+00 0. -1.
</event>
<event>
 7    1  0.2599124E-010  0.4778728E+02  0.7816164E-02  0.1312668E+00
        -11   -1    0    0    0    0  0.00000000000E+00  0.00000000000E+00  0.45593999997E+02  0.45594000000E+02  0.51100000000E-03 0.  1.
         11   -1    0    0    0    0 -0.00000000000E+00 -0.00000000000E+00 -0.45593999997E+02  0.45594000000E+02  0.51100000000E-03 0. -1.
    9900012    2    1    2    0    0 -0.27370189656E+02 -0.27400784616E+02  0.19588073380E+02  0.47787275373E+02  0.20000019737E+02 0.  0.
         12    1    1    2    0    0  0.27370189656E+02  0.27400784616E+02 -0.19588073380E+02  0.43400724627E+02  0.00000000000E+00 0. -1.
         11    1    3    3    0    0 -0.99028334438E+01  0.10659238806E+01  0.52588352891E+01  0.11263110263E+02  0.51100000000E-03 0. -1.
        -11    1    3    3    0    0 -0.58716291901E+00 -0.27323379288E+01  0.15886108600E+01  0.32146719235E+01  0.51100000000E-03 0.  1.
        -12    1    3    3    0    0 -0.16880193294E+02 -0.25734370568E+02  0.12740627231E+02  0.33309493187E+02  0.00000000000E+00 0.  1.
</event>
<event>
 7    1  0.2599124E-010  0.4778727E+02  0.7816164E-02  0.1312668E+00
        -11   -1    0    0    0    0  0.00000000000E+00  0.00000000000E+00  0.45593999997E+02  0.45594000000E+02  0.51100000000E-03 0.  1.
         11   -1    0    0    0    0 -0.00000000000E+00 -0.00000000000E+00 -0.45593999997E+02  0.45594000000E+02  0.51100000000E-03 0. -1.
    9900012    2    1    2    0    0  0.24450562666E+02 -0.11151584054E+01  0.35840616392E+02  0.47787269864E+02  0.19999994618E+02 0.  0.
         12    1    1    2    0    0 -0.24450562666E+02  0.11151584054E+01 -0.35840616392E+02  0.43400730136E+02  0.00000000000E+00 0. -1.
         11    1    3    3    0    0  0.28567665272E+01 -0.27356204188E+01  0.10788686100E+02  0.11490886915E+02  0.51100000000E-03 0. -1.
        -11    1    3    3    0    0  0.21154809149E+01 -0.51990830427E+01  0.58498337197E+01  0.81071745261E+01  0.51100000000E-03 0.  1.
        -12    1    3    3    0    0  0.19478315224E+02  0.68195450562E+01  0.19202096573E+02  0.28189208423E+02  0.00000000000E+00 0.  1.
</event>
<event>
 7    1  0.2599124E-010  0.4778727E+02  0.7816164E-02  0.1312668E+00
        -11   -1    0    0    0    0  0.00000000000E+00  0.00000000000E+00  0.45593999997E+02  0.45594000000E+02  0.51100000000E-03 0.  1.
         11   -1    0    0    0    0 -0.00000000000E+00 -0.00000000000E+00 -0.45593999997E+02  0.45594000000E+02  0.51100000000E-03 0. -1.
    9900012    2    1    2    0    0 -0.11872142482E+02  0.16439139361E+01  0.41712980545E+02  0.47787274591E+02  0.20000016169E+02 0.  0.
         12    1    1    2    0    0  0.11872142482E+02 -0.16439139361E+01 -0.41712980545E+02  0.43400725409E+02  0.00000000000E+00 0. -1.
         11    1    3    3    0    0 -0.85582345386E+01 -0.23168052031E+01  0.92870541459E+01  0.12839795159E+02  0.51100000000E-03 0. -1.
        -11    1    3    3    0    0 -0.57393008728E+01 -0.19565149846E+01  0.10686166005E+02  0.12286645984E+02  0.51100000000E-03 0.  1.
        -12    1    3    3    0    0  0.24253929295E+01  0.59172341238E+01  0.21739760394E+02  0.22660833447E+02  0.00000000000E+00 0.  1.
</event>
<event>
 7    1  0.2599124E-010  0.4778729E+02  0.7816164E-02  0.1312668E+00
        -11   -1    0    0    0    0  0.00000000000E+00  0.00000000000E+00  0.45593999997E+02  0.45594000000E+02  0.51100000000E-03 0.  1.
         11   -1    0    0    0    0 -0.00000000000E+00 -0.00000000000E+00 -0.45593999997E+02  0.45594000000E+02  0.51100000000E-03 0. -1.
    9900012    2    1    2    0    0 -0.38269233652E+02  0.67422601909E+01  0.19329483957E+02  0.47787294167E+02  0.20000105423E+02 0.  0.
         12    1    1    2    0    0  0.38269233652E+02 -0.67422601909E+01 -0.19329483957E+02  0.43400705833E+02  0.00000000000E+00 0. -1.
         11    1    3    3    0    0 -0.15856728615E+02 -0.39427911964E+01  0.53335001173E+01  0.17188009442E+02  0.51100000000E-03 0. -1.
        -11    1    3    3    0    0 -0.18246267672E+02  0.34244493509E+01  0.11604660238E+02  0.21893407154E+02  0.51100000000E-03 0.  1.
        -12    1    3    3    0    0 -0.41662373648E+01  0.72606020365E+01  0.23913236013E+01  0.87058775709E+01  0.00000000000E+00 0.  1.
</event>
<event>
 7    1  0.2599124E-010  0.4778727E+02  0.7816164E-02  0.1312668E+00
        -11   -1    0    0    0    0  0.00000000000E+00  0.00000000000E+00  0.45593999997E+02  0.45594000000E+02  0.51100000000E-03 0.  1.
         11   -1    0    0    0    0 -0.00000000000E+00 -0.00000000000E+00 -0.45593999997E+02  0.45594000000E+02  0.51100000000E-03 0. -1.
    9900012    2    1    2    0    0  0.42057744804E+02  0.95364645006E+01 -0.48810849016E+01  0.47787273705E+02  0.20000012130E+02 0.  0.
         12    1    1    2    0    0 -0.42057744804E+02 -0.95364645006E+01  0.48810849016E+01  0.43400726295E+02  0.00000000000E+00 0. -1.
         11    1    3    3    0    0 -0.51865979005E+00 -0.46845539656E+00 -0.67657324957E+00  0.97273329311E+00  0.51100000000E-03 0. -1.
        -11    1    3    3    0    0  0.28051861075E+02  0.10430266195E+02 -0.94206891636E+01  0.31375894365E+02  0.51100000000E-03 0.  1.
        -12    1    3    3    0    0  0.14524543519E+02 -0.42534629794E+00  0.52161775116E+01  0.15438646046E+02  0.00000000000E+00 0.  1.
</event>
<event>
 7    1  0.2599124E-010  0.4778727E+02  0.7816164E-02  0.1312668E+00
        -11   -1    0    0    0    0  0.00000000000E+00  0.00000000000E+00  0.45593999997E+02  0.45594000000E+02  0.51100000000E-03 0.  1.
         11   -1    0    0    0    0 -0.00000000000E+00 -0.00000000000E+00 -0.45593999997E+02  0.45594000000E+02  0.51100000000E-03 0. -1.
    9900012    2    1    2    0    0  0.36413513023E+02  0.19728323055E+02 -0.12979687974E+02  0.47787274648E+02  0.20000016428E+02 0.  0.
         12    1    1    2    0    0 -0.36413513023E+02 -0.19728323055E+02  0.12979687974E+02  0.43400725352E+02  0.00000000000E+00 0. -1.
         11    1    3    3    0    0  0.16585794782E+02  0.45483126545E+01 -0.95898016105E+01  0.19691115553E+02  0.51100000000E-03 0. -1.
        -11    1    3    3    0    0  0.20590758785E+02  0.10522115221E+02 -0.34270424384E+01  0.23376032089E+02  0.51100000000E-03 0.  1.
        -12    1    3    3    0    0 -0.76304054447E+00  0.46578951792E+01  0.37156074563E-01  0.47201270054E+01  0.00000000000E+00 0.  1.
</event>
<event>
 7    1  0.2853147E-010  0.4778727E+02  0.7816164E-02  0.1312668E+00
        -11   -1    0    0    0    0  0.00000000000E+00  0.00000000000E+00  0.45593999997E+02  0.45594000000E+02  0.51100000000E-03 0.  1.
         11   -1    0    0    0    0 -0.00000000000E+00 -0.00000000000E+00 -0.45593999997E+02  0.45594000000E+02  0.51100000000E-03 0. -1.
    9900012    2    1    2    0    0 -0.14325664647E+02  0.29521009599E+02  0.28406135503E+02  0.47787271785E+02  0.20000003379E+02 0.  0.
         12    1    1    2    0    0  0.14325664647E+02 -0.29521009599E+02 -0.28406135503E+02  0.43400728215E+02  0.00000000000E+00 0. -1.
         11    1    3    3    0    0  0.22879520045E+01  0.58900668048E+01  0.27421399998E+01  0.68881741688E+01  0.51100000000E-03 0. -1.
        -11    1    3    3    0    0 -0.65349569113E+01  0.13910401520E+01  0.21970398555E+01  0.70333234623E+01  0.51100000000E-03 0.  1.
        -12    1    3    3    0    0 -0.10078659740E+02  0.22239902643E+02  0.23466955648E+02  0.33865774154E+02  0.00000000000E+00 0.  1.
</event>
<event>
 7    1  0.2599124E-010  0.4778727E+02  0.7816164E-02  0.1312668E+00
        -11   -1    0    0    0    0  0.00000000000E+00  0.00000000000E+00  0.45593999997E+02  0.45594000000E+02  0.51100000000E-03 0.  1.
         11   -1    0    0    0    0 -0.00000000000E+00 -0.00000000000E+00 -0.45593999997E+02  0.45594000000E+02  0.51100000000E-03 0. -1.
    9900012    2    1    2    0    0  0.14297613403E+02  0.66167266524E+01  0.40440330198E+02  0.47787272735E+02  0.20000007706E+02 0.  0.
         12    1    1    2    0    0 -0.14297613403E+02 -0.66167266524E+01 -0.40440330198E+02  0.43400727265E+02  0.00000000000E+00 0. -1.
         11    1    3    3    0    0  0.12344261470E+02  0.39230524983E+00  0.15578060398E+02  0.19879905952E+02  0.51100000000E-03 0. -1.
        -11    1    3    3    0    0  0.47913090950E+01  0.33328149725E+01  0.22440690759E+02  0.23187257287E+02  0.51100000000E-03 0.  1.
        -12    1    3    3    0    0 -0.28379571616E+01  0.28916064301E+01  0.24215790417E+01  0.47201094959E+01  0.00000000000E+00 0.  1.
</event>
<event>
 7    1  0.2599124E-010  0.4778727E+02  0.7816164E-02  0.1312668E+00
        -11   -1    0    0    0    0  0.00000000000E+00  0.00000000000E+00  0.45593999997E+02  0.45594000000E+02  0.51100000000E-03 0. -1.
         11   -1    0    0    0    0 -0.00000000000E+00 -0.00000000000E+00 -0.45593999997E+02  0.45594000000E+02  0.51100000000E-03 0.  1.
    9900012    2    1    2    0    0  0.32028765744E+02 -0.23928583410E+02 -0.16887994182E+02  0.47787270898E+02  0.19999999332E+02 0.  0.
         12    1    1    2    0    0 -0.32028765744E+02  0.23928583410E+02  0.16887994182E+02  0.43400729102E+02  0.00000000000E+00 0. -1.
         11    1    3    3    0    0  0.26226451986E+02 -0.15291774788E+02 -0.34803660944E+01  0.30557783106E+02  0.51100000000E-03 0. -1.
        -11    1    3    3    0    0  0.10410597912E+01 -0.49612109115E+00 -0.53343220283E+00  0.12706265392E+01  0.51100000000E-03 0.  1.
        -12    1    3    3    0    0  0.47612539673E+01 -0.81406875309E+01 -0.12874195885E+02  0.15958861253E+02  0.00000000000E+00 0.  1.
</event>
<event>
 7    1  0.2599124E-010  0.4778727E+02  0.7816164E-02  0.1312668E+00
        -11   -1    0    0    0    0  0.00000000000E+00  0.00000000000E+00  0.45593999997E+02  0.45594000000E+02  0.51100000000E-03 0. -1.
         11   -1    0    0    0    0 -0.00000000000E+00 -0.00000000000E+00 -0.45593999997E+02  0.45594000000E+02  0.51100000000E-03 0.  1.
    9900012    2    1    2    0    0 -0.93061420444E+01  0.41196572969E+02 -0.99930729086E+01  0.47787269472E+02  0.19999992832E+02 0.  0.
         12    1    1    2    0    0  0.93061420444E+01 -0.41196572969E+02  0.99930729086E+01  0.43400730528E+02  0.00000000000E+00 0. -1.
         11    1    3    3    0    0 -0.93185619816E+01  0.16234287262E+02 -0.40513007157E+01  0.19152042138E+02  0.51100000000E-03 0.  1.
        -11    1    3    3    0    0 -0.27121027968E+01 -0.88628638786E-01  0.12548834557E+00  0.27164506625E+01  0.51100000000E-03 0. -1.
        -12    1    3    3    0    0  0.27245227339E+01  0.25050914346E+02 -0.60672605384E+01  0.25918776672E+02  0.00000000000E+00 0.  1.
</event>
<event>
 7    1  0.2599124E-010  0.4778726E+02  0.7816164E-02  0.1312668E+00
        -11   -1    0    0    0    0  0.00000000000E+00  0.00000000000E+00  0.45593999997E+02  0.45594000000E+02  0.51100000000E-03 0.  1.
         11   -1    0    0    0    0 -0.00000000000E+00 -0.00000000000E+00 -0.45593999997E+02  0.45594000000E+02  0.51100000000E-03 0. -1.
    9900012    2    1    2    0    0  0.40660917216E+02 -0.14383329874E+02  0.48408530930E+01  0.47787260078E+02  0.19999950001E+02 0.  0.
         12    1    1    2    0    0 -0.40660917216E+02  0.14383329874E+02 -0.48408530930E+01  0.43400739922E+02  0.00000000000E+00 0. -1.
         11    1    3    3    0    0  0.21564051767E+02 -0.48495161079E+01  0.29119967753E+00  0.22104545519E+02  0.51100000000E-03 0. -1.
        -11    1    3    3    0    0  0.18159622779E+02 -0.84566923897E+01 -0.89679335766E+00  0.20052226416E+02  0.51100000000E-03 0.  1.
         12    1    3    3    0    0  0.93724266991E+00 -0.10771213761E+01  0.54464467731E+01  0.56304881434E+01  0.00000000000E+00 0. -1.
</event>
<event>
 7    1  0.2599124E-010  0.4778727E+02  0.7816164E-02  0.1312668E+00
        -11   -1    0    0    0    0  0.00000000000E+00  0.00000000000E+00  0.45593999997E+02  0.45594000000E+02  0.51100000000E-03 0.  1.
         11   -1    0    0    0    0 -0.00000000000E+00 -0.00000000000E+00 -0.45593999997E+02  0.45594000000E+02  0.51100000000E-03 0. -1.
    9900012    2    1    2    0    0  0.23496136965E+02  0.29362712204E+02  0.21665321094E+02  0.47787268919E+02  0.19999990311E+02 0.  0.
         12    1    1    2    0    0 -0.23496136965E+02 -0.29362712204E+02 -0.21665321094E+02  0.43400731081E+02  0.00000000000E+00 0. -1.
         11    1    3    3    0    0 -0.40576913792E+00 -0.11495042688E+01  0.53530009244E+00  0.13313733914E+01  0.51100000000E-03 0. -1.
        -11    1    3    3    0    0  0.24063957601E+02  0.31190611016E+02  0.22169462289E+02  0.45204129561E+02  0.51100000000E-03 0.  1.
        -12    1    3    3    0    0 -0.16205149833E+00 -0.67839454318E+00 -0.10394412877E+01  0.12517659665E+01  0.00000000000E+00 0.  1.
</event>
<event>
 7    1  0.2599124E-010  0.4778728E+02  0.7816164E-02  0.1312668E+00
        -11   -1    0    0    0    0  0.00000000000E+00  0.00000000000E+00  0.45593999997E+02  0.45594000000E+02  0.51100000000E-03 0. -1.
         11   -1    0    0    0    0 -0.00000000000E+00 -0.00000000000E+00 -0.45593999997E+02  0.45594000000E+02  0.51100000000E-03 0.  1.
    9900012    2    1    2    0    0 -0.24647477974E+02 -0.35334470380E+02 -0.52535488318E+01  0.47787277162E+02  0.20000027894E+02 0.  0.
         12    1    1    2    0    0  0.24647477974E+02  0.35334470380E+02  0.52535488318E+01  0.43400722838E+02  0.00000000000E+00 0. -1.
         11    1    3    3    0    0  0.39818597824E-01 -0.11835279597E+02 -0.43758259246E+01  0.12618370792E+02  0.51100000000E-03 0. -1.
        -11    1    3    3    0    0 -0.87089372351E+01 -0.62057734344E+01  0.34353701744E+01  0.11232051468E+02  0.51100000000E-03 0.  1.
        -12    1    3    3    0    0 -0.15978359337E+02 -0.17293417349E+02 -0.43130930816E+01  0.23936854902E+02  0.00000000000E+00 0.  1.
</event>
<event>
 7    1  0.2599124E-010  0.4778727E+02  0.7816164E-02  0.1312668E+00
        -11   -1    0    0    0    0  0.00000000000E+00  0.00000000000E+00  0.45593999997E+02  0.45594000000E+02  0.51100000000E-03 0.  1.
         11   -1    0    0    0    0 -0.00000000000E+00 -0.00000000000E+00 -0.45593999997E+02  0.45594000000E+02  0.51100000000E-03 0. -1.
    9900012    2    1    2    0    0  0.38503496743E+02 -0.10861807665E+02 -0.16826327368E+02  0.47787269362E+02  0.19999992329E+02 0.  0.
         12    1    1    2    0    0 -0.38503496743E+02  0.10861807665E+02  0.16826327368E+02  0.43400730638E+02  0.00000000000E+00 0. -1.
         11    1    3    3    0    0  0.10108209015E+02 -0.40942468071E+01 -0.48563034427E+01  0.11938275830E+02  0.51100000000E-03 0. -1.
        -11    1    3    3    0    0  0.29862034708E+02 -0.68775435663E+01 -0.13709759731E+02  0.33570809262E+02  0.51100000000E-03 0.  1.
         12    1    3    3    0    0 -0.14667469793E+01  0.10998270825E+00  0.17397358048E+01  0.22781842699E+01  0.00000000000E+00 0. -1.
</event>
<event>
 7    1  0.2599124E-010  0.4778727E+02  0.7816164E-02  0.1312668E+00
        -11   -1    0    0    0    0  0.00000000000E+00  0.00000000000E+00  0.45593999997E+02  0.45594000000E+02  0.51100000000E-03 0.  1.
         11   -1    0    0    0    0 -0.00000000000E+00 -0.00000000000E+00 -0.45593999997E+02  0.45594000000E+02  0.51100000000E-03 0. -1.
    9900012    2    1    2    0    0 -0.16738398087E+02  0.98098374239E+01  0.38822884996E+02  0.47787270971E+02  0.19999999666E+02 0.  0.
         12    1    1    2    0    0  0.16738398087E+02 -0.98098374239E+01 -0.38822884996E+02  0.43400729029E+02  0.00000000000E+00 0. -1.
         11    1    3    3    0    0 -0.53419319330E+01 -0.36821095324E+01  0.50234180994E+01  0.82054187613E+01  0.51100000000E-03 0. -1.
        -11    1    3    3    0    0 -0.53208483459E+01  0.17575928692E+01  0.18677397198E+02  0.19499890414E+02  0.51100000000E-03 0.  1.
         12    1    3    3    0    0 -0.60756178081E+01  0.11734354087E+02  0.15122069699E+02  0.20081961796E+02  0.00000000000E+00 0. -1.
</event>
<event>
 7    1  0.2599124E-010  0.4778727E+02  0.7816164E-02  0.1312668E+00
        -11   -1    0    0    0    0  0.00000000000E+00  0.00000000000E+00  0.45593999997E+02  0.45594000000E+02  0.51100000000E-03 0. -1.
         11   -1    0    0    0    0 -0.00000000000E+00 -0.00000000000E+00 -0.45593999997E+02  0.45594000000E+02  0.51100000000E-03 0.  1.
    9900012    2    1    2    0    0 -0.34053444882E+02  0.19270440362E+02 -0.18778611480E+02  0.47787271559E+02  0.20000002345E+02 0.  0.
         12    1    1    2    0    0  0.34053444882E+02 -0.19270440362E+02  0.18778611480E+02  0.43400728441E+02  0.00000000000E+00 0. -1.
         11    1    3    3    0    0 -0.33521258373E+01 -0.20670925413E+01  0.14971504897E+00  0.39410701669E+01  0.51100000000E-03 0. -1.
        -11    1    3    3    0    0 -0.23688517360E+02  0.90336342038E+01 -0.11250167660E+02  0.27736594497E+02  0.51100000000E-03 0.  1.
         12    1    3    3    0    0 -0.70128016844E+01  0.12303898700E+02 -0.76781588699E+01  0.16109606895E+02  0.00000000000E+00 0. -1.
</event>
<event>
 7    1  0.2599124E-010  0.4778727E+02  0.7816164E-02  0.1312668E+00
        -11   -1    0    0    0    0  0.00000000000E+00  0.00000000000E+00  0.45593999997E+02  0.45594000000E+02  0.51100000000E-03 0.  1.
         11   -1    0    0    0    0 -0.00000000000E+00 -0.00000000000E+00 -0.45593999997E+02  0.45594000000E+02  0.51100000000E-03 0. -1.
    9900012    2    1    2    0    0  0.76216915984E+01 -0.36247589919E+02  0.22619579639E+02  0.47787270273E+02  0.19999996483E+02 0.  0.
         12    1    1    2    0    0 -0.76216915984E+01  0.36247589919E+02 -0.22619579639E+02  0.43400729727E+02  0.00000000000E+00 0. -1.
         11    1    3    3    0    0 -0.42502609796E+01 -0.62132040462E+01  0.13109193830E+01  0.76411473487E+01  0.51100000000E-03 0. -1.
        -11    1    3    3    0    0  0.79685222647E+01 -0.28316558110E+02  0.16535701992E+02  0.33745433038E+02  0.51100000000E-03 0.  1.
         12    1    3    3    0    0  0.39034303132E+01 -0.17178277633E+01  0.47729582644E+01  0.64006898869E+01  0.00000000000E+00 0. -1.
</event>
<event>
 7    1  0.2599124E-010  0.4778726E+02  0.7816164E-02  0.1312668E+00
        -11   -1    0    0    0    0  0.00000000000E+00  0.00000000000E+00  0.45593999997E+02  0.45594000000E+02  0.51100000000E-03 0.  1.
         11   -1    0    0    0    0 -0.00000000000E+00 -0.00000000000E+00 -0.45593999997E+02  0.45594000000E+02  0.51100000000E-03 0. -1.
    9900012    2    1    2    0    0  0.28925077314E+02 -0.27701020530E+02  0.16721781878E+02  0.47787255476E+02  0.19999929018E+02 0.  0.
         12    1    1    2    0    0 -0.28925077314E+02  0.27701020530E+02 -0.16721781878E+02  0.43400744524E+02  0.00000000000E+00 0. -1.
         11    1    3    3    0    0 -0.18240959297E+01 -0.23697978949E+01  0.15607802375E+01  0.33733222844E+01  0.51100000000E-03 0. -1.
        -11    1    3    3    0    0  0.14796111863E+02 -0.18849783550E+02  0.52001603111E+01  0.24521030437E+02  0.51100000000E-03 0.  1.
        -12    1    3    3    0    0  0.15953061381E+02 -0.64814390852E+01  0.99608413291E+01  0.19892902755E+02  0.00000000000E+00 0.  1.
</event>
<event>
 7    1  0.2599124E-010  0.4778727E+02  0.7816164E-02  0.1312668E+00
        -11   -1    0    0    0    0  0.00000000000E+00  0.00000000000E+00  0.45593999997E+02  0.45594000000E+02  0.51100000000E-03 0.  1.
         11   -1    0    0    0    0 -0.00000000000E+00 -0.00000000000E+00 -0.45593999997E+02  0.45594000000E+02  0.51100000000E-03 0. -1.
    9900012    2    1    2    0    0 -0.11089090465E+02  0.24696103857E+02  0.33922820705E+02  0.47787271462E+02  0.20000001904E+02 0.  0.
         12    1    1    2    0    0  0.11089090465E+02 -0.24696103857E+02 -0.33922820705E+02  0.43400728538E+02  0.00000000000E+00 0. -1.
         11    1    3    3    0    0 -0.30018836028E+01  0.30120280460E+00  0.55390047000E+01  0.63073450534E+01  0.51100000000E-03 0. -1.
        -11    1    3    3    0    0 -0.10540335951E+02  0.13441951452E+02  0.23936933184E+02  0.29406827631E+02  0.51100000000E-03 0.  1.
         12    1    3    3    0    0  0.24531290886E+01  0.10952949600E+02  0.44468828205E+01  0.12073098777E+02  0.00000000000E+00 0. -1.
</event>
<event>
 7    1  0.2599124E-010  0.4778727E+02  0.7816164E-02  0.1312668E+00
        -11   -1    0    0    0    0  0.00000000000E+00  0.00000000000E+00  0.45593999997E+02  0.45594000000E+02  0.51100000000E-03 0. -1.
         11   -1    0    0    0    0 -0.00000000000E+00 -0.00000000000E+00 -0.45593999997E+02  0.45594000000E+02  0.51100000000E-03 0.  1.
    9900012    2    1    2    0    0 -0.29153643694E+02  0.31090623356E+02 -0.81891181572E+01  0.47787268929E+02  0.19999990357E+02 0.  0.
         12    1    1    2    0    0  0.29153643694E+02 -0.31090623356E+02  0.81891181572E+01  0.43400731071E+02  0.00000000000E+00 0. -1.
         11    1    3    3    0    0 -0.18391923392E+01 -0.82145543747E+00  0.59916579590E+00  0.21015273989E+01  0.51100000000E-03 0. -1.
        -11    1    3    3    0    0 -0.45376680576E+01  0.14972589755E+02 -0.72919471306E+01  0.17260978205E+02  0.51100000000E-03 0.  1.
        -12    1    3    3    0    0 -0.22776783297E+02  0.16939489038E+02 -0.14963368225E+01  0.28424763326E+02  0.00000000000E+00 0.  1.
</event>
<event>
 7    1  0.2599124E-010  0.4778727E+02  0.7816164E-02  0.1312668E+00
        -11   -1    0    0    0    0  0.00000000000E+00  0.00000000000E+00  0.45593999997E+02  0.45594000000E+02  0.51100000000E-03 0.  1.
         11   -1    0    0    0    0 -0.00000000000E+00 -0.00000000000E+00 -0.45593999997E+02  0.45594000000E+02  0.51100000000E-03 0. -1.
    9900012    2    1    2    0    0 -0.17975289874E+02 -0.24613279341E+02 -0.30898201053E+02  0.47787269657E+02  0.19999993675E+02 0.  0.
         12    1    1    2    0    0  0.17975289874E+02  0.24613279341E+02  0.30898201053E+02  0.43400730343E+02  0.00000000000E+00 0. -1.
         11    1    3    3    0    0  0.18894818456E+01 -0.17709564775E-01 -0.28634654088E+00  0.19111383717E+01  0.51100000000E-03 0. -1.
        -11    1    3    3    0    0 -0.12011147581E+02 -0.88112361216E+01 -0.71365346115E+01  0.16517738185E+02  0.51100000000E-03 0.  1.
         12    1    3    3    0    0 -0.78536241379E+01 -0.15784333655E+02 -0.23475319901E+02  0.29358393101E+02  0.00000000000E+00 0. -1.
</event>
<event>
 7    1  0.2599124E-010  0.4778727E+02  0.7816164E-02  0.1312668E+00
        -11   -1    0    0    0    0  0.00000000000E+00  0.00000000000E+00  0.45593999997E+02  0.45594000000E+02  0.51100000000E-03 0.  1.
         11   -1    0    0    0    0 -0.00000000000E+00 -0.00000000000E+00 -0.45593999997E+02  0.45594000000E+02  0.51100000000E-03 0. -1.
    9900012    2    1    2    0    0  0.71399964326E+01  0.42057037014E+02 -0.79906028081E+01  0.47787266772E+02  0.19999980522E+02 0.  0.
         12    1    1    2    0    0 -0.71399964326E+01 -0.42057037014E+02  0.79906028081E+01  0.43400733228E+02  0.00000000000E+00 0. -1.
         11    1    3    3    0    0  0.50862901941E+01  0.86285104238E+01  0.35685309490E+01  0.10632777317E+02  0.51100000000E-03 0. -1.
        -11    1    3    3    0    0  0.65744937038E+01  0.15884883055E+02 -0.58368509473E+01  0.18155503473E+02  0.51100000000E-03 0.  1.
         12    1    3    3    0    0 -0.45207874653E+01  0.17543643535E+02 -0.57222828098E+01  0.18998985982E+02  0.00000000000E+00 0. -1.
</event>
<event>
 7    1  0.2599124E-010  0.4778727E+02  0.7816164E-02  0.1312668E+00
        -11   -1    0    0    0    0  0.00000000000E+00  0.00000000000E+00  0.45593999997E+02  0.45594000000E+02  0.51100000000E-03 0. -1.
         11   -1    0    0    0    0 -0.00000000000E+00 -0.00000000000E+00 -0.45593999997E+02  0.45594000000E+02  0.51100000000E-03 0.  1.
    9900012    2    1    2    0    0  0.86903558189E+01  0.23693580637E+02 -0.35308854445E+02  0.47787271321E+02  0.20000001260E+02 0.  0.
         12    1    1    2    0    0 -0.86903558189E+01 -0.23693580637E+02  0.35308854445E+02  0.43400728679E+02  0.00000000000E+00 0. -1.
         11    1    3    3    0    0  0.28339670447E+01  0.10343266201E+02 -0.44515512305E+01  0.11611667991E+02  0.51100000000E-03 0. -1.
        -11    1    3    3    0    0 -0.34005025566E+01  0.17576431091E+01 -0.43101086995E+01  0.57645263638E+01  0.51100000000E-03 0.  1.
        -12    1    3    3    0    0  0.92568913308E+01  0.11592671327E+02 -0.26547194515E+02  0.30411076966E+02  0.00000000000E+00 0.  1.
</event>
<event>
 7    1  0.2599124E-010  0.4778728E+02  0.7816164E-02  0.1312668E+00
        -11   -1    0    0    0    0  0.00000000000E+00  0.00000000000E+00  0.45593999997E+02  0.45594000000E+02  0.51100000000E-03 0.  1.
         11   -1    0    0    0    0 -0.00000000000E+00 -0.00000000000E+00 -0.45593999997E+02  0.45594000000E+02  0.51100000000E-03 0. -1.
    9900012    2    1    2    0    0 -0.19757325125E+02 -0.23038150362E+02  0.31024410770E+02  0.47787281898E+02  0.20000049484E+02 0.  0.
         12    1    1    2    0    0  0.19757325125E+02  0.23038150362E+02 -0.31024410770E+02  0.43400718102E+02  0.00000000000E+00 0. -1.
         11    1    3    3    0    0 -0.73443395793E+01 -0.15551506462E+02  0.92602310408E+01  0.19533063157E+02  0.51100000000E-03 0.  1.
        -11    1    3    3    0    0 -0.27675813985E+01 -0.73747364048E+01  0.13113259611E+02  0.15297183458E+02  0.51100000000E-03 0. -1.
         12    1    3    3    0    0 -0.96454041472E+01 -0.11190749501E+00  0.86509201175E+01  0.12957035283E+02  0.00000000000E+00 0. -1.
</event>
<event>
 7    1  0.2599124E-010  0.4778726E+02  0.7816164E-02  0.1312668E+00
        -11   -1    0    0    0    0  0.00000000000E+00  0.00000000000E+00  0.45593999997E+02  0.45594000000E+02  0.51100000000E-03 0. -1.
         11   -1    0    0    0    0 -0.00000000000E+00 -0.00000000000E+00 -0.45593999997E+02  0.45594000000E+02  0.51100000000E-03 0.  1.
    9900012    2    1    2    0    0 -0.32532944028E+02  0.28589285672E+02 -0.28079440558E+01  0.47787259774E+02  0.19999948613E+02 0.  0.
         12    1    1    2    0    0  0.32532944028E+02 -0.28589285672E+02  0.28079440558E+01  0.43400740226E+02  0.00000000000E+00 0. -1.
         11    1    3    3    0    0 -0.52499946571E+01  0.78528141552E+01  0.28798415185E+01  0.98753542463E+01  0.51100000000E-03 0.  1.
        -11    1    3    3    0    0 -0.27055254082E+02  0.22063050629E+02 -0.31668602117E+01  0.35054157818E+02  0.51100000000E-03 0. -1.
         12    1    3    3    0    0 -0.22769528925E+00 -0.13265791124E+01 -0.25209253626E+01  0.28577477093E+01  0.00000000000E+00 0. -1.
</event>
<event>
 7    1  0.2599124E-010  0.4778727E+02  0.7816164E-02  0.1312668E+00
        -11   -1    0    0    0    0  0.00000000000E+00  0.00000000000E+00  0.45593999997E+02  0.45594000000E+02  0.51100000000E-03 0.  1.
         11   -1    0    0    0    0 -0.00000000000E+00 -0.00000000000E+00 -0.45593999997E+02  0.45594000000E+02  0.51100000000E-03 0. -1.
    9900012    2    1    2    0    0  0.12998019347E+02 -0.40577462447E+02  0.82549494065E+01  0.47787272411E+02  0.20000006230E+02 0.  0.
         12    1    1    2    0    0 -0.12998019347E+02  0.40577462447E+02 -0.82549494065E+01  0.43400727589E+02  0.00000000000E+00 0. -1.
         11    1    3    3    0    0  0.13865694000E+01 -0.43862189946E+01  0.29910796423E+01  0.54870802306E+01  0.51100000000E-03 0. -1.
        -11    1    3    3    0    0  0.80610062708E+01 -0.30474797385E+02  0.11072189487E+02  0.33410873650E+02  0.51100000000E-03 0.  1.
         12    1    3    3    0    0  0.35504436760E+01 -0.57164460670E+01 -0.58083197223E+01  0.88893185301E+01  0.00000000000E+00 0. -1.
</event>
<event>
 7    1  0.2599124E-010  0.4778727E+02  0.7816164E-02  0.1312668E+00
        -11   -1    0    0    0    0  0.00000000000E+00  0.00000000000E+00  0.45593999997E+02  0.45594000000E+02  0.51100000000E-03 0. -1.
         11   -1    0    0    0    0 -0.00000000000E+00 -0.00000000000E+00 -0.45593999997E+02  0.45594000000E+02  0.51100000000E-03 0.  1.
    9900012    2    1    2    0    0  0.44392266468E+01  0.39376726837E+02 -0.17702825384E+02  0.47787269866E+02  0.19999994626E+02 0.  0.
         12    1    1    2    0    0 -0.44392266468E+01 -0.39376726837E+02  0.17702825384E+02  0.43400730134E+02  0.00000000000E+00 0. -1.
         11    1    3    3    0    0  0.44244871767E+01  0.44771841350E+01 -0.89122709022E+01  0.10910996171E+02  0.51100000000E-03 0. -1.
        -11    1    3    3    0    0  0.30985391289E-01  0.11100280390E+02 -0.67457681311E+01  0.12989325340E+02  0.51100000000E-03 0.  1.
        -12    1    3    3    0    0 -0.16245921197E-01  0.23799262311E+02 -0.20447863512E+01  0.23886948355E+02  0.00000000000E+00 0.  1.
</event>
<event>
 7    1  0.2599124E-010  0.4778725E+02  0.7816164E-02  0.1312668E+00
        -11   -1    0    0    0    0  0.00000000000E+00  0.00000000000E+00  0.45593999997E+02  0.45594000000E+02  0.51100000000E-03 0. -1.
         11   -1    0    0    0    0 -0.00000000000E+00 -0.00000000000E+00 -0.45593999997E+02  0.45594000000E+02  0.51100000000E-03 0.  1.
    9900012    2    1    2    0    0  0.11207627620E+02 -0.39770877138E+02 -0.13277492380E+02  0.47787246676E+02  0.19999888895E+02 0.  0.
         12    1    1    2    0    0 -0.11207627620E+02  0.39770877138E+02  0.13277492380E+02  0.43400753324E+02  0.00000000000E+00 0. -1.
         11    1    3    3    0    0  0.25671293499E+01  0.13176701017E+01 -0.77200127486E-01  0.28865840914E+01  0.51100000000E-03 0. -1.
        -11    1    3    3    0    0  0.33814527029E+01 -0.65341562998E+01 -0.52976213904E+01  0.90661024476E+01  0.51100000000E-03 0.  1.
        -12    1    3    3    0    0  0.52590455674E+01 -0.34554390939E+02 -0.79026708619E+01  0.35834560137E+02  0.00000000000E+00 0.  1.
</event>
<event>
 7    1  0.2599124E-010  0.4778728E+02  0.7816164E-02  0.1312668E+00
        -11   -1    0    0    0    0  0.00000000000E+00  0.00000000000E+00  0.45593999997E+02  0.45594000000E+02  0.51100000000E-03 0.  1.
         11   -1    0    0    0    0 -0.00000000000E+00 -0.00000000000E+00 -0.45593999997E+02  0.45594000000E+02  0.51100000000E-03 0. -1.
    9900012    2    1    2    0    0 -0.27455278536E+02 -0.13663573717E+02  0.30710540075E+02  0.47787276067E+02  0.20000022899E+02 0.  0.
         12    1    1    2    0    0  0.27455278536E+02  0.13663573717E+02 -0.30710540075E+02  0.43400723933E+02  0.00000000000E+00 0. -1.
         11    1    3    3    0    0  0.24782998891E+01 -0.15585514450E+01  0.88651140375E-02  0.29276495348E+01  0.51100000000E-03 0. -1.
        -11    1    3    3    0    0 -0.43032334249E+01 -0.34208776239E+01  0.36690718624E+01  0.66092594305E+01  0.51100000000E-03 0.  1.
        -12    1    3    3    0    0 -0.25630345001E+02 -0.86841446483E+01  0.27032603098E+02  0.38250367102E+02  0.00000000000E+00 0.  1.
</event>
<event>
 7    1  0.2599124E-010  0.4778730E+02  0.7816164E-02  0.1312668E+00
        -11   -1    0    0    0    0  0.00000000000E+00  0.00000000000E+00  0.45593999997E+02  0.45594000000E+02  0.51100000000E-03 0.  1.
         11   -1    0    0    0    0 -0.00000000000E+00 -0.00000000000E+00 -0.45593999997E+02  0.45594000000E+02  0.51100000000E-03 0. -1.
    9900012    2    1    2    0    0 -0.40933667098E+01 -0.29148960476E+02  0.31893625643E+02  0.47787298341E+02  0.20000124457E+02 0.  0.
         12    1    1    2    0    0  0.40933667098E+01  0.29148960476E+02 -0.31893625643E+02  0.43400701659E+02  0.00000000000E+00 0. -1.
         11    1    3    3    0    0 -0.10301915103E+02 -0.17004205287E+02  0.15364366327E+02  0.25126404541E+02  0.51100000000E-03 0. -1.
        -11    1    3    3    0    0  0.33885240803E+01 -0.91061109610E+01  0.61871780377E+01  0.11518876881E+02  0.51100000000E-03 0.  1.
         12    1    3    3    0    0  0.28200243132E+01 -0.30386442272E+01  0.10342081278E+02  0.11142016919E+02  0.00000000000E+00 0. -1.
</event>
<event>
 7    1  0.2599124E-010  0.4778727E+02  0.7816164E-02  0.1312668E+00
        -11   -1    0    0    0    0  0.00000000000E+00  0.00000000000E+00  0.45593999997E+02  0.45594000000E+02  0.51100000000E-03 0. -1.
         11   -1    0    0    0    0 -0.00000000000E+00 -0.00000000000E+00 -0.45593999997E+02  0.45594000000E+02  0.51100000000E-03 0.  1.
    9900012    2    1    2    0    0  0.29834693582E+02  0.22916076611E+02 -0.21641808048E+02  0.47787270006E+02  0.19999995266E+02 0.  0.
         12    1    1    2    0    0 -0.29834693582E+02 -0.22916076611E+02  0.21641808048E+02  0.43400729994E+02  0.00000000000E+00 0. -1.
         11    1    3    3    0    0  0.84362854916E+00 -0.10961173902E+01 -0.42593193085E+01  0.44782790997E+01  0.51100000000E-03 0.  1.
        -11    1    3    3    0    0  0.90133179488E+01  0.10870404472E+02 -0.12594626181E+02  0.18921686044E+02  0.51100000000E-03 0. -1.
        -12    1    3    3    0    0  0.19977747084E+02  0.13141789529E+02 -0.47878625585E+01  0.24387304863E+02  0.00000000000E+00 0.  1.
</event>
<event>
 7    1  0.2599124E-010  0.4778727E+02  0.7816164E-02  0.1312668E+00
        -11   -1    0    0    0    0  0.00000000000E+00  0.00000000000E+00  0.45593999997E+02  0.45594000000E+02  0.51100000000E-03 0.  1.
         11   -1    0    0    0    0 -0.00000000000E+00 -0.00000000000E+00 -0.45593999997E+02  0.45594000000E+02  0.51100000000E-03 0. -1.
    9900012    2    1    2    0    0 -0.29916414219E+01 -0.11147532027E+02  0.41837851193E+02  0.47787272113E+02  0.20000004872E+02 0.  0.
         12    1    1    2    0    0  0.29916414219E+01  0.11147532027E+02 -0.41837851193E+02  0.43400727887E+02  0.00000000000E+00 0. -1.
         11    1    3    3    0    0  0.20579085344E+01 -0.47741888464E+01  0.49101034274E+01  0.71510126979E+01  0.51100000000E-03 0. -1.
        -11    1    3    3    0    0  0.49943846389E+01 -0.37990670938E+01  0.17881930408E+02  0.18950995332E+02  0.51100000000E-03 0.  1.
        -12    1    3    3    0    0 -0.10043934595E+02 -0.25742760869E+01  0.19045817357E+02  0.21685264083E+02  0.00000000000E+00 0.  1.
</event>
<event>
 7    1  0.2599124E-010  0.4778727E+02  0.7816164E-02  0.1312668E+00
        -11   -1    0    0    0    0  0.00000000000E+00  0.00000000000E+00  0.45593999997E+02  0.45594000000E+02  0.51100000000E-03 0. -1.
         11   -1    0    0    0    0 -0.00000000000E+00 -0.00000000000E+00 -0.45593999997E+02  0.45594000000E+02  0.51100000000E-03 0.  1.
    9900012    2    1    2    0    0  0.36969991674E+02  0.28225901102E+01 -0.22558274463E+02  0.47787273669E+02  0.20000011967E+02 0.  0.
         12    1    1    2    0    0 -0.36969991674E+02 -0.28225901102E+01  0.22558274463E+02  0.43400726331E+02  0.00000000000E+00 0. -1.
         11    1    3    3    0    0  0.17277664440E+02 -0.16063986528E+01 -0.14340179679E+02  0.22510863125E+02  0.51100000000E-03 0. -1.
        -11    1    3    3    0    0  0.74356804326E+01  0.32450130975E+01 -0.99535127706E+01  0.12841022943E+02  0.51100000000E-03 0.  1.
         12    1    3    3    0    0  0.12256646802E+02  0.11839756655E+01  0.17354179868E+01  0.12435387601E+02  0.00000000000E+00 0. -1.
</event>
<event>
 7    1  0.2599124E-010  0.4778727E+02  0.7816164E-02  0.1312668E+00
        -11   -1    0    0    0    0  0.00000000000E+00  0.00000000000E+00  0.45593999997E+02  0.45594000000E+02  0.51100000000E-03 0.  1.
         11   -1    0    0    0    0 -0.00000000000E+00 -0.00000000000E+00 -0.45593999997E+02  0.45594000000E+02  0.51100000000E-03 0. -1.
    9900012    2    1    2    0    0 -0.33855967452E+02  0.16478381346E+02  0.21583789384E+02  0.47787267886E+02  0.19999985598E+02 0.  0.
         12    1    1    2    0    0  0.33855967452E+02 -0.16478381346E+02 -0.21583789384E+02  0.43400732114E+02  0.00000000000E+00 0. -1.
         11    1    3    3    0    0 -0.35501425839E+01 -0.22838255523E+00  0.16137285475E-01  0.35575176220E+01  0.51100000000E-03 0. -1.
        -11    1    3    3    0    0 -0.18622299754E+01  0.89364453994E+01  0.49955627274E+01  0.10405940807E+02  0.51100000000E-03 0.  1.
        -12    1    3    3    0    0 -0.28443594893E+02  0.77703185016E+01  0.16572089371E+02  0.33823809457E+02  0.00000000000E+00 0.  1.
</event>
<event>
 7    1  0.2599124E-010  0.4778727E+02  0.7816164E-02  0.1312668E+00
        -11   -1    0    0    0    0  0.00000000000E+00  0.00000000000E+00  0.45593999997E+02  0.45594000000E+02  0.51100000000E-03 0.  1.
         11   -1    0    0    0    0 -0.00000000000E+00 -0.00000000000E+00 -0.45593999997E+02  0.45594000000E+02  0.51100000000E-03 0. -1.
    9900012    2    1    2    0    0  0.39617594958E+01 -0.41137687354E+02  0.13252097718E+02  0.47787274740E+02  0.20000016852E+02 0.  0.
         12    1    1    2    0    0 -0.39617594958E+01  0.41137687354E+02 -0.13252097718E+02  0.43400725260E+02  0.00000000000E+00 0. -1.
         11    1    3    3    0    0  0.36527576958E+01 -0.64455840093E+01  0.21115438476E+01  0.77036880575E+01  0.51100000000E-03 0. -1.
        -11    1    3    3    0    0  0.26033077662E+01 -0.27461974908E+02  0.15183809397E+02  0.31487860284E+02  0.51100000000E-03 0.  1.
         12    1    3    3    0    0 -0.22943059662E+01 -0.72301284367E+01 -0.40432555269E+01  0.85957263993E+01  0.00000000000E+00 0. -1.
</event>
<event>
 7    1  0.2930307E-010  0.4778727E+02  0.7816164E-02  0.1312668E+00
        -11   -1    0    0    0    0  0.00000000000E+00  0.00000000000E+00  0.45593999997E+02  0.45594000000E+02  0.51100000000E-03 0. -1.
         11   -1    0    0    0    0 -0.00000000000E+00 -0.00000000000E+00 -0.45593999997E+02  0.45594000000E+02  0.51100000000E-03 0.  1.
    9900012    2    1    2    0    0  0.35291975825E+02  0.32195398622E+01 -0.25054629975E+02  0.47787268696E+02  0.19999989293E+02 0.  0.
         12    1    1    2    0    0 -0.35291975825E+02 -0.32195398622E+01  0.25054629975E+02  0.43400731304E+02  0.00000000000E+00 0. -1.
         11    1    3    3    0    0  0.81426782719E+01 -0.17241374966E+01  0.55280002381E+00  0.83415494768E+01  0.51100000000E-03 0. -1.
        -11    1    3    3    0    0  0.76641465601E+00  0.31166810233E+01 -0.48980969287E+01  0.58559752228E+01  0.51100000000E-03 0.  1.
        -12    1    3    3    0    0  0.26382882897E+02  0.18269963355E+01 -0.20709333070E+02  0.33589743997E+02  0.00000000000E+00 0.  1.
</event>
<event>
 7    1  0.2599124E-010  0.4778724E+02  0.7816164E-02  0.1312668E+00
        -11   -1    0    0    0    0  0.00000000000E+00  0.00000000000E+00  0.45593999997E+02  0.45594000000E+02  0.51100000000E-03 0. -1.
         11   -1    0    0    0    0 -0.00000000000E+00 -0.00000000000E+00 -0.45593999997E+02  0.45594000000E+02  0.51100000000E-03 0.  1.
    9900012    2    1    2    0    0 -0.13729687358E+02 -0.41164560555E+02 -0.77471787521E+00  0.47787244840E+02  0.19999880525E+02 0.  0.
         12    1    1    2    0    0  0.13729687358E+02  0.41164560555E+02  0.77471787521E+00  0.43400755160E+02  0.00000000000E+00 0. -1.
         11    1    3    3    0    0  0.24152336789E+01 -0.10973423640E+02  0.18074710847E+01  0.11380524244E+02  0.51100000000E-03 0. -1.
        -11    1    3    3    0    0  0.18786775450E+01 -0.20688081206E+01 -0.99612084481E+00  0.29667580550E+01  0.51100000000E-03 0.  1.
        -12    1    3    3    0    0 -0.18023598582E+02 -0.28122328795E+02 -0.15860681151E+01  0.33439962541E+02  0.00000000000E+00 0.  1.
</event>
<event>
 7    1  0.2599124E-010  0.4778728E+02  0.7816164E-02  0.1312668E+00
        -11   -1    0    0    0    0  0.00000000000E+00  0.00000000000E+00  0.45593999997E+02  0.45594000000E+02  0.51100000000E-03 0. -1.
         11   -1    0    0    0    0 -0.00000000000E+00 -0.00000000000E+00 -0.45593999997E+02  0.45594000000E+02  0.51100000000E-03 0.  1.
    9900012    2    1    2    0    0 -0.31596359161E+02 -0.23959735404E+02 -0.17641543382E+02  0.47787275516E+02  0.20000020388E+02 0.  0.
         12    1    1    2    0    0  0.31596359161E+02  0.23959735404E+02  0.17641543382E+02  0.43400724484E+02  0.00000000000E+00 0. -1.
         11    1    3    3    0    0 -0.13965517968E+02 -0.56085193191E+01 -0.51281680359E+01  0.15899348689E+02  0.51100000000E-03 0. -1.
        -11    1    3    3    0    0 -0.18120756927E+02 -0.18805793051E+02 -0.79828071272E+01  0.27308330117E+02  0.51100000000E-03 0.  1.
        -12    1    3    3    0    0  0.48991573410E+00  0.45457696587E+00 -0.45305682188E+01  0.45795967104E+01  0.00000000000E+00 0.  1.
</event>
<event>
 7    1  0.2599124E-010  0.4778727E+02  0.7816164E-02  0.1312668E+00
        -11   -1    0    0    0    0  0.00000000000E+00  0.00000000000E+00  0.45593999997E+02  0.45594000000E+02  0.51100000000E-03 0.  1.
         11   -1    0    0    0    0 -0.00000000000E+00 -0.00000000000E+00 -0.45593999997E+02  0.45594000000E+02  0.51100000000E-03 0. -1.
    9900012    2    1    2    0    0  0.20946837000E+02 -0.34240187323E+02  0.16506442951E+02  0.47787273427E+02  0.20000010862E+02 0.  0.
         12    1    1    2    0    0 -0.20946837000E+02  0.34240187323E+02 -0.16506442951E+02  0.43400726573E+02  0.00000000000E+00 0. -1.
         11    1    3    3    0    0 -0.12704732024E+01 -0.74243583555E+01  0.28893489468E+01  0.80674368139E+01  0.51100000000E-03 0. -1.
        -11    1    3    3    0    0  0.21244191717E+02 -0.28240634914E+02  0.11908428864E+02  0.37291551594E+02  0.51100000000E-03 0.  1.
         12    1    3    3    0    0  0.97311848487E+00  0.14248059462E+01  0.17086651402E+01  0.24282850185E+01  0.00000000000E+00 0. -1.
</event>
<event>
 7    1  0.2599124E-010  0.4778727E+02  0.7816164E-02  0.1312668E+00
        -11   -1    0    0    0    0  0.00000000000E+00  0.00000000000E+00  0.45593999997E+02  0.45594000000E+02  0.51100000000E-03 0.  1.
         11   -1    0    0    0    0 -0.00000000000E+00 -0.00000000000E+00 -0.45593999997E+02  0.45594000000E+02  0.51100000000E-03 0. -1.
    9900012    2    1    2    0    0 -0.41388083658E+01  0.40426589317E+02  0.15237592031E+02  0.47787273400E+02  0.20000010739E+02 0.  0.
         12    1    1    2    0    0  0.41388083658E+01 -0.40426589317E+02 -0.15237592031E+02  0.43400726600E+02  0.00000000000E+00 0. -1.
         11    1    3    3    0    0  0.50719035287E+01  0.17429207727E+02  0.73821089930E-01  0.18152325945E+02  0.51100000000E-03 0. -1.
        -11    1    3    3    0    0 -0.77550045261E+00  0.95419717210E+01  0.53610286943E+01  0.10972294847E+02  0.51100000000E-03 0.  1.
         12    1    3    3    0    0 -0.84352114418E+01  0.13455409869E+02  0.98027422471E+01  0.18662652608E+02  0.00000000000E+00 0. -1.
</event>
<event>
 7    1  0.2599124E-010  0.4778727E+02  0.7816164E-02  0.1312668E+00
        -11   -1    0    0    0    0  0.00000000000E+00  0.00000000000E+00  0.45593999997E+02  0.45594000000E+02  0.51100000000E-03 0.  1.
         11   -1    0    0    0    0 -0.00000000000E+00 -0.00000000000E+00 -0.45593999997E+02  0.45594000000E+02  0.51100000000E-03 0. -1.
    9900012    2    1    2    0    0 -0.42951858957E+02 -0.62011391331E+01 -0.55406434025E+00  0.47787270724E+02  0.19999998540E+02 0.  0.
         12    1    1    2    0    0  0.42951858957E+02  0.62011391331E+01  0.55406434025E+00  0.43400729276E+02  0.00000000000E+00 0. -1.
         11    1    3    3    0    0 -0.73402812794E+01  0.12552621927E+01 -0.29754001672E+01  0.80192530107E+01  0.51100000000E-03 0. -1.
        -11    1    3    3    0    0 -0.29365132469E+02  0.74779725785E+00  0.21440204443E+01  0.29452793239E+02  0.51100000000E-03 0.  1.
        -12    1    3    3    0    0 -0.62464452085E+01 -0.82041985837E+01  0.27731538257E+00  0.10315224475E+02  0.00000000000E+00 0.  1.
</event>
<event>
 7    1  0.2628785E-010  0.4778728E+02  0.7816164E-02  0.1312668E+00
        -11   -1    0    0    0    0  0.00000000000E+00  0.00000000000E+00  0.45593999997E+02  0.45594000000E+02  0.51100000000E-03 0.  1.
         11   -1    0    0    0    0 -0.00000000000E+00 -0.00000000000E+00 -0.45593999997E+02  0.45594000000E+02  0.51100000000E-03 0. -1.
    9900012    2    1    2    0    0 -0.14675189682E+02 -0.39755368098E+02 -0.93686891526E+01  0.47787276259E+02  0.20000023775E+02 0.  0.
         12    1    1    2    0    0  0.14675189682E+02  0.39755368098E+02  0.93686891526E+01  0.43400723741E+02  0.00000000000E+00 0. -1.
         11    1    3    3    0    0  0.17431068600E+01 -0.45655481074E+01 -0.57959818744E+00  0.49212381945E+01  0.51100000000E-03 0. -1.
        -11    1    3    3    0    0 -0.10964798941E+02 -0.23129229753E+02 -0.13346413421E+02  0.28867193079E+02  0.51100000000E-03 0.  1.
        -12    1    3    3    0    0 -0.54534976006E+01 -0.12060590238E+02  0.45573224563E+01  0.13998844986E+02  0.00000000000E+00 0.  1.
</event>
<event>
 7    1  0.2599124E-010  0.4778727E+02  0.7816164E-02  0.1312668E+00
        -11   -1    0    0    0    0  0.00000000000E+00  0.00000000000E+00  0.45593999997E+02  0.45594000000E+02  0.51100000000E-03 0.  1.
         11   -1    0    0    0    0 -0.00000000000E+00 -0.00000000000E+00 -0.45593999997E+02  0.45594000000E+02  0.51100000000E-03 0. -1.
    9900012    2    1    2    0    0 -0.15520819914E+01 -0.56368811395E+01  0.43005116719E+02  0.47787268999E+02  0.19999990672E+02 0.  0.
         12    1    1    2    0    0  0.15520819914E+01  0.56368811395E+01 -0.43005116719E+02  0.43400731001E+02  0.00000000000E+00 0. -1.
         11    1    3    3    0    0 -0.89307994231E+00 -0.47049181578E+00  0.16348706439E+02  0.16379839951E+02  0.51100000000E-03 0. -1.
        -11    1    3    3    0    0  0.45254769854E+01  0.85423319669E+00  0.21378498457E+02  0.21868924364E+02  0.51100000000E-03 0.  1.
         12    1    3    3    0    0 -0.51844790344E+01 -0.60206225204E+01  0.52779118226E+01  0.95385046836E+01  0.00000000000E+00 0. -1.
</event>
<event>
 7    1  0.2599124E-010  0.4778721E+02  0.7816164E-02  0.1312668E+00
        -11   -1    0    0    0    0  0.00000000000E+00  0.00000000000E+00  0.45593999997E+02  0.45594000000E+02  0.51100000000E-03 0.  1.
         11   -1    0    0    0    0 -0.00000000000E+00 -0.00000000000E+00 -0.45593999997E+02  0.45594000000E+02  0.51100000000E-03 0. -1.
    9900012    2    1    2    0    0 -0.12716912723E+02 -0.46923032661E+01  0.41229737591E+02  0.47787206909E+02  0.19999707578E+02 0.  0.
         12    1    1    2    0    0  0.12716912723E+02  0.46923032661E+01 -0.41229737591E+02  0.43400793091E+02  0.00000000000E+00 0. -1.
         11    1    3    3    0    0 -0.37123308145E+01  0.35456348905E+01  0.10202642927E+02  0.11421333101E+02  0.51100000000E-03 0.  1.
        -11    1    3    3    0    0 -0.73378162941E+01 -0.99721063738E+01  0.12186325722E+02  0.17372190085E+02  0.51100000000E-03 0. -1.
         12    1    3    3    0    0 -0.16667656141E+01  0.17341682172E+01  0.18840768942E+02  0.18993683722E+02  0.00000000000E+00 0. -1.
</event>
<event>
 7    1  0.2599124E-010  0.4778726E+02  0.7816164E-02  0.1312668E+00
        -11   -1    0    0    0    0  0.00000000000E+00  0.00000000000E+00  0.45593999997E+02  0.45594000000E+02  0.51100000000E-03 0. -1.
         11   -1    0    0    0    0 -0.00000000000E+00 -0.00000000000E+00 -0.45593999997E+02  0.45594000000E+02  0.51100000000E-03 0.  1.
    9900012    2    1    2    0    0 -0.25208550295E+02  0.19046544414E+02 -0.29755370344E+02  0.47787263527E+02  0.19999965726E+02 0.  0.
         12    1    1    2    0    0  0.25208550295E+02 -0.19046544414E+02  0.29755370344E+02  0.43400736473E+02  0.00000000000E+00 0. -1.
         11    1    3    3    0    0 -0.71295433223E+01  0.80882122228E+01 -0.18537164384E+01  0.10940101912E+02  0.51100000000E-03 0. -1.
        -11    1    3    3    0    0 -0.12496294632E+02  0.50687280740E+01 -0.88248467875E+01  0.16116057362E+02  0.51100000000E-03 0.  1.
        -12    1    3    3    0    0 -0.55827123401E+01  0.58896041170E+01 -0.19076807118E+02  0.20731104253E+02  0.00000000000E+00 0.  1.
</event>
<event>
 7    1  0.2599124E-010  0.4778727E+02  0.7816164E-02  0.1312668E+00
        -11   -1    0    0    0    0  0.00000000000E+00  0.00000000000E+00  0.45593999997E+02  0.45594000000E+02  0.51100000000E-03 0.  1.
         11   -1    0    0    0    0 -0.00000000000E+00 -0.00000000000E+00 -0.45593999997E+02  0.45594000000E+02  0.51100000000E-03 0. -1.
    9900012    2    1    2    0    0 -0.18928109015E+02 -0.38475794296E+02  0.67054985933E+01  0.47787265340E+02  0.19999973991E+02 0.  0.
         12    1    1    2    0    0  0.18928109015E+02  0.38475794296E+02 -0.67054985933E+01  0.43400734660E+02  0.00000000000E+00 0. -1.
         11    1    3    3    0    0 -0.96315628029E+01 -0.11209299638E+02  0.34265628095E+00  0.14782855407E+02  0.51100000000E-03 0. -1.
        -11    1    3    3    0    0 -0.12928755042E+02 -0.17286699664E+02  0.26252209796E+01  0.21745677218E+02  0.51100000000E-03 0.  1.
         12    1    3    3    0    0  0.36322088301E+01 -0.99797949943E+01  0.37376213328E+01  0.11258732715E+02  0.00000000000E+00 0. -1.
</event>
<event>
 7    1  0.2599124E-010  0.4778727E+02  0.7816164E-02  0.1312668E+00
        -11   -1    0    0    0    0  0.00000000000E+00  0.00000000000E+00  0.45593999997E+02  0.45594000000E+02  0.51100000000E-03 0. -1.
         11   -1    0    0    0    0 -0.00000000000E+00 -0.00000000000E+00 -0.45593999997E+02  0.45594000000E+02  0.51100000000E-03 0.  1.
    9900012    2    1    2    0    0 -0.18508024346E+02  0.39185691295E+02  0.23576095065E+01  0.47787266250E+02  0.19999978139E+02 0.  0.
         12    1    1    2    0    0  0.18508024346E+02 -0.39185691295E+02 -0.23576095065E+01  0.43400733750E+02  0.00000000000E+00 0. -1.
         11    1    3    3    0    0 -0.19602269247E+01  0.70991007714E+01  0.49506969076E+01  0.88740701761E+01  0.51100000000E-03 0. -1.
        -11    1    3    3    0    0 -0.24106496325E+00 -0.10786233464E+01 -0.15974261160E+01  0.19425012476E+01  0.51100000000E-03 0.  1.
        -12    1    3    3    0    0 -0.16306732458E+02  0.33165213870E+02 -0.99566128512E+00  0.36970694826E+02  0.00000000000E+00 0.  1.
</event>
<event>
 7    1  0.2599124E-010  0.4778725E+02  0.7816164E-02  0.1312668E+00
        -11   -1    0    0    0    0  0.00000000000E+00  0.00000000000E+00  0.45593999997E+02  0.45594000000E+02  0.51100000000E-03 0.  1.
         11   -1    0    0    0    0 -0.00000000000E+00 -0.00000000000E+00 -0.45593999997E+02  0.45594000000E+02  0.51100000000E-03 0. -1.
    9900012    2    1    2    0    0  0.40250684939E+02  0.14794957014E+02 -0.66795418264E+01  0.47787254959E+02  0.19999926660E+02 0.  0.
         12    1    1    2    0    0 -0.40250684939E+02 -0.14794957014E+02  0.66795418264E+01  0.43400745041E+02  0.00000000000E+00 0. -1.
         11    1    3    3    0    0  0.13284401569E+02 -0.25600409945E+01 -0.61408616436E+00  0.13542755887E+02  0.51100000000E-03 0. -1.
        -11    1    3    3    0    0  0.17088102572E+02  0.65730808238E+01  0.26390136306E+00  0.18310605812E+02  0.51100000000E-03 0.  1.
         12    1    3    3    0    0  0.98781807984E+01  0.10781917185E+02 -0.63293570252E+01  0.15933893260E+02  0.00000000000E+00 0. -1.
</event>
<event>
 7    1  0.2599124E-010  0.4778726E+02  0.7816164E-02  0.1312668E+00
        -11   -1    0    0    0    0  0.00000000000E+00  0.00000000000E+00  0.45593999997E+02  0.45594000000E+02  0.51100000000E-03 0. -1.
         11   -1    0    0    0    0 -0.00000000000E+00 -0.00000000000E+00 -0.45593999997E+02  0.45594000000E+02  0.51100000000E-03 0.  1.
    9900012    2    1    2    0    0 -0.18626558203E+02 -0.35305125975E+02 -0.17035943725E+02  0.47787263034E+02  0.19999963478E+02 0.  0.
         12    1    1    2    0    0  0.18626558203E+02  0.35305125975E+02  0.17035943725E+02  0.43400736966E+02  0.00000000000E+00 0. -1.
         11    1    3    3    0    0  0.97574969032E+00 -0.77389711650E+01 -0.25792821773E+01  0.82156228591E+01  0.51100000000E-03 0. -1.
        -11    1    3    3    0    0 -0.34626090760E+01 -0.42804807205E+01  0.30232538727E+01  0.62811018979E+01  0.51100000000E-03 0.  1.
        -12    1    3    3    0    0 -0.16139698817E+02 -0.23285674089E+02 -0.17479915420E+02  0.33290538277E+02  0.00000000000E+00 0.  1.
</event>
<event>
 7    1  0.2599124E-010  0.4778727E+02  0.7816164E-02  0.1312668E+00
        -11   -1    0    0    0    0  0.00000000000E+00  0.00000000000E+00  0.45593999997E+02  0.45594000000E+02  0.51100000000E-03 0. -1.
         11   -1    0    0    0    0 -0.00000000000E+00 -0.00000000000E+00 -0.45593999997E+02  0.45594000000E+02  0.51100000000E-03 0.  1.
    9900012    2    1    2    0    0  0.14755728117E+02  0.34187953032E+02  0.22295194671E+02  0.47787270165E+02  0.19999995991E+02 0.  0.
         12    1    1    2    0    0 -0.14755728117E+02 -0.34187953032E+02 -0.22295194671E+02  0.43400729835E+02  0.00000000000E+00 0. -1.
         11    1    3    3    0    0  0.33777713391E-01  0.99831060884E+01  0.13720093027E+01  0.10077001434E+02  0.51100000000E-03 0. -1.
        -11    1    3    3    0    0  0.46281126170E+01  0.19649768717E+02  0.11967662345E+02  0.23468229147E+02  0.51100000000E-03 0.  1.
         12    1    3    3    0    0  0.10093837787E+02  0.45550782272E+01  0.89555230229E+01  0.14242039585E+02  0.00000000000E+00 0. -1.
</event>
<event>
 7    1  0.2599124E-010  0.4778727E+02  0.7816164E-02  0.1312668E+00
        -11   -1    0    0    0    0  0.00000000000E+00  0.00000000000E+00  0.45593999997E+02  0.45594000000E+02  0.51100000000E-03 0.  1.
         11   -1    0    0    0    0 -0.00000000000E+00 -0.00000000000E+00 -0.45593999997E+02  0.45594000000E+02  0.51100000000E-03 0. -1.
    9900012    2    1    2    0    0 -0.28981375795E+02 -0.22025722116E+02  0.23634095699E+02  0.47787273540E+02  0.20000011379E+02 0.  0.
         12    1    1    2    0    0  0.28981375795E+02  0.22025722116E+02 -0.23634095699E+02  0.43400726460E+02  0.00000000000E+00 0. -1.
         11    1    3    3    0    0 -0.90000378541E+01  0.13592048364E+01  0.85267157827E+01  0.12472088897E+02  0.51100000000E-03 0. -1.
        -11    1    3    3    0    0 -0.48447215478E+01 -0.29617903909E+01  0.61295400607E+01  0.83555245684E+01  0.51100000000E-03 0.  1.
         12    1    3    3    0    0 -0.15136616393E+02 -0.20423136562E+02  0.89778398556E+01  0.26959660075E+02  0.00000000000E+00 0. -1.
</event>
<event>
 7    1  0.2599124E-010  0.4778727E+02  0.7816164E-02  0.1312668E+00
        -11   -1    0    0    0    0  0.00000000000E+00  0.00000000000E+00  0.45593999997E+02  0.45594000000E+02  0.51100000000E-03 0.  1.
         11   -1    0    0    0    0 -0.00000000000E+00 -0.00000000000E+00 -0.45593999997E+02  0.45594000000E+02  0.51100000000E-03 0. -1.
    9900012    2    1    2    0    0  0.30025641463E+02 -0.65368569605E+01  0.30648881094E+02  0.47787267789E+02  0.19999985155E+02 0.  0.
         12    1    1    2    0    0 -0.30025641463E+02  0.65368569605E+01 -0.30648881094E+02  0.43400732211E+02  0.00000000000E+00 0. -1.
         11    1    3    3    0    0  0.69212936255E+01 -0.61843656636E+01  0.93517439072E+00  0.93287317205E+01  0.51100000000E-03 0. -1.
        -11    1    3    3    0    0  0.54278901699E+01  0.29374204667E+01  0.52787856012E+01  0.81213304563E+01  0.51100000000E-03 0.  1.
         12    1    3    3    0    0  0.17676457668E+02 -0.32899117636E+01  0.24434921102E+02  0.30337205612E+02  0.00000000000E+00 0. -1.
</event>
<event>
 7    1  0.2599124E-010  0.4778727E+02  0.7816164E-02  0.1312668E+00
        -11   -1    0    0    0    0  0.00000000000E+00  0.00000000000E+00  0.45593999997E+02  0.45594000000E+02  0.51100000000E-03 0.  1.
         11   -1    0    0    0    0 -0.00000000000E+00 -0.00000000000E+00 -0.45593999997E+02  0.45594000000E+02  0.51100000000E-03 0. -1.
    9900012    2    1    2    0    0 -0.36664967615E+02 -0.12560032144E+02  0.19533285663E+02  0.47787268365E+02  0.19999987784E+02 0.  0.
         12    1    1    2    0    0  0.36664967615E+02  0.12560032144E+02 -0.19533285663E+02  0.43400731635E+02  0.00000000000E+00 0. -1.
         11    1    3    3    0    0 -0.18447353536E+02 -0.14811766253E+02  0.11464671989E+02  0.26289389040E+02  0.51100000000E-03 0. -1.
        -11    1    3    3    0    0 -0.10543229053E+01 -0.11935543042E+01  0.27919860167E+01  0.32142424993E+01  0.51100000000E-03 0.  1.
        -12    1    3    3    0    0 -0.17163291173E+02  0.34452884133E+01  0.52766276581E+01  0.18283636826E+02  0.00000000000E+00 0.  1.
</event>
<event>
 7    1  0.2599124E-010  0.4778727E+02  0.7816164E-02  0.1312668E+00
        -11   -1    0    0    0    0  0.00000000000E+00  0.00000000000E+00  0.45593999997E+02  0.45594000000E+02  0.51100000000E-03 0.  1.
         11   -1    0    0    0    0 -0.00000000000E+00 -0.00000000000E+00 -0.45593999997E+02  0.45594000000E+02  0.51100000000E-03 0. -1.
    9900012    2    1    2    0    0 -0.32274965321E+02 -0.17757476616E+02  0.22948243095E+02  0.47787271626E+02  0.20000002653E+02 0.  0.
         12    1    1    2    0    0  0.32274965321E+02  0.17757476616E+02 -0.22948243095E+02  0.43400728374E+02  0.00000000000E+00 0. -1.
         11    1    3    3    0    0  0.25569665535E+00 -0.33644620837E+01  0.20507291851E+01  0.39484777249E+01  0.51100000000E-03 0. -1.
        -11    1    3    3    0    0 -0.64027421789E+01  0.25872109250E+01  0.12980784654E+01  0.70266475466E+01  0.51100000000E-03 0.  1.
        -12    1    3    3    0    0 -0.26127919797E+02 -0.16980225457E+02  0.19599435445E+02  0.36812146355E+02  0.00000000000E+00 0.  1.
</event>
<event>
 7    1  0.2599124E-010  0.4778729E+02  0.7816164E-02  0.1312668E+00
        -11   -1    0    0    0    0  0.00000000000E+00  0.00000000000E+00  0.45593999997E+02  0.45594000000E+02  0.51100000000E-03 0.  1.
         11   -1    0    0    0    0 -0.00000000000E+00 -0.00000000000E+00 -0.45593999997E+02  0.45594000000E+02  0.51100000000E-03 0. -1.
    9900012    2    1    2    0    0  0.40512506758E+01 -0.10005755681E+02  0.42036819303E+02  0.47787286228E+02  0.20000069228E+02 0.  0.
         12    1    1    2    0    0 -0.40512506758E+01  0.10005755681E+02 -0.42036819303E+02  0.43400713772E+02  0.00000000000E+00 0. -1.
         11    1    3    3    0    0 -0.48651018971E+01 -0.76847630140E+01  0.78742779109E+01  0.12030338812E+02  0.51100000000E-03 0. -1.
        -11    1    3    3    0    0  0.25700464750E+00  0.73503201985E+00  0.78413885411E+01  0.78799554550E+01  0.51100000000E-03 0.  1.
         12    1    3    3    0    0  0.86593479253E+01 -0.30560246866E+01  0.26321152851E+02  0.27876991961E+02  0.00000000000E+00 0. -1.
</event>
<event>
 7    1  0.2599124E-010  0.4778727E+02  0.7816164E-02  0.1312668E+00
        -11   -1    0    0    0    0  0.00000000000E+00  0.00000000000E+00  0.45593999997E+02  0.45594000000E+02  0.51100000000E-03 0.  1.
         11   -1    0    0    0    0 -0.00000000000E+00 -0.00000000000E+00 -0.45593999997E+02  0.45594000000E+02  0.51100000000E-03 0. -1.
    9900012    2    1    2    0    0 -0.35352257750E+02 -0.15761254976E+02  0.19632219458E+02  0.47787270429E+02  0.19999997193E+02 0.  0.
         12    1    1    2    0    0  0.35352257750E+02  0.15761254976E+02 -0.19632219458E+02  0.43400729571E+02  0.00000000000E+00 0. -1.
         11    1    3    3    0    0 -0.70281800154E+01 -0.16083264618E+01  0.79654455354E-01  0.72102963483E+01  0.51100000000E-03 0. -1.
        -11    1    3    3    0    0 -0.70399295468E+01 -0.17645808930E+00  0.12178310492E+02  0.14067799834E+02  0.51100000000E-03 0.  1.
        -12    1    3    3    0    0 -0.21284148188E+02 -0.13976470425E+02  0.73742545110E+01  0.26509174247E+02  0.00000000000E+00 0.  1.
</event>
<event>
 7    1  0.2599124E-010  0.4778726E+02  0.7816164E-02  0.1312668E+00
        -11   -1    0    0    0    0  0.00000000000E+00  0.00000000000E+00  0.45593999997E+02  0.45594000000E+02  0.51100000000E-03 0.  1.
         11   -1    0    0    0    0 -0.00000000000E+00 -0.00000000000E+00 -0.45593999997E+02  0.45594000000E+02  0.51100000000E-03 0. -1.
    9900012    2    1    2    0    0  0.40101762307E+02 -0.16106762565E+01 -0.16519025967E+02  0.47787264557E+02  0.19999970420E+02 0.  0.
         12    1    1    2    0    0 -0.40101762307E+02  0.16106762565E+01  0.16519025967E+02  0.43400735443E+02  0.00000000000E+00 0. -1.
         11    1    3    3    0    0  0.12856171033E+02 -0.27534137072E+01 -0.12585888627E+01  0.13207818399E+02  0.51100000000E-03 0. -1.
        -11    1    3    3    0    0  0.17789359174E+02  0.19546566403E+00 -0.14964364643E+01  0.17853258218E+02  0.51100000000E-03 0.  1.
         12    1    3    3    0    0  0.94562320993E+01  0.94727178662E+00 -0.13764000640E+02  0.16726187939E+02  0.00000000000E+00 0. -1.
</event>
<event>
 7    1  0.2599124E-010  0.4778727E+02  0.7816164E-02  0.1312668E+00
        -11   -1    0    0    0    0  0.00000000000E+00  0.00000000000E+00  0.45593999997E+02  0.45594000000E+02  0.51100000000E-03 0.  1.
         11   -1    0    0    0    0 -0.00000000000E+00 -0.00000000000E+00 -0.45593999997E+02  0.45594000000E+02  0.51100000000E-03 0. -1.
    9900012    2    1    2    0    0 -0.28493684192E+02  0.31526647509E+02  0.88206397079E+01  0.47787271587E+02  0.20000002472E+02 0.  0.
         12    1    1    2    0    0  0.28493684192E+02 -0.31526647509E+02 -0.88206397079E+01  0.43400728413E+02  0.00000000000E+00 0. -1.
         11    1    3    3    0    0 -0.16381732411E+02  0.56362453284E+01  0.53698912434E+01  0.18137368894E+02  0.51100000000E-03 0. -1.
        -11    1    3    3    0    0 -0.71236748407E+01  0.14453458838E+02  0.54561881039E+01  0.17012325076E+02  0.51100000000E-03 0.  1.
        -12    1    3    3    0    0 -0.49882769405E+01  0.11436943343E+02 -0.20054396394E+01  0.12637577616E+02  0.00000000000E+00 0.  1.
</event>
<event>
 7    1  0.2599124E-010  0.4778727E+02  0.7816164E-02  0.1312668E+00
        -11   -1    0    0    0    0  0.00000000000E+00  0.00000000000E+00  0.45593999997E+02  0.45594000000E+02  0.51100000000E-03 0.  1.
         11   -1    0    0    0    0 -0.00000000000E+00 -0.00000000000E+00 -0.45593999997E+02  0.45594000000E+02  0.51100000000E-03 0. -1.
    9900012    2    1    2    0    0 -0.22937567122E+02  0.35893439050E+02 -0.83157873971E+01  0.47787271062E+02  0.20000000082E+02 0.  0.
         12    1    1    2    0    0  0.22937567122E+02 -0.35893439050E+02  0.83157873971E+01  0.43400728938E+02  0.00000000000E+00 0. -1.
         11    1    3    3    0    0 -0.29008126736E+01  0.50843144820E+01 -0.41961988097E+01  0.72022949559E+01  0.51100000000E-03 0. -1.
        -11    1    3    3    0    0 -0.13009512802E+02  0.61249614430E+01  0.10015320631E+01  0.14414077936E+02  0.51100000000E-03 0.  1.
        -12    1    3    3    0    0 -0.70272416462E+01  0.24684163125E+02 -0.51211206505E+01  0.26170898170E+02  0.00000000000E+00 0.  1.
</event>
<event>
 7    1  0.2599124E-010  0.4778727E+02  0.7816164E-02  0.1312668E+00
        -11   -1    0    0    0    0  0.00000000000E+00  0.00000000000E+00  0.45593999997E+02  0.45594000000E+02  0.51100000000E-03 0.  1.
         11   -1    0    0    0    0 -0.00000000000E+00 -0.00000000000E+00 -0.45593999997E+02  0.45594000000E+02  0.51100000000E-03 0. -1.
    9900012    2    1    2    0    0 -0.83895804090E+01 -0.29783069369E+02  0.30433645718E+02  0.47787273368E+02  0.20000010596E+02 0.  0.
         12    1    1    2    0    0  0.83895804090E+01  0.29783069369E+02 -0.30433645718E+02  0.43400726632E+02  0.00000000000E+00 0. -1.
         11    1    3    3    0    0 -0.10040230650E+01 -0.11274826975E+02  0.78105358192E+01  0.13752609050E+02  0.51100000000E-03 0. -1.
        -11    1    3    3    0    0  0.40016158230E+01 -0.83392432346E+01  0.13116573922E+02  0.16049935160E+02  0.51100000000E-03 0.  1.
         12    1    3    3    0    0 -0.11387173167E+02 -0.10168999158E+02  0.95065359772E+01  0.17984729158E+02  0.00000000000E+00 0. -1.
</event>
<event>
 7    1  0.2599124E-010  0.4778726E+02  0.7816164E-02  0.1312668E+00
        -11   -1    0    0    0    0  0.00000000000E+00  0.00000000000E+00  0.45593999997E+02  0.45594000000E+02  0.51100000000E-03 0.  1.
         11   -1    0    0    0    0 -0.00000000000E+00 -0.00000000000E+00 -0.45593999997E+02  0.45594000000E+02  0.51100000000E-03 0. -1.
    9900012    2    1    2    0    0  0.11159717406E+02 -0.34315713795E+02  0.24114652090E+02  0.47787263240E+02  0.19999964418E+02 0.  0.
         12    1    1    2    0    0 -0.11159717406E+02  0.34315713795E+02 -0.24114652090E+02  0.43400736760E+02  0.00000000000E+00 0. -1.
         11    1    3    3    0    0 -0.57472346196E+00 -0.36388510032E+01 -0.16462053426E+01  0.40350385342E+01  0.51100000000E-03 0. -1.
        -11    1    3    3    0    0  0.11039104068E+00 -0.42024235666E+01 -0.10367392282E+01  0.43298243040E+01  0.51100000000E-03 0.  1.
        -12    1    3    3    0    0  0.11624049828E+02 -0.26474439225E+02  0.26797596661E+02  0.39422400402E+02  0.00000000000E+00 0.  1.
</event>
<event>
 7    1  0.2599124E-010  0.4778727E+02  0.7816164E-02  0.1312668E+00
        -11   -1    0    0    0    0  0.00000000000E+00  0.00000000000E+00  0.45593999997E+02  0.45594000000E+02  0.51100000000E-03 0.  1.
         11   -1    0    0    0    0 -0.00000000000E+00 -0.00000000000E+00 -0.45593999997E+02  0.45594000000E+02  0.51100000000E-03 0. -1.
    9900012    2    1    2    0    0  0.24356401643E+02  0.94229597438E+01  0.34664057131E+02  0.47787270420E+02  0.19999997152E+02 0.  0.
         12    1    1    2    0    0 -0.24356401643E+02 -0.94229597438E+01 -0.34664057131E+02  0.43400729580E+02  0.00000000000E+00 0. -1.
         11    1    3    3    0    0  0.57272069609E+00 -0.11513367246E+01 -0.11507850885E+01  0.17256569271E+01  0.51100000000E-03 0. -1.
        -11    1    3    3    0    0  0.54960748055E+00  0.49420500881E+01  0.75736268693E+01  0.90601187449E+01  0.51100000000E-03 0.  1.
         12    1    3    3    0    0  0.23234073466E+02  0.56322463804E+01  0.28241215350E+02  0.37001494748E+02  0.00000000000E+00 0. -1.
</event>
<event>
 7    1  0.2599124E-010  0.4778727E+02  0.7816164E-02  0.1312668E+00
        -11   -1    0    0    0    0  0.00000000000E+00  0.00000000000E+00  0.45593999997E+02  0.45594000000E+02  0.51100000000E-03 0.  1.
         11   -1    0    0    0    0 -0.00000000000E+00 -0.00000000000E+00 -0.45593999997E+02  0.45594000000E+02  0.51100000000E-03 0. -1.
    9900012    2    1    2    0    0 -0.15347591036E+02 -0.38017146589E+02  0.14239775477E+02  0.47787271999E+02  0.20000004352E+02 0.  0.
         12    1    1    2    0    0  0.15347591036E+02  0.38017146589E+02 -0.14239775477E+02  0.43400728001E+02  0.00000000000E+00 0. -1.
         11    1    3    3    0    0  0.16620540100E+01 -0.60276386656E+01 -0.10640208102E+00  0.62534928703E+01  0.51100000000E-03 0. -1.
        -11    1    3    3    0    0 -0.65660366007E+01 -0.25797829365E+02  0.11850286178E+02  0.29138807789E+02  0.51100000000E-03 0.  1.
         12    1    3    3    0    0 -0.10443608446E+02 -0.61916785582E+01  0.24958913798E+01  0.12394971340E+02  0.00000000000E+00 0. -1.
</event>
<event>
 7    1  0.2599124E-010  0.4778727E+02  0.7816164E-02  0.1312668E+00
        -11   -1    0    0    0    0  0.00000000000E+00  0.00000000000E+00  0.45593999997E+02  0.45594000000E+02  0.51100000000E-03 0.  1.
         11   -1    0    0    0    0 -0.00000000000E+00 -0.00000000000E+00 -0.45593999997E+02  0.45594000000E+02  0.51100000000E-03 0. -1.
    9900012    2    1    2    0    0 -0.17035894596E+02  0.37586740964E+02  0.13440173979E+02  0.47787273306E+02  0.20000010312E+02 0.  0.
         12    1    1    2    0    0  0.17035894596E+02 -0.37586740964E+02 -0.13440173979E+02  0.43400726694E+02  0.00000000000E+00 0. -1.
         11    1    3    3    0    0 -0.52997067885E+01  0.35066853313E+01  0.40257228199E+00  0.63675583045E+01  0.51100000000E-03 0. -1.
        -11    1    3    3    0    0 -0.11821451475E+02  0.26783156674E+02  0.16208231099E+02  0.33463277664E+02  0.51100000000E-03 0.  1.
        -12    1    3    3    0    0  0.85263667484E-01  0.72968989584E+01 -0.31706294020E+01  0.79564373376E+01  0.00000000000E+00 0.  1.
</event>
<event>
 7    1  0.2599124E-010  0.4778728E+02  0.7816164E-02  0.1312668E+00
        -11   -1    0    0    0    0  0.00000000000E+00  0.00000000000E+00  0.45593999997E+02  0.45594000000E+02  0.51100000000E-03 0. -1.
         11   -1    0    0    0    0 -0.00000000000E+00 -0.00000000000E+00 -0.45593999997E+02  0.45594000000E+02  0.51100000000E-03 0.  1.
    9900012    2    1    2    0    0 -0.35901438665E+02 -0.24142228454E+02  0.34441104482E+01  0.47787281231E+02  0.20000046444E+02 0.  0.
         12    1    1    2    0    0  0.35901438665E+02  0.24142228454E+02 -0.34441104482E+01  0.43400718769E+02  0.00000000000E+00 0. -1.
         11    1    3    3    0    0 -0.14613578681E+02 -0.59537377095E+01  0.19511397429E+01  0.15900019532E+02  0.51100000000E-03 0. -1.
        -11    1    3    3    0    0 -0.78966613847E+01 -0.23430442672E+01  0.65615194895E+01  0.10530938027E+02  0.51100000000E-03 0.  1.
        -12    1    3    3    0    0 -0.13391198600E+02 -0.15845446477E+02 -0.50685487842E+01  0.21356323671E+02  0.00000000000E+00 0.  1.
</event>
<event>
 7    1  0.2599124E-010  0.4778725E+02  0.7816164E-02  0.1312668E+00
        -11   -1    0    0    0    0  0.00000000000E+00  0.00000000000E+00  0.45593999997E+02  0.45594000000E+02  0.51100000000E-03 0.  1.
         11   -1    0    0    0    0 -0.00000000000E+00 -0.00000000000E+00 -0.45593999997E+02  0.45594000000E+02  0.51100000000E-03 0. -1.
    9900012    2    1    2    0    0 -0.20407441916E+02 -0.11137724579E+02  0.36648498095E+02  0.47787251078E+02  0.19999908967E+02 0.  0.
         12    1    1    2    0    0  0.20407441916E+02  0.11137724579E+02 -0.36648498095E+02  0.43400748922E+02  0.00000000000E+00 0. -1.
         11    1    3    3    0    0 -0.20490492346E+01 -0.18233551259E+01  0.36854272846E+01  0.45940832831E+01  0.51100000000E-03 0. -1.
        -11    1    3    3    0    0 -0.10114054141E+02 -0.12104721925E+02  0.30182839501E+02  0.34056162212E+02  0.51100000000E-03 0.  1.
         12    1    3    3    0    0 -0.82443385403E+01  0.27903524722E+01  0.27802313095E+01  0.91370055828E+01  0.00000000000E+00 0. -1.
</event>
<event>
 7    1  0.2599124E-010  0.4778727E+02  0.7816164E-02  0.1312668E+00
        -11   -1    0    0    0    0  0.00000000000E+00  0.00000000000E+00  0.45593999997E+02  0.45594000000E+02  0.51100000000E-03 0. -1.
         11   -1    0    0    0    0 -0.00000000000E+00 -0.00000000000E+00 -0.45593999997E+02  0.45594000000E+02  0.51100000000E-03 0.  1.
    9900012    2    1    2    0    0 -0.43393390149E+02 -0.42540162601E+00  0.67525713598E+00  0.47787271349E+02  0.20000001390E+02 0.  0.
         12    1    1    2    0    0  0.43393390149E+02  0.42540162601E+00 -0.67525713598E+00  0.43400728651E+02  0.00000000000E+00 0. -1.
         11    1    3    3    0    0 -0.58742801974E+00  0.39434638314E+00  0.13447804386E+01  0.15195444835E+01  0.51100000000E-03 0. -1.
        -11    1    3    3    0    0 -0.44018874438E+02  0.17964083111E+00  0.92489158731E+00  0.44028956408E+02  0.51100000000E-03 0.  1.
        -12    1    3    3    0    0  0.12129123087E+01 -0.99938884026E+00 -0.15944148899E+01  0.22387704581E+01  0.00000000000E+00 0.  1.
</event>
<event>
 7    1  0.2599124E-010  0.4778727E+02  0.7816164E-02  0.1312668E+00
        -11   -1    0    0    0    0  0.00000000000E+00  0.00000000000E+00  0.45593999997E+02  0.45594000000E+02  0.51100000000E-03 0. -1.
         11   -1    0    0    0    0 -0.00000000000E+00 -0.00000000000E+00 -0.45593999997E+02  0.45594000000E+02  0.51100000000E-03 0.  1.
    9900012    2    1    2    0    0 -0.15563006499E+02 -0.37213806144E+02 -0.16017141568E+02  0.47787270017E+02  0.19999995316E+02 0.  0.
         12    1    1    2    0    0  0.15563006499E+02  0.37213806144E+02  0.16017141568E+02  0.43400729983E+02  0.00000000000E+00 0. -1.
         11    1    3    3    0    0 -0.39546423809E+01  0.99836566780E+00 -0.52776879829E+00  0.41127205756E+01  0.51100000000E-03 0. -1.
        -11    1    3    3    0    0 -0.20653021884E+01 -0.20476318530E+01 -0.31546023394E+01  0.42906625963E+01  0.51100000000E-03 0.  1.
        -12    1    3    3    0    0 -0.95430619296E+01 -0.36164539959E+02 -0.12334770430E+02  0.39383886845E+02  0.00000000000E+00 0.  1.
</event>
<event>
 7    1  0.2599124E-010  0.4778727E+02  0.7816164E-02  0.1312668E+00
        -11   -1    0    0    0    0  0.00000000000E+00  0.00000000000E+00  0.45593999997E+02  0.45594000000E+02  0.51100000000E-03 0.  1.
         11   -1    0    0    0    0 -0.00000000000E+00 -0.00000000000E+00 -0.45593999997E+02  0.45594000000E+02  0.51100000000E-03 0. -1.
    9900012    2    1    2    0    0 -0.35902238075E+02 -0.12139951034E+02  0.21148863877E+02  0.47787267826E+02  0.19999985328E+02 0.  0.
         12    1    1    2    0    0  0.35902238075E+02  0.12139951034E+02 -0.21148863877E+02  0.43400732174E+02  0.00000000000E+00 0. -1.
         11    1    3    3    0    0 -0.64997491531E+01  0.18228811483E+00  0.93072796747E+01  0.11353652417E+02  0.51100000000E-03 0. -1.
        -11    1    3    3    0    0 -0.10271077136E+02  0.20624948564E+01  0.44527334719E+01  0.11383134287E+02  0.51100000000E-03 0.  1.
        -12    1    3    3    0    0 -0.19131411786E+02 -0.14384734005E+02  0.73888507306E+01  0.25050481122E+02  0.00000000000E+00 0.  1.
</event>
<event>
 7    1  0.2599124E-010  0.4778728E+02  0.7816164E-02  0.1312668E+00
        -11   -1    0    0    0    0  0.00000000000E+00  0.00000000000E+00  0.45593999997E+02  0.45594000000E+02  0.51100000000E-03 0.  1.
         11   -1    0    0    0    0 -0.00000000000E+00 -0.00000000000E+00 -0.45593999997E+02  0.45594000000E+02  0.51100000000E-03 0. -1.
    9900012    2    1    2    0    0 -0.22452274455E+02  0.26509264875E+02  0.26014930655E+02  0.47787281464E+02  0.20000047507E+02 0.  0.
         12    1    1    2    0    0  0.22452274455E+02 -0.26509264875E+02 -0.26014930655E+02  0.43400718536E+02  0.00000000000E+00 0. -1.
         11    1    3    3    0    0 -0.25022532829E+01  0.66617818094E+01 -0.14770718193E+01  0.72678985813E+01  0.51100000000E-03 0. -1.
        -11    1    3    3    0    0 -0.12186247103E+01 -0.10643009928E+01  0.22112523506E+01  0.27399671543E+01  0.51100000000E-03 0.  1.
        -12    1    3    3    0    0 -0.18731396462E+02  0.20911784059E+02  0.25280750124E+02  0.37779415728E+02  0.00000000000E+00 0.  1.
</event>
<event>
 7    1  0.2599124E-010  0.4778727E+02  0.7816164E-02  0.1312668E+00
        -11   -1    0    0    0    0  0.00000000000E+00  0.00000000000E+00  0.45593999997E+02  0.45594000000E+02  0.51100000000E-03 0.  1.
         11   -1    0    0    0    0 -0.00000000000E+00 -0.00000000000E+00 -0.45593999997E+02  0.45594000000E+02  0.51100000000E-03 0. -1.
    9900012    2    1    2    0    0  0.77121647348E+01  0.61415573805E+01  0.42266143547E+02  0.47787273021E+02  0.20000009011E+02 0.  0.
         12    1    1    2    0    0 -0.77121647348E+01 -0.61415573805E+01 -0.42266143547E+02  0.43400726979E+02  0.00000000000E+00 0. -1.
         11    1    3    3    0    0 -0.27872003306E+01  0.41040207430E+01  0.12060916539E+02  0.13041364191E+02  0.51100000000E-03 0. -1.
        -11    1    3    3    0    0  0.48551378460E+01 -0.57130293758E+01  0.15016626504E+02  0.16784222948E+02  0.51100000000E-03 0.  1.
         12    1    3    3    0    0  0.56442272194E+01  0.77505660133E+01  0.15188600504E+02  0.17961685882E+02  0.00000000000E+00 0. -1.
</event>
<event>
 7    1  0.2599124E-010  0.4778727E+02  0.7816164E-02  0.1312668E+00
        -11   -1    0    0    0    0  0.00000000000E+00  0.00000000000E+00  0.45593999997E+02  0.45594000000E+02  0.51100000000E-03 0.  1.
         11   -1    0    0    0    0 -0.00000000000E+00 -0.00000000000E+00 -0.45593999997E+02  0.45594000000E+02  0.51100000000E-03 0. -1.
    9900012    2    1    2    0    0  0.28862813230E+02 -0.17189456131E+02  0.27478795678E+02  0.47787267270E+02  0.19999982790E+02 0.  0.
         12    1    1    2    0    0 -0.28862813230E+02  0.17189456131E+02 -0.27478795678E+02  0.43400732730E+02  0.00000000000E+00 0. -1.
         11    1    3    3    0    0  0.37425252674E+01 -0.59934708013E+01  0.31591235687E+01  0.77400419641E+01  0.51100000000E-03 0.  1.
        -11    1    3    3    0    0  0.13881603698E+02 -0.13040946647E+02  0.20624304448E+02  0.28073602279E+02  0.51100000000E-03 0. -1.
         12    1    3    3    0    0  0.11238684264E+02  0.18449613164E+01  0.36953676606E+01  0.11973623027E+02  0.00000000000E+00 0. -1.
</event>
<event>
 7    1  0.2599124E-010  0.4778727E+02  0.7816164E-02  0.1312668E+00
        -11   -1    0    0    0    0  0.00000000000E+00  0.00000000000E+00  0.45593999997E+02  0.45594000000E+02  0.51100000000E-03 0.  1.
         11   -1    0    0    0    0 -0.00000000000E+00 -0.00000000000E+00 -0.45593999997E+02  0.45594000000E+02  0.51100000000E-03 0. -1.
    9900012    2    1    2    0    0  0.42182142059E+02  0.10203103983E+02  0.43201891598E+00  0.47787273279E+02  0.20000010190E+02 0.  0.
         12    1    1    2    0    0 -0.42182142059E+02 -0.10203103983E+02 -0.43201891598E+00  0.43400726721E+02  0.00000000000E+00 0. -1.
         11    1    3    3    0    0  0.43608081761E+01  0.21448566305E+00  0.40042260367E+01  0.59242280900E+01  0.51100000000E-03 0. -1.
        -11    1    3    3    0    0  0.10948552657E+02 -0.33945446198E+01  0.95615448056E+00  0.11502520164E+02  0.51100000000E-03 0.  1.
        -12    1    3    3    0    0  0.26872781225E+02  0.13383162939E+02 -0.45283616013E+01  0.30360525026E+02  0.00000000000E+00 0.  1.
</event>
<event>
 7    1  0.2599124E-010  0.4778727E+02  0.7816164E-02  0.1312668E+00
        -11   -1    0    0    0    0  0.00000000000E+00  0.00000000000E+00  0.45593999997E+02  0.45594000000E+02  0.51100000000E-03 0. -1.
         11   -1    0    0    0    0 -0.00000000000E+00 -0.00000000000E+00 -0.45593999997E+02  0.45594000000E+02  0.51100000000E-03 0.  1.
    9900012    2    1    2    0    0  0.13074138183E+02 -0.40123619961E+02  0.10138297110E+02  0.47787273781E+02  0.20000012479E+02 0.  0.
         12    1    1    2    0    0 -0.13074138183E+02  0.40123619961E+02 -0.10138297110E+02  0.43400726219E+02  0.00000000000E+00 0. -1.
         11    1    3    3    0    0 -0.27117120737E+00 -0.59212791467E+00 -0.20751516506E+00  0.68352914780E+00  0.51100000000E-03 0. -1.
        -11    1    3    3    0    0  0.49027588534E+01 -0.16071367519E+02  0.14042886920E+02  0.21898140825E+02  0.51100000000E-03 0.  1.
        -12    1    3    3    0    0  0.84425505370E+01 -0.23460124528E+02 -0.36970746447E+01  0.25205603808E+02  0.00000000000E+00 0.  1.
</event>
<event>
 7    1  0.2599124E-010  0.4778726E+02  0.7816164E-02  0.1312668E+00
        -11   -1    0    0    0    0  0.00000000000E+00  0.00000000000E+00  0.45593999997E+02  0.45594000000E+02  0.51100000000E-03 0.  1.
         11   -1    0    0    0    0 -0.00000000000E+00 -0.00000000000E+00 -0.45593999997E+02  0.45594000000E+02  0.51100000000E-03 0. -1.
    9900012    2    1    2    0    0  0.11714002542E+02 -0.71229212301E+01  0.41178518620E+02  0.47787259706E+02  0.19999948301E+02 0.  0.
         12    1    1    2    0    0 -0.11714002542E+02  0.71229212301E+01 -0.41178518620E+02  0.43400740294E+02  0.00000000000E+00 0. -1.
         11    1    3    3    0    0 -0.23712649168E+00  0.22867154647E+01  0.94368327986E+00  0.24851227300E+01  0.51100000000E-03 0. -1.
        -11    1    3    3    0    0  0.41823180987E+00  0.33703666678E+01  0.45063357363E+01  0.56428141341E+01  0.51100000000E-03 0.  1.
        -12    1    3    3    0    0  0.11532897224E+02 -0.12780003363E+02  0.35728499603E+02  0.39659322841E+02  0.00000000000E+00 0.  1.
</event>
<event>
 7    1  0.2599124E-010  0.4778727E+02  0.7816164E-02  0.1312668E+00
        -11   -1    0    0    0    0  0.00000000000E+00  0.00000000000E+00  0.45593999997E+02  0.45594000000E+02  0.51100000000E-03 0.  1.
         11   -1    0    0    0    0 -0.00000000000E+00 -0.00000000000E+00 -0.45593999997E+02  0.45594000000E+02  0.51100000000E-03 0. -1.
    9900012    2    1    2    0    0  0.40362221268E+02 -0.13600270556E+02  0.83394925420E+01  0.47787269583E+02  0.19999993338E+02 0.  0.
         12    1    1    2    0    0 -0.40362221268E+02  0.13600270556E+02 -0.83394925420E+01  0.43400730417E+02  0.00000000000E+00 0. -1.
         11    1    3    3    0    0  0.24312146865E+02 -0.16292825107E+01  0.11674501832E+02  0.27019049576E+02  0.51100000000E-03 0.  1.
        -11    1    3    3    0    0  0.11060396601E+01 -0.25422133749E+01  0.69724047565E-01  0.27732714035E+01  0.51100000000E-03 0. -1.
        -12    1    3    3    0    0  0.14944034742E+02 -0.94287746706E+01 -0.34047333371E+01  0.17994948604E+02  0.00000000000E+00 0.  1.
</event>
<event>
 7    1  0.2599124E-010  0.4778727E+02  0.7816164E-02  0.1312668E+00
        -11   -1    0    0    0    0  0.00000000000E+00  0.00000000000E+00  0.45593999997E+02  0.45594000000E+02  0.51100000000E-03 0.  1.
         11   -1    0    0    0    0 -0.00000000000E+00 -0.00000000000E+00 -0.45593999997E+02  0.45594000000E+02  0.51100000000E-03 0. -1.
    9900012    2    1    2    0    0  0.19567496993E+02  0.15195599179E+02  0.35634678353E+02  0.47787268736E+02  0.19999989473E+02 0.  0.
         12    1    1    2    0    0 -0.19567496993E+02 -0.15195599179E+02 -0.35634678353E+02  0.43400731264E+02  0.00000000000E+00 0. -1.
         11    1    3    3    0    0  0.78031701045E+01  0.12159102194E+01  0.39543419573E+01  0.88320281882E+01  0.51100000000E-03 0. -1.
        -11    1    3    3    0    0  0.96827482428E+01  0.25428630009E+01  0.89663936333E+01  0.13439418917E+02  0.51100000000E-03 0.  1.
        -12    1    3    3    0    0  0.20815786454E+01  0.11436825958E+02  0.22713942763E+02  0.25515821631E+02  0.00000000000E+00 0.  1.
</event>
<event>
 7    1  0.2599124E-010  0.4778727E+02  0.7816164E-02  0.1312668E+00
        -11   -1    0    0    0    0  0.00000000000E+00  0.00000000000E+00  0.45593999997E+02  0.45594000000E+02  0.51100000000E-03 0.  1.
         11   -1    0    0    0    0 -0.00000000000E+00 -0.00000000000E+00 -0.45593999997E+02  0.45594000000E+02  0.51100000000E-03 0. -1.
    9900012    2    1    2    0    0  0.25812928672E+02 -0.23932182645E+01  0.34807883076E+02  0.47787268388E+02  0.19999987888E+02 0.  0.
         12    1    1    2    0    0 -0.25812928672E+02  0.23932182645E+01 -0.34807883076E+02  0.43400731612E+02  0.00000000000E+00 0. -1.
         11    1    3    3    0    0 -0.61733334136E-01  0.37909850508E+01  0.42317625548E+01  0.56818300962E+01  0.51100000000E-03 0. -1.
        -11    1    3    3    0    0  0.52906151927E+01  0.14611706922E+01  0.12543841978E+02  0.13692099939E+02  0.51100000000E-03 0.  1.
         12    1    3    3    0    0  0.20584046813E+02 -0.76453740075E+01  0.18032278543E+02  0.28413338353E+02  0.00000000000E+00 0. -1.
</event>
<event>
 7    1  0.2599124E-010  0.4778727E+02  0.7816164E-02  0.1312668E+00
        -11   -1    0    0    0    0  0.00000000000E+00  0.00000000000E+00  0.45593999997E+02  0.45594000000E+02  0.51100000000E-03 0.  1.
         11   -1    0    0    0    0 -0.00000000000E+00 -0.00000000000E+00 -0.45593999997E+02  0.45594000000E+02  0.51100000000E-03 0. -1.
    9900012    2    1    2    0    0  0.36369355486E+01 -0.23440216501E+02  0.36344910337E+02  0.47787267780E+02  0.19999985115E+02 0.  0.
         12    1    1    2    0    0 -0.36369355486E+01  0.23440216501E+02 -0.36344910337E+02  0.43400732220E+02  0.00000000000E+00 0. -1.
         11    1    3    3    0    0  0.17589635328E+01 -0.89583279477E+01  0.72133823474E+01  0.11635225717E+02  0.51100000000E-03 0. -1.
        -11    1    3    3    0    0 -0.29845315326E+01  0.67912039830E+00  0.12534033085E+00  0.30633875766E+01  0.51100000000E-03 0.  1.
        -12    1    3    3    0    0  0.48625035484E+01 -0.15161008952E+02  0.29006187659E+02  0.33088654486E+02  0.00000000000E+00 0.  1.
</event>
<event>
 7    1  0.2599124E-010  0.4778727E+02  0.7816164E-02  0.1312668E+00
        -11   -1    0    0    0    0  0.00000000000E+00  0.00000000000E+00  0.45593999997E+02  0.45594000000E+02  0.51100000000E-03 0.  1.
         11   -1    0    0    0    0 -0.00000000000E+00 -0.00000000000E+00 -0.45593999997E+02  0.45594000000E+02  0.51100000000E-03 0. -1.
    9900012    2    1    2    0    0 -0.23343185621E+02  0.61101419969E+01  0.36074716557E+02  0.47787270458E+02  0.19999997324E+02 0.  0.
         12    1    1    2    0    0  0.23343185621E+02 -0.61101419969E+01 -0.36074716557E+02  0.43400729542E+02  0.00000000000E+00 0. -1.
         11    1    3    3    0    0 -0.78654043885E+00  0.52774733267E+01  0.17818728252E+01  0.56254281262E+01  0.51100000000E-03 0. -1.
        -11    1    3    3    0    0 -0.97197390813E+01  0.17052360837E+01  0.73505818531E+01  0.12304966954E+02  0.51100000000E-03 0.  1.
        -12    1    3    3    0    0 -0.12836906101E+02 -0.87256741364E+00  0.26942261879E+02  0.29856875377E+02  0.00000000000E+00 0.  1.
</event>
<event>
 7    1  0.2599124E-010  0.4778728E+02  0.7816164E-02  0.1312668E+00
        -11   -1    0    0    0    0  0.00000000000E+00  0.00000000000E+00  0.45593999997E+02  0.45594000000E+02  0.51100000000E-03 0.  1.
         11   -1    0    0    0    0 -0.00000000000E+00 -0.00000000000E+00 -0.45593999997E+02  0.45594000000E+02  0.51100000000E-03 0. -1.
    9900012    2    1    2    0    0  0.25468870357E+02 -0.84467211955E+01  0.34111757882E+02  0.47787280167E+02  0.20000041593E+02 0.  0.
         12    1    1    2    0    0 -0.25468870357E+02  0.84467211955E+01 -0.34111757882E+02  0.43400719833E+02  0.00000000000E+00 0. -1.
         11    1    3    3    0    0  0.99166404535E+01  0.48406747253E+01  0.12202283697E+02  0.16451979132E+02  0.51100000000E-03 0. -1.
        -11    1    3    3    0    0  0.15221689281E+02 -0.87824475483E+01  0.15133186516E+02  0.23191475673E+02  0.51100000000E-03 0.  1.
        -12    1    3    3    0    0  0.33054062195E+00 -0.45049483726E+01  0.67762876695E+01  0.81438253617E+01  0.00000000000E+00 0.  1.
</event>
<event>
 7    1  0.2599124E-010  0.4778729E+02  0.7816164E-02  0.1312668E+00
        -11   -1    0    0    0    0  0.00000000000E+00  0.00000000000E+00  0.45593999997E+02  0.45594000000E+02  0.51100000000E-03 0.  1.
         11   -1    0    0    0    0 -0.00000000000E+00 -0.00000000000E+00 -0.45593999997E+02  0.45594000000E+02  0.51100000000E-03 0. -1.
    9900012    2    1    2    0    0  0.39748797918E+02  0.10673391800E+02  0.13774385461E+02  0.47787286604E+02  0.20000070943E+02 0.  0.
         12    1    1    2    0    0 -0.39748797918E+02 -0.10673391800E+02 -0.13774385461E+02  0.43400713396E+02  0.00000000000E+00 0. -1.
         11    1    3    3    0    0  0.51234044772E+01  0.26410731131E+01 -0.34305934442E+00  0.57742731665E+01  0.51100000000E-03 0.  1.
        -11    1    3    3    0    0  0.14910735830E+02 -0.51955984810E+01  0.65534010337E+01  0.17095945482E+02  0.51100000000E-03 0. -1.
         12    1    3    3    0    0  0.19714657611E+02  0.13227917168E+02  0.75640437716E+01  0.24917067955E+02  0.00000000000E+00 0. -1.
</event>
<event>
 7    1  0.2599124E-010  0.4778728E+02  0.7816164E-02  0.1312668E+00
        -11   -1    0    0    0    0  0.00000000000E+00  0.00000000000E+00  0.45593999997E+02  0.45594000000E+02  0.51100000000E-03 0.  1.
         11   -1    0    0    0    0 -0.00000000000E+00 -0.00000000000E+00 -0.45593999997E+02  0.45594000000E+02  0.51100000000E-03 0. -1.
    9900012    2    1    2    0    0 -0.17204879844E+02  0.17971722900E+02  0.35561667675E+02  0.47787275095E+02  0.20000018466E+02 0.  0.
         12    1    1    2    0    0  0.17204879844E+02 -0.17971722900E+02 -0.35561667675E+02  0.43400724905E+02  0.00000000000E+00 0. -1.
         11    1    3    3    0    0 -0.23948769000E+01  0.79267520376E+01  0.20846198117E+01  0.85389972041E+01  0.51100000000E-03 0. -1.
        -11    1    3    3    0    0 -0.88359726342E+01  0.88045038191E+01  0.13591975457E+02  0.18448184111E+02  0.51100000000E-03 0.  1.
        -12    1    3    3    0    0 -0.59740303103E+01  0.12404670433E+01  0.19885072407E+02  0.20800093780E+02  0.00000000000E+00 0.  1.
</event>
<event>
 7    1  0.2599124E-010  0.4778727E+02  0.7816164E-02  0.1312668E+00
        -11   -1    0    0    0    0  0.00000000000E+00  0.00000000000E+00  0.45593999997E+02  0.45594000000E+02  0.51100000000E-03 0.  1.
         11   -1    0    0    0    0 -0.00000000000E+00 -0.00000000000E+00 -0.45593999997E+02  0.45594000000E+02  0.51100000000E-03 0. -1.
    9900012    2    1    2    0    0 -0.20354220324E+02 -0.23163881145E+02  0.30541183029E+02  0.47787268031E+02  0.19999986259E+02 0.  0.
         12    1    1    2    0    0  0.20354220324E+02  0.23163881145E+02 -0.30541183029E+02  0.43400731969E+02  0.00000000000E+00 0. -1.
         11    1    3    3    0    0 -0.66081161798E+01 -0.86750308004E+01  0.50095516885E+01  0.12000790275E+02  0.51100000000E-03 0. -1.
        -11    1    3    3    0    0 -0.86616039772E+01 -0.55213869021E+01  0.25274423319E+01  0.10578140753E+02  0.51100000000E-03 0.  1.
         12    1    3    3    0    0 -0.50845001667E+01 -0.89674634424E+01  0.23004189009E+02  0.25208337003E+02  0.00000000000E+00 0. -1.
</event>
<event>
 7    1  0.2599124E-010  0.4778726E+02  0.7816164E-02  0.1312668E+00
        -11   -1    0    0    0    0  0.00000000000E+00  0.00000000000E+00  0.45593999997E+02  0.45594000000E+02  0.51100000000E-03 0.  1.
         11   -1    0    0    0    0 -0.00000000000E+00 -0.00000000000E+00 -0.45593999997E+02  0.45594000000E+02  0.51100000000E-03 0. -1.
    9900012    2    1    2    0    0 -0.40313593190E+02  0.15254737102E+02  0.50726477371E+01  0.47787256285E+02  0.19999932705E+02 0.  0.
         12    1    1    2    0    0  0.40313593190E+02 -0.15254737102E+02 -0.50726477371E+01  0.43400743715E+02  0.00000000000E+00 0. -1.
         11    1    3    3    0    0 -0.19654085139E+01  0.34802802369E+01  0.49758446741E+01  0.63823359075E+01  0.51100000000E-03 0. -1.
        -11    1    3    3    0    0 -0.95289197550E+01  0.43889282579E+01  0.43398720374E+01  0.11353303154E+02  0.51100000000E-03 0.  1.
        -12    1    3    3    0    0 -0.28819264921E+02  0.73855286072E+01 -0.42430689744E+01  0.30051617223E+02  0.00000000000E+00 0.  1.
</event>
<event>
 7    1  0.2599124E-010  0.4778727E+02  0.7816164E-02  0.1312668E+00
        -11   -1    0    0    0    0  0.00000000000E+00  0.00000000000E+00  0.45593999997E+02  0.45594000000E+02  0.51100000000E-03 0. -1.
         11   -1    0    0    0    0 -0.00000000000E+00 -0.00000000000E+00 -0.45593999997E+02  0.45594000000E+02  0.51100000000E-03 0.  1.
    9900012    2    1    2    0    0  0.68993851868E+01  0.16122966471E+02 -0.39699768628E+02  0.47787271978E+02  0.20000004255E+02 0.  0.
         12    1    1    2    0    0 -0.68993851868E+01 -0.16122966471E+02  0.39699768628E+02  0.43400728022E+02  0.00000000000E+00 0. -1.
         11    1    3    3    0    0  0.31389322965E+01  0.99281819161E+01 -0.20040794114E+02  0.22584399950E+02  0.51100000000E-03 0. -1.
        -11    1    3    3    0    0  0.59989594249E+01  0.98150367920E+01 -0.13926054638E+02  0.18062598358E+02  0.51100000000E-03 0.  1.
         12    1    3    3    0    0 -0.22385065346E+01 -0.36202522375E+01 -0.57329198758E+01  0.71402736692E+01  0.00000000000E+00 0. -1.
</event>
<event>
 7    1  0.2599124E-010  0.4778727E+02  0.7816164E-02  0.1312668E+00
        -11   -1    0    0    0    0  0.00000000000E+00  0.00000000000E+00  0.45593999997E+02  0.45594000000E+02  0.51100000000E-03 0.  1.
         11   -1    0    0    0    0 -0.00000000000E+00 -0.00000000000E+00 -0.45593999997E+02  0.45594000000E+02  0.51100000000E-03 0. -1.
    9900012    2    1    2    0    0  0.92117529447E+01 -0.28029784268E+02  0.31829198193E+02  0.47787273555E+02  0.20000011445E+02 0.  0.
         12    1    1    2    0    0 -0.92117529447E+01  0.28029784268E+02 -0.31829198193E+02  0.43400726445E+02  0.00000000000E+00 0. -1.
         11    1    3    3    0    0  0.37381193441E+01 -0.19166493161E+02  0.12240809295E+02  0.23047026029E+02  0.51100000000E-03 0. -1.
        -11    1    3    3    0    0  0.76879283126E+01 -0.70906275451E+01  0.90619763930E+01  0.13838376246E+02  0.51100000000E-03 0.  1.
        -12    1    3    3    0    0 -0.22142947120E+01 -0.17726635613E+01  0.10526412505E+02  0.10901871280E+02  0.00000000000E+00 0.  1.
</event>
<event>
 7    1  0.2599124E-010  0.4778726E+02  0.7816164E-02  0.1312668E+00
        -11   -1    0    0    0    0  0.00000000000E+00  0.00000000000E+00  0.45593999997E+02  0.45594000000E+02  0.51100000000E-03 0.  1.
         11   -1    0    0    0    0 -0.00000000000E+00 -0.00000000000E+00 -0.45593999997E+02  0.45594000000E+02  0.51100000000E-03 0. -1.
    9900012    2    1    2    0    0  0.22491672752E+02  0.98923941888E+01  0.35775543014E+02  0.47787259408E+02  0.19999946945E+02 0.  0.
         12    1    1    2    0    0 -0.22491672752E+02 -0.98923941888E+01 -0.35775543014E+02  0.43400740592E+02  0.00000000000E+00 0. -1.
         11    1    3    3    0    0  0.79213147170E+01 -0.37060222438E-01  0.28414331269E+01  0.84156011539E+01  0.51100000000E-03 0. -1.
        -11    1    3    3    0    0  0.39047531479E+01 -0.21777502079E+01  0.12871044083E+02  0.13625471338E+02  0.51100000000E-03 0.  1.
        -12    1    3    3    0    0  0.10665604887E+02  0.12107204619E+02  0.20063065804E+02  0.25746186917E+02  0.00000000000E+00 0.  1.
</event>
<event>
 7    1  0.2599124E-010  0.4778727E+02  0.7816164E-02  0.1312668E+00
        -11   -1    0    0    0    0  0.00000000000E+00  0.00000000000E+00  0.45593999997E+02  0.45594000000E+02  0.51100000000E-03 0.  1.
         11   -1    0    0    0    0 -0.00000000000E+00 -0.00000000000E+00 -0.45593999997E+02  0.45594000000E+02  0.51100000000E-03 0. -1.
    9900012    2    1    2    0    0 -0.56718102907E+01 -0.48044826232E+01  0.42759453313E+02  0.47787270365E+02  0.19999996903E+02 0.  0.
         12    1    1    2    0    0  0.56718102907E+01  0.48044826232E+01 -0.42759453313E+02  0.43400729635E+02  0.00000000000E+00 0. -1.
         11    1    3    3    0    0 -0.36378050845E+01 -0.62804831527E+01  0.61892473890E+01  0.95385993714E+01  0.51100000000E-03 0. -1.
        -11    1    3    3    0    0 -0.71958554823E+00 -0.43951759586E+01  0.22652791924E+02  0.23086453979E+02  0.51100000000E-03 0.  1.
        -12    1    3    3    0    0 -0.13144196580E+01  0.58711764881E+01  0.13917413999E+02  0.15162217015E+02  0.00000000000E+00 0.  1.
</event>
<event>
 7    1  0.2599124E-010  0.4778727E+02  0.7816164E-02  0.1312668E+00
        -11   -1    0    0    0    0  0.00000000000E+00  0.00000000000E+00  0.45593999997E+02  0.45594000000E+02  0.51100000000E-03 0.  1.
         11   -1    0    0    0    0 -0.00000000000E+00 -0.00000000000E+00 -0.45593999997E+02  0.45594000000E+02  0.51100000000E-03 0. -1.
    9900012    2    1    2    0    0 -0.55946293864E+01 -0.33605708930E+02  0.26888290682E+02  0.47787265831E+02  0.19999976228E+02 0.  0.
         12    1    1    2    0    0  0.55946293864E+01  0.33605708930E+02 -0.26888290682E+02  0.43400734169E+02  0.00000000000E+00 0. -1.
         11    1    3    3    0    0 -0.27327805357E+01 -0.49543866632E+00  0.96996583297E+00  0.29418332561E+01  0.51100000000E-03 0. -1.
        -11    1    3    3    0    0  0.57670567635E+01 -0.18984372614E+02  0.16467408800E+02  0.25784508917E+02  0.51100000000E-03 0.  1.
        -12    1    3    3    0    0 -0.86289056142E+01 -0.14125897649E+02  0.94509160490E+01  0.19060923657E+02  0.00000000000E+00 0.  1.
</event>
<event>
 7    1  0.2599124E-010  0.4778728E+02  0.7816164E-02  0.1312668E+00
        -11   -1    0    0    0    0  0.00000000000E+00  0.00000000000E+00  0.45593999997E+02  0.45594000000E+02  0.51100000000E-03 0.  1.
         11   -1    0    0    0    0 -0.00000000000E+00 -0.00000000000E+00 -0.45593999997E+02  0.45594000000E+02  0.51100000000E-03 0. -1.
    9900012    2    1    2    0    0  0.66054165556E+01  0.36221159064E+02  0.22978662121E+02  0.47787276450E+02  0.20000024646E+02 0.  0.
         12    1    1    2    0    0 -0.66054165556E+01 -0.36221159064E+02 -0.22978662121E+02  0.43400723550E+02  0.00000000000E+00 0. -1.
         11    1    3    3    0    0  0.60454533989E+01  0.30177953603E+01  0.71123082473E+01  0.98101745398E+01  0.51100000000E-03 0. -1.
        -11    1    3    3    0    0  0.92448304848E+00  0.89159340994E+01  0.90746344298E+01  0.12755294590E+02  0.51100000000E-03 0.  1.
        -12    1    3    3    0    0 -0.36451989180E+00  0.24287429604E+02  0.67917194438E+01  0.25221807321E+02  0.00000000000E+00 0.  1.
</event>
<event>
 7    1  0.2599124E-010  0.4778727E+02  0.7816164E-02  0.1312668E+00
        -11   -1    0    0    0    0  0.00000000000E+00  0.00000000000E+00  0.45593999997E+02  0.45594000000E+02  0.51100000000E-03 0.  1.
         11   -1    0    0    0    0 -0.00000000000E+00 -0.00000000000E+00 -0.45593999997E+02  0.45594000000E+02  0.51100000000E-03 0. -1.
    9900012    2    1    2    0    0  0.38371412584E+02 -0.20217395504E+02 -0.15858350649E+01  0.47787271233E+02  0.20000000861E+02 0.  0.
         12    1    1    2    0    0 -0.38371412584E+02  0.20217395504E+02  0.15858350649E+01  0.43400728767E+02  0.00000000000E+00 0. -1.
         11    1    3    3    0    0  0.10554837617E+02 -0.15205812903E+02 -0.23589381038E+01  0.18659740952E+02  0.51100000000E-03 0. -1.
        -11    1    3    3    0    0  0.81522088324E+01 -0.41376492618E+01  0.21637058856E+01  0.93946939110E+01  0.51100000000E-03 0.  1.
         12    1    3    3    0    0  0.19664366134E+02 -0.87393333913E+00 -0.13906028467E+01  0.19732836370E+02  0.00000000000E+00 0. -1.
</event>
<event>
 7    1  0.2599124E-010  0.4778726E+02  0.7816164E-02  0.1312668E+00
        -11   -1    0    0    0    0  0.00000000000E+00  0.00000000000E+00  0.45593999997E+02  0.45594000000E+02  0.51100000000E-03 0.  1.
         11   -1    0    0    0    0 -0.00000000000E+00 -0.00000000000E+00 -0.45593999997E+02  0.45594000000E+02  0.51100000000E-03 0. -1.
    9900012    2    1    2    0    0 -0.38145099458E+02 -0.11759907771E+01  0.20668632926E+02  0.47787263209E+02  0.19999964274E+02 0.  0.
         12    1    1    2    0    0  0.38145099458E+02  0.11759907771E+01 -0.20668632926E+02  0.43400736791E+02  0.00000000000E+00 0. -1.
         11    1    3    3    0    0 -0.16770485575E+02  0.34175297991E+01  0.12237027126E+02  0.21039808210E+02  0.51100000000E-03 0.  1.
        -11    1    3    3    0    0 -0.18185129699E+02 -0.27636652932E+01  0.11723317021E+02  0.21812220205E+02  0.51100000000E-03 0. -1.
         12    1    3    3    0    0 -0.31894841838E+01 -0.18298552830E+01 -0.32917112207E+01  0.49352347944E+01  0.00000000000E+00 0. -1.
</event>
<event>
 7    1  0.2599124E-010  0.4778727E+02  0.7816164E-02  0.1312668E+00
        -11   -1    0    0    0    0  0.00000000000E+00  0.00000000000E+00  0.45593999997E+02  0.45594000000E+02  0.51100000000E-03 0.  1.
         11   -1    0    0    0    0 -0.00000000000E+00 -0.00000000000E+00 -0.45593999997E+02  0.45594000000E+02  0.51100000000E-03 0. -1.
    9900012    2    1    2    0    0 -0.10082719992E+02  0.18078347703E+02  0.38146235288E+02  0.47787272302E+02  0.20000005733E+02 0.  0.
         12    1    1    2    0    0  0.10082719992E+02 -0.18078347703E+02 -0.38146235288E+02  0.43400727698E+02  0.00000000000E+00 0. -1.
         11    1    3    3    0    0  0.18020270074E+01  0.18249006507E+01  0.47487875509E+01  0.53970869166E+01  0.51100000000E-03 0. -1.
        -11    1    3    3    0    0 -0.87153362578E+01 -0.37026171094E+00  0.77855118835E+01  0.11692235687E+02  0.51100000000E-03 0.  1.
        -12    1    3    3    0    0 -0.31694107417E+01  0.16623708763E+02  0.25611935854E+02  0.30697949698E+02  0.00000000000E+00 0.  1.
</event>
<event>
 7    1  0.2599124E-010  0.4778727E+02  0.7816164E-02  0.1312668E+00
        -11   -1    0    0    0    0  0.00000000000E+00  0.00000000000E+00  0.45593999997E+02  0.45594000000E+02  0.51100000000E-03 0.  1.
         11   -1    0    0    0    0 -0.00000000000E+00 -0.00000000000E+00 -0.45593999997E+02  0.45594000000E+02  0.51100000000E-03 0. -1.
    9900012    2    1    2    0    0  0.42759642031E+02 -0.11615591475E+01  0.73407659972E+01  0.47787273604E+02  0.20000011671E+02 0.  0.
         12    1    1    2    0    0 -0.42759642031E+02  0.11615591475E+01 -0.73407659972E+01  0.43400726396E+02  0.00000000000E+00 0. -1.
         11    1    3    3    0    0  0.44134297520E+01 -0.56638197943E+01 -0.83695608392E-01  0.71808232157E+01  0.51100000000E-03 0. -1.
        -11    1    3    3    0    0  0.10461793946E+02  0.25189014257E+01 -0.23086715253E+01  0.11005633169E+02  0.51100000000E-03 0.  1.
        -12    1    3    3    0    0  0.27884418333E+02  0.19833592211E+01  0.97331331309E+01  0.29600817220E+02  0.00000000000E+00 0.  1.
</event>
<event>
 7    1  0.2599124E-010  0.4778727E+02  0.7816164E-02  0.1312668E+00
        -11   -1    0    0    0    0  0.00000000000E+00  0.00000000000E+00  0.45593999997E+02  0.45594000000E+02  0.51100000000E-03 0. -1.
         11   -1    0    0    0    0 -0.00000000000E+00 -0.00000000000E+00 -0.45593999997E+02  0.45594000000E+02  0.51100000000E-03 0.  1.
    9900012    2    1    2    0    0 -0.80342868096E+01  0.34558131596E+02 -0.24996173999E+02  0.47787274908E+02  0.20000017616E+02 0.  0.
         12    1    1    2    0    0  0.80342868096E+01 -0.34558131596E+02  0.24996173999E+02  0.43400725092E+02  0.00000000000E+00 0. -1.
         11    1    3    3    0    0  0.95807522394E+00  0.27560121723E+00  0.46651370583E+00  0.11006813638E+01  0.51100000000E-03 0. -1.
        -11    1    3    3    0    0 -0.11101233288E+02  0.29496349526E+02 -0.14817000934E+02  0.34825501186E+02  0.51100000000E-03 0.  1.
         12    1    3    3    0    0  0.21088712544E+01  0.47861808522E+01 -0.10645686771E+02  0.11861092359E+02  0.00000000000E+00 0. -1.
</event>
<event>
 7    1  0.2599124E-010  0.4778727E+02  0.7816164E-02  0.1312668E+00
        -11   -1    0    0    0    0  0.00000000000E+00  0.00000000000E+00  0.45593999997E+02  0.45594000000E+02  0.51100000000E-03 0.  1.
         11   -1    0    0    0    0 -0.00000000000E+00 -0.00000000000E+00 -0.45593999997E+02  0.45594000000E+02  0.51100000000E-03 0. -1.
    9900012    2    1    2    0    0 -0.59769833246E+01 -0.52457886456E+01  0.42665920602E+02  0.47787269488E+02  0.19999992902E+02 0.  0.
         12    1    1    2    0    0  0.59769833246E+01  0.52457886456E+01 -0.42665920602E+02  0.43400730512E+02  0.00000000000E+00 0. -1.
         11    1    3    3    0    0 -0.47195359425E+01  0.15330644199E+01  0.34567326067E+01  0.60475868413E+01  0.51100000000E-03 0. -1.
        -11    1    3    3    0    0 -0.44062158313E+01  0.11474832775E+01  0.22758811780E+02  0.23209803311E+02  0.51100000000E-03 0.  1.
         12    1    3    3    0    0  0.31487684491E+01 -0.79263363429E+01  0.16450376215E+02  0.18529879336E+02  0.00000000000E+00 0. -1.
</event>
<event>
 7    1  0.2599124E-010  0.4778728E+02  0.7816164E-02  0.1312668E+00
        -11   -1    0    0    0    0  0.00000000000E+00  0.00000000000E+00  0.45593999997E+02  0.45594000000E+02  0.51100000000E-03 0.  1.
         11   -1    0    0    0    0 -0.00000000000E+00 -0.00000000000E+00 -0.45593999997E+02  0.45594000000E+02  0.51100000000E-03 0. -1.
    9900012    2    1    2    0    0  0.33587538461E+01 -0.23193048131E+02  0.36529764828E+02  0.47787280796E+02  0.20000044461E+02 0.  0.
         12    1    1    2    0    0 -0.33587538461E+01  0.23193048131E+02 -0.36529764828E+02  0.43400719204E+02  0.00000000000E+00 0. -1.
         11    1    3    3    0    0 -0.20509474122E+01 -0.64281267579E+01  0.11532099309E+02  0.13361007209E+02  0.51100000000E-03 0. -1.
        -11    1    3    3    0    0 -0.76734979528E+00 -0.19510878663E+01  0.15777836957E+02  0.15916523140E+02  0.51100000000E-03 0.  1.
         12    1    3    3    0    0  0.61770510537E+01 -0.14813833507E+02  0.92198285632E+01  0.18509750448E+02  0.00000000000E+00 0. -1.
</event>
<event>
 7    1  0.2599124E-010  0.4778724E+02  0.7816164E-02  0.1312668E+00
        -11   -1    0    0    0    0  0.00000000000E+00  0.00000000000E+00  0.45593999997E+02  0.45594000000E+02  0.51100000000E-03 0.  1.
         11   -1    0    0    0    0 -0.00000000000E+00 -0.00000000000E+00 -0.45593999997E+02  0.45594000000E+02  0.51100000000E-03 0. -1.
    9900012    2    1    2    0    0 -0.30612052121E+02 -0.28038097016E+02  0.12664649834E+02  0.47787239929E+02  0.19999858131E+02 0.  0.
         12    1    1    2    0    0  0.30612052121E+02  0.28038097016E+02 -0.12664649834E+02  0.43400760071E+02  0.00000000000E+00 0. -1.
         11    1    3    3    0    0  0.13725135511E+01 -0.32530456024E+01  0.14143421136E+01  0.38034803817E+01  0.51100000000E-03 0. -1.
        -11    1    3    3    0    0 -0.77672697474E+01 -0.13923733612E+02  0.33538360280E+01  0.16292607323E+02  0.51100000000E-03 0.  1.
        -12    1    3    3    0    0 -0.24217295925E+02 -0.10861317802E+02  0.78964716922E+01  0.27691152224E+02  0.00000000000E+00 0.  1.
</event>
<event>
 7    1  0.2599124E-010  0.4778727E+02  0.7816164E-02  0.1312668E+00
        -11   -1    0    0    0    0  0.00000000000E+00  0.00000000000E+00  0.45593999997E+02  0.45594000000E+02  0.51100000000E-03 0. -1.
         11   -1    0    0    0    0 -0.00000000000E+00 -0.00000000000E+00 -0.45593999997E+02  0.45594000000E+02  0.51100000000E-03 0.  1.
    9900012    2    1    2    0    0 -0.40954504378E+02  0.14255015021E+02 -0.17737364819E+01  0.47787273933E+02  0.20000013169E+02 0.  0.
         12    1    1    2    0    0  0.40954504378E+02 -0.14255015021E+02  0.17737364819E+01  0.43400726067E+02  0.00000000000E+00 0. -1.
         11    1    3    3    0    0 -0.53243279124E+00  0.43300234146E+01 -0.36030672567E+01  0.56581517624E+01  0.51100000000E-03 0. -1.
        -11    1    3    3    0    0 -0.72136552714E-01  0.66648332036E+00 -0.13579068205E+00  0.68399054745E+00  0.51100000000E-03 0.  1.
        -12    1    3    3    0    0 -0.40349935034E+02  0.92585082857E+01  0.19651214569E+01  0.41445131623E+02  0.00000000000E+00 0.  1.
</event>
<event>
 7    1  0.2599124E-010  0.4778727E+02  0.7816164E-02  0.1312668E+00
        -11   -1    0    0    0    0  0.00000000000E+00  0.00000000000E+00  0.45593999997E+02  0.45594000000E+02  0.51100000000E-03 0.  1.
         11   -1    0    0    0    0 -0.00000000000E+00 -0.00000000000E+00 -0.45593999997E+02  0.45594000000E+02  0.51100000000E-03 0. -1.
    9900012    2    1    2    0    0  0.30352036815E+02  0.13846048964E+02  0.27760835052E+02  0.47787272201E+02  0.20000005271E+02 0.  0.
         12    1    1    2    0    0 -0.30352036815E+02 -0.13846048964E+02 -0.27760835052E+02  0.43400727799E+02  0.00000000000E+00 0. -1.
         11    1    3    3    0    0  0.74018281742E+01  0.82193015072E-01  0.27443062335E+01  0.78946205087E+01  0.51100000000E-03 0. -1.
        -11    1    3    3    0    0  0.11481011181E+02  0.36340552126E+01  0.20776041246E+02  0.24013826541E+02  0.51100000000E-03 0.  1.
         12    1    3    3    0    0  0.11469197460E+02  0.10129800736E+02  0.42404875728E+01  0.15878825151E+02  0.00000000000E+00 0. -1.
</event>
<event>
 7    1  0.2599124E-010  0.4778727E+02  0.7816164E-02  0.1312668E+00
        -11   -1    0    0    0    0  0.00000000000E+00  0.00000000000E+00  0.45593999997E+02  0.45594000000E+02  0.51100000000E-03 0. -1.
         11   -1    0    0    0    0 -0.00000000000E+00 -0.00000000000E+00 -0.45593999997E+02  0.45594000000E+02  0.51100000000E-03 0.  1.
    9900012    2    1    2    0    0 -0.12074615386E+02 -0.30785099751E+02 -0.28108799179E+02  0.47787270805E+02  0.19999998909E+02 0.  0.
         12    1    1    2    0    0  0.12074615386E+02  0.30785099751E+02  0.28108799179E+02  0.43400729195E+02  0.00000000000E+00 0. -1.
         11    1    3    3    0    0 -0.50306896112E+01 -0.13838973022E+02 -0.63112415584E+01  0.16020511307E+02  0.51100000000E-03 0. -1.
        -11    1    3    3    0    0 -0.77539467598E+01 -0.18887928418E+02 -0.21546849656E+02  0.29684074192E+02  0.51100000000E-03 0.  1.
         12    1    3    3    0    0  0.71002098514E+00  0.19418016895E+01 -0.25070796470E+00  0.20826853061E+01  0.00000000000E+00 0. -1.
</event>
<event>
 7    1  0.2599124E-010  0.4778727E+02  0.7816164E-02  0.1312668E+00
        -11   -1    0    0    0    0  0.00000000000E+00  0.00000000000E+00  0.45593999997E+02  0.45594000000E+02  0.51100000000E-03 0.  1.
         11   -1    0    0    0    0 -0.00000000000E+00 -0.00000000000E+00 -0.45593999997E+02  0.45594000000E+02  0.51100000000E-03 0. -1.
    9900012    2    1    2    0    0  0.32526086085E+02  0.28471273856E+02 -0.38811524781E+01  0.47787273560E+02  0.20000011469E+02 0.  0.
         12    1    1    2    0    0 -0.32526086085E+02 -0.28471273856E+02  0.38811524781E+01  0.43400726440E+02  0.00000000000E+00 0. -1.
         11    1    3    3    0    0  0.47089196086E+01  0.99580400586E+01 -0.53475113412E+01  0.12244687154E+02  0.51100000000E-03 0. -1.
        -11    1    3    3    0    0  0.20449366980E+02  0.15901305752E+02 -0.37078095662E+01  0.26168224750E+02  0.51100000000E-03 0.  1.
        -12    1    3    3    0    0  0.73677994965E+01  0.26119280448E+01  0.51741684294E+01  0.93743616565E+01  0.00000000000E+00 0.  1.
</event>
<event>
 7    1  0.2599124E-010  0.4778727E+02  0.7816164E-02  0.1312668E+00
        -11   -1    0    0    0    0  0.00000000000E+00  0.00000000000E+00  0.45593999997E+02  0.45594000000E+02  0.51100000000E-03 0. -1.
         11   -1    0    0    0    0 -0.00000000000E+00 -0.00000000000E+00 -0.45593999997E+02  0.45594000000E+02  0.51100000000E-03 0.  1.
    9900012    2    1    2    0    0 -0.30405129192E+02  0.72287775263E+01 -0.30114714418E+02  0.47787272700E+02  0.20000007547E+02 0.  0.
         12    1    1    2    0    0  0.30405129192E+02 -0.72287775263E+01  0.30114714418E+02  0.43400727300E+02  0.00000000000E+00 0. -1.
         11    1    3    3    0    0 -0.13052706041E+02  0.76802920325E+01 -0.38174754687E+01  0.15618359066E+02  0.51100000000E-03 0. -1.
        -11    1    3    3    0    0 -0.57868540694E+01 -0.31973641671E+01 -0.85376366951E+01  0.10798243294E+02  0.51100000000E-03 0.  1.
        -12    1    3    3    0    0 -0.11565569082E+02  0.27458496609E+01 -0.17759602254E+02  0.21370670340E+02  0.00000000000E+00 0.  1.
</event>
<event>
 7    1  0.2599124E-010  0.4778727E+02  0.7816164E-02  0.1312668E+00
        -11   -1    0    0    0    0  0.00000000000E+00  0.00000000000E+00  0.45593999997E+02  0.45594000000E+02  0.51100000000E-03 0.  1.
         11   -1    0    0    0    0 -0.00000000000E+00 -0.00000000000E+00 -0.45593999997E+02  0.45594000000E+02  0.51100000000E-03 0. -1.
    9900012    2    1    2    0    0 -0.15368478540E+02  0.30624583349E+02  0.26637715797E+02  0.47787272577E+02  0.20000006989E+02 0.  0.
         12    1    1    2    0    0  0.15368478540E+02 -0.30624583349E+02 -0.26637715797E+02  0.43400727423E+02  0.00000000000E+00 0. -1.
         11    1    3    3    0    0  0.40180513178E+01  0.27150119789E+01  0.27783998978E+01  0.55888757985E+01  0.51100000000E-03 0.  1.
        -11    1    3    3    0    0 -0.27052119730E+00  0.47891892094E+01  0.29568799263E+01  0.56349493486E+01  0.51100000000E-03 0. -1.
        -12    1    3    3    0    0 -0.19116008661E+02  0.23120382160E+02  0.20902435973E+02  0.36563447430E+02  0.00000000000E+00 0.  1.
</event>
<event>
 7    1  0.2599124E-010  0.4778727E+02  0.7816164E-02  0.1312668E+00
        -11   -1    0    0    0    0  0.00000000000E+00  0.00000000000E+00  0.45593999997E+02  0.45594000000E+02  0.51100000000E-03 0. -1.
         11   -1    0    0    0    0 -0.00000000000E+00 -0.00000000000E+00 -0.45593999997E+02  0.45594000000E+02  0.51100000000E-03 0.  1.
    9900012    2    1    2    0    0  0.20606073222E+02 -0.19996745975E+02 -0.32544478918E+02  0.47787271766E+02  0.20000003289E+02 0.  0.
         12    1    1    2    0    0 -0.20606073222E+02  0.19996745975E+02  0.32544478918E+02  0.43400728234E+02  0.00000000000E+00 0. -1.
         11    1    3    3    0    0  0.42205100542E+01 -0.43933748019E+01 -0.49324239782E+00  0.61120974789E+01  0.51100000000E-03 0. -1.
        -11    1    3    3    0    0  0.82085997877E+01 -0.14327268211E+02 -0.13382382646E+02  0.21254173482E+02  0.51100000000E-03 0.  1.
         12    1    3    3    0    0  0.81769633800E+01 -0.12761029618E+01 -0.18668853874E+02  0.20421000805E+02  0.00000000000E+00 0. -1.
</event>
<event>
 7    1  0.2599124E-010  0.4778727E+02  0.7816164E-02  0.1312668E+00
        -11   -1    0    0    0    0  0.00000000000E+00  0.00000000000E+00  0.45593999997E+02  0.45594000000E+02  0.51100000000E-03 0.  1.
         11   -1    0    0    0    0 -0.00000000000E+00 -0.00000000000E+00 -0.45593999997E+02  0.45594000000E+02  0.51100000000E-03 0. -1.
    9900012    2    1    2    0    0  0.25717606746E+02  0.21762706732E+02  0.27360785469E+02  0.47787270945E+02  0.19999999545E+02 0.  0.
         12    1    1    2    0    0 -0.25717606746E+02 -0.21762706732E+02 -0.27360785469E+02  0.43400729055E+02  0.00000000000E+00 0. -1.
         11    1    3    3    0    0  0.19950115813E+01  0.80638664623E+01  0.12178780805E+02  0.14742072978E+02  0.51100000000E-03 0. -1.
        -11    1    3    3    0    0  0.17982652517E+02  0.12606135353E+02  0.15963665045E+02  0.27150120479E+02  0.51100000000E-03 0.  1.
         12    1    3    3    0    0  0.57399426480E+01  0.10927049163E+01 -0.78166038086E+00  0.58950774878E+01  0.00000000000E+00 0. -1.
</event>
<event>
 7    1  0.2599124E-010  0.4778727E+02  0.7816164E-02  0.1312668E+00
        -11   -1    0    0    0    0  0.00000000000E+00  0.00000000000E+00  0.45593999997E+02  0.45594000000E+02  0.51100000000E-03 0.  1.
         11   -1    0    0    0    0 -0.00000000000E+00 -0.00000000000E+00 -0.45593999997E+02  0.45594000000E+02  0.51100000000E-03 0. -1.
    9900012    2    1    2    0    0 -0.21115528033E+02  0.18982266670E+02  0.32824248351E+02  0.47787271298E+02  0.20000001158E+02 0.  0.
         12    1    1    2    0    0  0.21115528033E+02 -0.18982266670E+02 -0.32824248351E+02  0.43400728702E+02  0.00000000000E+00 0. -1.
         11    1    3    3    0    0 -0.42066220889E+01 -0.11632108181E+01  0.84878896268E+01  0.95442652616E+01  0.51100000000E-03 0. -1.
        -11    1    3    3    0    0 -0.71957282387E+01  0.12822359810E+02  0.20988399868E+02  0.25626243292E+02  0.51100000000E-03 0.  1.
         12    1    3    3    0    0 -0.97131777051E+01  0.73231176781E+01  0.33479588563E+01  0.12616762745E+02  0.00000000000E+00 0. -1.
</event>
<event>
 7    1  0.2599124E-010  0.4778725E+02  0.7816164E-02  0.1312668E+00
        -11   -1    0    0    0    0  0.00000000000E+00  0.00000000000E+00  0.45593999997E+02  0.45594000000E+02  0.51100000000E-03 0. -1.
         11   -1    0    0    0    0 -0.00000000000E+00 -0.00000000000E+00 -0.45593999997E+02  0.45594000000E+02  0.51100000000E-03 0.  1.
    9900012    2    1    2    0    0  0.43360147722E+02  0.99495741164E+00  0.15914323579E+01  0.47787251070E+02  0.19999908927E+02 0.  0.
         12    1    1    2    0    0 -0.43360147722E+02 -0.99495741164E+00 -0.15914323579E+01  0.43400748930E+02  0.00000000000E+00 0. -1.
         11    1    3    3    0    0  0.85173239019E+01  0.56798622377E+00 -0.51464369891E+01  0.99676089783E+01  0.51100000000E-03 0.  1.
        -11    1    3    3    0    0  0.87256658892E+00 -0.28992063064E+01  0.11173865981E+01  0.32272779133E+01  0.51100000000E-03 0. -1.
        -12    1    3    3    0    0  0.33970257232E+02  0.33261774943E+01  0.56204827489E+01  0.34592364178E+02  0.00000000000E+00 0.  1.
</event>
<event>
 7    1  0.2599124E-010  0.4778727E+02  0.7816164E-02  0.1312668E+00
        -11   -1    0    0    0    0  0.00000000000E+00  0.00000000000E+00  0.45593999997E+02  0.45594000000E+02  0.51100000000E-03 0.  1.
         11   -1    0    0    0    0 -0.00000000000E+00 -0.00000000000E+00 -0.45593999997E+02  0.45594000000E+02  0.51100000000E-03 0. -1.
    9900012    2    1    2    0    0 -0.32523661057E+02 -0.22580222396E+02  0.17775499238E+02  0.47787270223E+02  0.19999996256E+02 0.  0.
         12    1    1    2    0    0  0.32523661057E+02  0.22580222396E+02 -0.17775499238E+02  0.43400729777E+02  0.00000000000E+00 0. -1.
         11    1    3    3    0    0 -0.10032256754E+02 -0.12325462141E+01  0.93020594994E+01  0.13736580977E+02  0.51100000000E-03 0. -1.
        -11    1    3    3    0    0 -0.74283824203E+01 -0.27546523877E+01  0.61104722357E+01  0.10005340892E+02  0.51100000000E-03 0.  1.
         12    1    3    3    0    0 -0.15063021882E+02 -0.18593023794E+02  0.23629675029E+01  0.24045348354E+02  0.00000000000E+00 0. -1.
</event>
<event>
 7    1  0.2599124E-010  0.4778728E+02  0.7816164E-02  0.1312668E+00
        -11   -1    0    0    0    0  0.00000000000E+00  0.00000000000E+00  0.45593999997E+02  0.45594000000E+02  0.51100000000E-03 0.  1.
         11   -1    0    0    0    0 -0.00000000000E+00 -0.00000000000E+00 -0.45593999997E+02  0.45594000000E+02  0.51100000000E-03 0. -1.
    9900012    2    1    2    0    0 -0.24900618308E+02 -0.24373316034E+02  0.25875153232E+02  0.47787275566E+02  0.20000020615E+02 0.  0.
         12    1    1    2    0    0  0.24900618308E+02  0.24373316034E+02 -0.25875153232E+02  0.43400724434E+02  0.00000000000E+00 0. -1.
         11    1    3    3    0    0 -0.91994138709E+01 -0.68845632860E+01  0.59826483683E+01  0.12954478336E+02  0.51100000000E-03 0. -1.
        -11    1    3    3    0    0 -0.16434265302E+02 -0.18330348464E+02  0.12980530921E+02  0.27831294150E+02  0.51100000000E-03 0.  1.
         12    1    3    3    0    0  0.73306086555E+00  0.84159571546E+00  0.69119739428E+01  0.70015030791E+01  0.00000000000E+00 0. -1.
</event>
<event>
 7    1  0.2599124E-010  0.4778727E+02  0.7816164E-02  0.1312668E+00
        -11   -1    0    0    0    0  0.00000000000E+00  0.00000000000E+00  0.45593999997E+02  0.45594000000E+02  0.51100000000E-03 0.  1.
         11   -1    0    0    0    0 -0.00000000000E+00 -0.00000000000E+00 -0.45593999997E+02  0.45594000000E+02  0.51100000000E-03 0. -1.
    9900012    2    1    2    0    0 -0.13162395112E+02 -0.72336447707E+01  0.40719149766E+02  0.47787269367E+02  0.19999992354E+02 0.  0.
         12    1    1    2    0    0  0.13162395112E+02  0.72336447707E+01 -0.40719149766E+02  0.43400730633E+02  0.00000000000E+00 0. -1.
         11    1    3    3    0    0 -0.24223733698E+01 -0.23296899725E+01  0.18475005313E+00  0.33659294339E+01  0.51100000000E-03 0. -1.
        -11    1    3    3    0    0  0.19458921174E+01  0.23603937474E+01  0.37557912262E+01  0.48439573461E+01  0.51100000000E-03 0.  1.
        -12    1    3    3    0    0 -0.12685913859E+02 -0.72643485456E+01  0.36778608487E+02  0.39577382588E+02  0.00000000000E+00 0.  1.
</event>
<event>
 7    1  0.2599124E-010  0.4778727E+02  0.7816164E-02  0.1312668E+00
        -11   -1    0    0    0    0  0.00000000000E+00  0.00000000000E+00  0.45593999997E+02  0.45594000000E+02  0.51100000000E-03 0. -1.
         11   -1    0    0    0    0 -0.00000000000E+00 -0.00000000000E+00 -0.45593999997E+02  0.45594000000E+02  0.51100000000E-03 0.  1.
    9900012    2    1    2    0    0 -0.35750097840E+02 -0.19123608157E+02 -0.15486818953E+02  0.47787269064E+02  0.19999990969E+02 0.  0.
         12    1    1    2    0    0  0.35750097840E+02  0.19123608157E+02  0.15486818953E+02  0.43400730936E+02  0.00000000000E+00 0. -1.
         11    1    3    3    0    0 -0.16087213045E+02 -0.90782289898E+01 -0.87226817277E+01  0.20427869246E+02  0.51100000000E-03 0.  1.
        -11    1    3    3    0    0 -0.18833047682E+02 -0.12665244936E+02 -0.32948883928E+01  0.22933565010E+02  0.51100000000E-03 0. -1.
         12    1    3    3    0    0 -0.82983711368E+00  0.26198657693E+01 -0.34692488325E+01  0.44258348079E+01  0.00000000000E+00 0. -1.
</event>
<event>
 7    1  0.2599124E-010  0.4778727E+02  0.7816164E-02  0.1312668E+00
        -11   -1    0    0    0    0  0.00000000000E+00  0.00000000000E+00  0.45593999997E+02  0.45594000000E+02  0.51100000000E-03 0. -1.
         11   -1    0    0    0    0 -0.00000000000E+00 -0.00000000000E+00 -0.45593999997E+02  0.45594000000E+02  0.51100000000E-03 0.  1.
    9900012    2    1    2    0    0  0.35823685611E+02  0.22476409650E+02 -0.97518222513E+01  0.47787268684E+02  0.19999989238E+02 0.  0.
         12    1    1    2    0    0 -0.35823685611E+02 -0.22476409650E+02  0.97518222513E+01  0.43400731316E+02  0.00000000000E+00 0. -1.
         11    1    3    3    0    0  0.18913172314E+02  0.10095831228E+02 -0.83820484993E+01  0.23019396875E+02  0.51100000000E-03 0. -1.
        -11    1    3    3    0    0  0.17900959964E+02  0.14042647111E+02 -0.86424896150E+00  0.22768118764E+02  0.51100000000E-03 0.  1.
         12    1    3    3    0    0 -0.99044666756E+00 -0.16620686888E+01 -0.50552479046E+00  0.19997530451E+01  0.00000000000E+00 0. -1.
</event>
<event>
 7    1  0.2599124E-010  0.4778727E+02  0.7816164E-02  0.1312668E+00
        -11   -1    0    0    0    0  0.00000000000E+00  0.00000000000E+00  0.45593999997E+02  0.45594000000E+02  0.51100000000E-03 0.  1.
         11   -1    0    0    0    0 -0.00000000000E+00 -0.00000000000E+00 -0.45593999997E+02  0.45594000000E+02  0.51100000000E-03 0. -1.
    9900012    2    1    2    0    0 -0.91315759961E+01 -0.10407292243E+02  0.41133025105E+02  0.47787272284E+02  0.20000005652E+02 0.  0.
         12    1    1    2    0    0  0.91315759961E+01  0.10407292243E+02 -0.41133025105E+02  0.43400727716E+02  0.00000000000E+00 0. -1.
         11    1    3    3    0    0  0.40492418500E+01 -0.10220092801E+01  0.44039631317E+01  0.60692465804E+01  0.51100000000E-03 0. -1.
        -11    1    3    3    0    0 -0.51013906195E+01  0.22796513433E+01  0.99274595554E+01  0.11391902825E+02  0.51100000000E-03 0.  1.
        -12    1    3    3    0    0 -0.80794272266E+01 -0.11664934306E+02  0.26801602418E+02  0.30326122878E+02  0.00000000000E+00 0.  1.
</event>
<event>
 7    1  0.2599124E-010  0.4778727E+02  0.7816164E-02  0.1312668E+00
        -11   -1    0    0    0    0  0.00000000000E+00  0.00000000000E+00  0.45593999997E+02  0.45594000000E+02  0.51100000000E-03 0.  1.
         11   -1    0    0    0    0 -0.00000000000E+00 -0.00000000000E+00 -0.45593999997E+02  0.45594000000E+02  0.51100000000E-03 0. -1.
    9900012    2    1    2    0    0  0.20520500197E+02 -0.23083668054E+02  0.30490596843E+02  0.47787272414E+02  0.20000006243E+02 0.  0.
         12    1    1    2    0    0 -0.20520500197E+02  0.23083668054E+02 -0.30490596843E+02  0.43400727586E+02  0.00000000000E+00 0. -1.
         11    1    3    3    0    0  0.95635506964E+00 -0.61046470201E+01  0.65024122354E+01  0.89701000774E+01  0.51100000000E-03 0. -1.
        -11    1    3    3    0    0  0.15743748848E+02 -0.12948062663E+02  0.80104229675E+01  0.21901708401E+02  0.51100000000E-03 0.  1.
        -12    1    3    3    0    0  0.38203962801E+01 -0.40309583717E+01  0.15977761640E+02  0.16915463935E+02  0.00000000000E+00 0.  1.
</event>
<event>
 7    1  0.2599124E-010  0.4778727E+02  0.7816164E-02  0.1312668E+00
        -11   -1    0    0    0    0  0.00000000000E+00  0.00000000000E+00  0.45593999997E+02  0.45594000000E+02  0.51100000000E-03 0.  1.
         11   -1    0    0    0    0 -0.00000000000E+00 -0.00000000000E+00 -0.45593999997E+02  0.45594000000E+02  0.51100000000E-03 0. -1.
    9900012    2    1    2    0    0  0.19283300498E+02 -0.18192555515E+02  0.34362894473E+02  0.47787271080E+02  0.20000000161E+02 0.  0.
         12    1    1    2    0    0 -0.19283300498E+02  0.18192555515E+02 -0.34362894473E+02  0.43400728920E+02  0.00000000000E+00 0. -1.
         11    1    3    3    0    0  0.73053774918E+01 -0.81326953439E+01  0.54566414140E+01  0.12218191750E+02  0.51100000000E-03 0. -1.
        -11    1    3    3    0    0  0.11700944282E+02 -0.23708890349E+01  0.22837183947E+02  0.25769559228E+02  0.51100000000E-03 0.  1.
         12    1    3    3    0    0  0.27697872427E+00 -0.76889711365E+01  0.60690691119E+01  0.97995201024E+01  0.00000000000E+00 0. -1.
</event>
<event>
 7    1  0.2599124E-010  0.4778727E+02  0.7816164E-02  0.1312668E+00
        -11   -1    0    0    0    0  0.00000000000E+00  0.00000000000E+00  0.45593999997E+02  0.45594000000E+02  0.51100000000E-03 0.  1.
         11   -1    0    0    0    0 -0.00000000000E+00 -0.00000000000E+00 -0.45593999997E+02  0.45594000000E+02  0.51100000000E-03 0. -1.
    9900012    2    1    2    0    0  0.21623207161E+02  0.17225005799E+02  0.33456831914E+02  0.47787268273E+02  0.19999987365E+02 0.  0.
         12    1    1    2    0    0 -0.21623207161E+02 -0.17225005799E+02 -0.33456831914E+02  0.43400731727E+02  0.00000000000E+00 0. -1.
         11    1    3    3    0    0  0.44593009525E+01 -0.25271287669E+01  0.28361091578E+01  0.58579228576E+01  0.51100000000E-03 0. -1.
        -11    1    3    3    0    0  0.12252055909E+02  0.62646892633E+01  0.10991093234E+02  0.17611454691E+02  0.51100000000E-03 0.  1.
         12    1    3    3    0    0  0.49118502996E+01  0.13487445302E+02  0.19629629522E+02  0.24317890725E+02  0.00000000000E+00 0. -1.
</event>
<event>
 7    1  0.2599124E-010  0.4778727E+02  0.7816164E-02  0.1312668E+00
        -11   -1    0    0    0    0  0.00000000000E+00  0.00000000000E+00  0.45593999997E+02  0.45594000000E+02  0.51100000000E-03 0.  1.
         11   -1    0    0    0    0 -0.00000000000E+00 -0.00000000000E+00 -0.45593999997E+02  0.45594000000E+02  0.51100000000E-03 0. -1.
    9900012    2    1    2    0    0 -0.36011366994E+01 -0.40185560895E+01  0.43063982235E+02  0.47787267927E+02  0.19999985786E+02 0.  0.
         12    1    1    2    0    0  0.36011366994E+01  0.40185560895E+01 -0.43063982235E+02  0.43400732073E+02  0.00000000000E+00 0. -1.
         11    1    3    3    0    0 -0.51885543807E+01  0.14342011850E+01  0.57576874125E+01  0.78821947580E+01  0.51100000000E-03 0. -1.
        -11    1    3    3    0    0  0.21670016711E+01  0.40679549837E+01  0.13108066265E+02  0.13894803182E+02  0.51100000000E-03 0.  1.
        -12    1    3    3    0    0 -0.57958398977E+00 -0.95207122583E+01  0.24198228557E+02  0.26010269987E+02  0.00000000000E+00 0.  1.
</event>
<event>
 7    1  0.2599124E-010  0.4778727E+02  0.7816164E-02  0.1312668E+00
        -11   -1    0    0    0    0  0.00000000000E+00  0.00000000000E+00  0.45593999997E+02  0.45594000000E+02  0.51100000000E-03 0.  1.
         11   -1    0    0    0    0 -0.00000000000E+00 -0.00000000000E+00 -0.45593999997E+02  0.45594000000E+02  0.51100000000E-03 0. -1.
    9900012    2    1    2    0    0  0.69876323340E-01 -0.41452815209E+02  0.12856225020E+02  0.47787270821E+02  0.19999998983E+02 0.  0.
         12    1    1    2    0    0 -0.69876323340E-01  0.41452815209E+02 -0.12856225020E+02  0.43400729179E+02  0.00000000000E+00 0. -1.
         11    1    3    3    0    0 -0.54800387323E+01 -0.24121111577E+02  0.12079369716E+02  0.27527622876E+02  0.51100000000E-03 0. -1.
        -11    1    3    3    0    0 -0.57147242568E+00 -0.12318455545E+02  0.38686050845E+00  0.12337770830E+02  0.51100000000E-03 0.  1.
        -12    1    3    3    0    0  0.61213874813E+01 -0.50132480876E+01  0.38999479470E+00  0.79218771150E+01  0.00000000000E+00 0.  1.
</event>
<event>
 7    1  0.2599124E-010  0.4778727E+02  0.7816164E-02  0.1312668E+00
        -11   -1    0    0    0    0  0.00000000000E+00  0.00000000000E+00  0.45593999997E+02  0.45594000000E+02  0.51100000000E-03 0.  1.
         11   -1    0    0    0    0 -0.00000000000E+00 -0.00000000000E+00 -0.45593999997E+02  0.45594000000E+02  0.51100000000E-03 0. -1.
    9900012    2    1    2    0    0 -0.25877156863E+02 -0.21844308939E+02  0.27144470396E+02  0.47787270128E+02  0.19999995821E+02 0.  0.
         12    1    1    2    0    0  0.25877156863E+02  0.21844308939E+02 -0.27144470396E+02  0.43400729872E+02  0.00000000000E+00 0. -1.
         11    1    3    3    0    0 -0.79760296493E+01 -0.17594673322E+01  0.11734269285E+01  0.82516486400E+01  0.51100000000E-03 0. -1.
        -11    1    3    3    0    0 -0.72802914314E+01 -0.47584431022E+01  0.15903101167E+01  0.88416350644E+01  0.51100000000E-03 0.  1.
         12    1    3    3    0    0 -0.10620835782E+02 -0.15326398504E+02  0.24380733351E+02  0.30693986424E+02  0.00000000000E+00 0. -1.
</event>
<event>
 7    1  0.2599124E-010  0.4778727E+02  0.7816164E-02  0.1312668E+00
        -11   -1    0    0    0    0  0.00000000000E+00  0.00000000000E+00  0.45593999997E+02  0.45594000000E+02  0.51100000000E-03 0.  1.
         11   -1    0    0    0    0 -0.00000000000E+00 -0.00000000000E+00 -0.45593999997E+02  0.45594000000E+02  0.51100000000E-03 0. -1.
    9900012    2    1    2    0    0 -0.16429010091E+02 -0.25782919447E+02  0.30805062309E+02  0.47787272222E+02  0.20000005370E+02 0.  0.
         12    1    1    2    0    0  0.16429010091E+02  0.25782919447E+02 -0.30805062309E+02  0.43400727778E+02  0.00000000000E+00 0. -1.
         11    1    3    3    0    0 -0.28973625446E+01 -0.31035027036E+01  0.94821071415E+01  0.10389263441E+02  0.51100000000E-03 0. -1.
        -11    1    3    3    0    0  0.31791407742E+01 -0.44984550317E+01  0.14382180116E+01  0.56931103137E+01  0.51100000000E-03 0.  1.
        -12    1    3    3    0    0 -0.16710788321E+02 -0.18180961712E+02  0.19884737156E+02  0.31704898467E+02  0.00000000000E+00 0.  1.
</event>
<event>
 7    1  0.2599124E-010  0.4778727E+02  0.7816164E-02  0.1312668E+00
        -11   -1    0    0    0    0  0.00000000000E+00  0.00000000000E+00  0.45593999997E+02  0.45594000000E+02  0.51100000000E-03 0.  1.
         11   -1    0    0    0    0 -0.00000000000E+00 -0.00000000000E+00 -0.45593999997E+02  0.45594000000E+02  0.51100000000E-03 0. -1.
    9900012    2    1    2    0    0  0.39212086768E+02  0.65272226852E+01  0.17419269854E+02  0.47787270203E+02  0.19999996165E+02 0.  0.
         12    1    1    2    0    0 -0.39212086768E+02 -0.65272226852E+01 -0.17419269854E+02  0.43400729797E+02  0.00000000000E+00 0. -1.
         11    1    3    3    0    0  0.20552270143E+02 -0.17314888119E+01  0.85149051640E+00  0.20642647551E+02  0.51100000000E-03 0. -1.
        -11    1    3    3    0    0  0.87877965526E+01  0.64270869140E+00  0.49707249011E+01  0.10116647123E+02  0.51100000000E-03 0.  1.
         12    1    3    3    0    0  0.98720200716E+01  0.76160028057E+01  0.11597054436E+02  0.17027975529E+02  0.00000000000E+00 0. -1.
</event>
<event>
 7    1  0.2599124E-010  0.4778727E+02  0.7816164E-02  0.1312668E+00
        -11   -1    0    0    0    0  0.00000000000E+00  0.00000000000E+00  0.45593999997E+02  0.45594000000E+02  0.51100000000E-03 0. -1.
         11   -1    0    0    0    0 -0.00000000000E+00 -0.00000000000E+00 -0.45593999997E+02  0.45594000000E+02  0.51100000000E-03 0.  1.
    9900012    2    1    2    0    0 -0.60146776432E+01  0.41234060219E+02  0.12132563154E+02  0.47787272380E+02  0.20000006088E+02 0.  0.
         12    1    1    2    0    0  0.60146776432E+01 -0.41234060219E+02 -0.12132563154E+02  0.43400727620E+02  0.00000000000E+00 0. -1.
         11    1    3    3    0    0 -0.33126620405E+01  0.52519037704E+01 -0.13271199318E+01  0.63496039705E+01  0.51100000000E-03 0. -1.
        -11    1    3    3    0    0 -0.49321480972E+01  0.29186785610E+02  0.44481079467E+01  0.29932928418E+02  0.51100000000E-03 0.  1.
         12    1    3    3    0    0  0.22301324946E+01  0.67953708383E+01  0.90115751390E+01  0.11504739991E+02  0.00000000000E+00 0. -1.
</event>
<event>
 7    1  0.2599124E-010  0.4778727E+02  0.7816164E-02  0.1312668E+00
        -11   -1    0    0    0    0  0.00000000000E+00  0.00000000000E+00  0.45593999997E+02  0.45594000000E+02  0.51100000000E-03 0. -1.
         11   -1    0    0    0    0 -0.00000000000E+00 -0.00000000000E+00 -0.45593999997E+02  0.45594000000E+02  0.51100000000E-03 0.  1.
    9900012    2    1    2    0    0 -0.38463039464E+02  0.20054138559E+02 -0.14315978328E+01  0.47787270161E+02  0.19999995972E+02 0.  0.
         12    1    1    2    0    0  0.38463039464E+02 -0.20054138559E+02  0.14315978328E+01  0.43400729839E+02  0.00000000000E+00 0. -1.
         11    1    3    3    0    0 -0.15717588209E+01  0.62349809537E+01 -0.72843572104E+00  0.64711693028E+01  0.51100000000E-03 0. -1.
        -11    1    3    3    0    0 -0.46542364315E+01  0.15070800321E+01  0.42171459825E+01  0.64589107040E+01  0.51100000000E-03 0.  1.
        -12    1    3    3    0    0 -0.32237044212E+02  0.12312077574E+02 -0.49203080943E+01  0.34857190154E+02  0.00000000000E+00 0.  1.
</event>
<event>
 7    1  0.2599124E-010  0.4778725E+02  0.7816164E-02  0.1312668E+00
        -11   -1    0    0    0    0  0.00000000000E+00  0.00000000000E+00  0.45593999997E+02  0.45594000000E+02  0.51100000000E-03 0.  1.
         11   -1    0    0    0    0 -0.00000000000E+00 -0.00000000000E+00 -0.45593999997E+02  0.45594000000E+02  0.51100000000E-03 0. -1.
    9900012    2    1    2    0    0 -0.21085363090E+01 -0.57139852053E+01  0.42971267767E+02  0.47787246484E+02  0.19999888019E+02 0.  0.
         12    1    1    2    0    0  0.21085363090E+01  0.57139852053E+01 -0.42971267767E+02  0.43400753516E+02  0.00000000000E+00 0. -1.
         11    1    3    3    0    0  0.90455548310E+00  0.18329512296E+01  0.22441089517E+01  0.30354498975E+01  0.51100000000E-03 0. -1.
        -11    1    3    3    0    0  0.53225690997E+00 -0.53516688944E+01  0.19037419080E+01  0.57050758879E+01  0.51100000000E-03 0.  1.
         12    1    3    3    0    0 -0.35453487021E+01 -0.21952675404E+01  0.38823416907E+02  0.39046720699E+02  0.00000000000E+00 0. -1.
</event>
<event>
 7    1  0.2599124E-010  0.4778726E+02  0.7816164E-02  0.1312668E+00
        -11   -1    0    0    0    0  0.00000000000E+00  0.00000000000E+00  0.45593999997E+02  0.45594000000E+02  0.51100000000E-03 0.  1.
         11   -1    0    0    0    0 -0.00000000000E+00 -0.00000000000E+00 -0.45593999997E+02  0.45594000000E+02  0.51100000000E-03 0. -1.
    9900012    2    1    2    0    0 -0.14114229485E+02  0.22587542243E+02  0.34266828393E+02  0.47787261911E+02  0.19999958359E+02 0.  0.
         12    1    1    2    0    0  0.14114229485E+02 -0.22587542243E+02 -0.34266828393E+02  0.43400738089E+02  0.00000000000E+00 0. -1.
         11    1    3    3    0    0  0.29065840168E+01  0.12083074246E+02  0.15253157566E+02  0.19675053491E+02  0.51100000000E-03 0. -1.
        -11    1    3    3    0    0 -0.55158659989E+00  0.12476196000E+01  0.31866036150E+01  0.34663013867E+01  0.51100000000E-03 0.  1.
        -12    1    3    3    0    0 -0.16469226902E+02  0.92568483970E+01  0.15827067212E+02  0.24645907033E+02  0.00000000000E+00 0.  1.
</event>
<event>
 7    1  0.2599124E-010  0.4778727E+02  0.7816164E-02  0.1312668E+00
        -11   -1    0    0    0    0  0.00000000000E+00  0.00000000000E+00  0.45593999997E+02  0.45594000000E+02  0.51100000000E-03 0.  1.
         11   -1    0    0    0    0 -0.00000000000E+00 -0.00000000000E+00 -0.45593999997E+02  0.45594000000E+02  0.51100000000E-03 0. -1.
    9900012    2    1    2    0    0 -0.65168530639E+01  0.17675725695E+02  0.39098885986E+02  0.47787268001E+02  0.19999986123E+02 0.  0.
         12    1    1    2    0    0  0.65168530639E+01 -0.17675725695E+02 -0.39098885986E+02  0.43400731999E+02  0.00000000000E+00 0. -1.
         11    1    3    3    0    0  0.13934733534E+01 -0.97149661240E+00  0.44720148352E+01  0.47837736779E+01  0.51100000000E-03 0.  1.
        -11    1    3    3    0    0  0.13001822081E+01  0.14775874081E+02  0.15682982002E+02  0.21586404364E+02  0.51100000000E-03 0. -1.
         12    1    3    3    0    0 -0.92105086254E+01  0.38713482272E+01  0.18943889149E+02  0.21417089959E+02  0.00000000000E+00 0. -1.
</event>
<event>
 7    1  0.2599124E-010  0.4778728E+02  0.7816164E-02  0.1312668E+00
        -11   -1    0    0    0    0  0.00000000000E+00  0.00000000000E+00  0.45593999997E+02  0.45594000000E+02  0.51100000000E-03 0.  1.
         11   -1    0    0    0    0 -0.00000000000E+00 -0.00000000000E+00 -0.45593999997E+02  0.45594000000E+02  0.51100000000E-03 0. -1.
    9900012    2    1    2    0    0 -0.26337770115E+02 -0.57538569081E+01  0.34012313896E+02  0.47787279954E+02  0.20000040621E+02 0.  0.
         12    1    1    2    0    0  0.26337770115E+02  0.57538569081E+01 -0.34012313896E+02  0.43400720046E+02  0.00000000000E+00 0. -1.
         11    1    3    3    0    0 -0.20916440058E+01  0.57246561916E+01  0.88360668062E+01  0.10734185578E+02  0.51100000000E-03 0. -1.
        -11    1    3    3    0    0 -0.10659665530E+02 -0.74608791938E+01  0.12468754601E+02  0.18021182789E+02  0.51100000000E-03 0.  1.
         12    1    3    3    0    0 -0.13586460579E+02 -0.40176339059E+01  0.12707492489E+02  0.19031911587E+02  0.00000000000E+00 0. -1.
</event>
<event>
 7    1  0.2599124E-010  0.4778727E+02  0.7816164E-02  0.1312668E+00
        -11   -1    0    0    0    0  0.00000000000E+00  0.00000000000E+00  0.45593999997E+02  0.45594000000E+02  0.51100000000E-03 0. -1.
         11   -1    0    0    0    0 -0.00000000000E+00 -0.00000000000E+00 -0.45593999997E+02  0.45594000000E+02  0.51100000000E-03 0.  1.
    9900012    2    1    2    0    0  0.17126714793E+02 -0.14758844976E+02 -0.37046933973E+02  0.47787272110E+02  0.20000004856E+02 0.  0.
         12    1    1    2    0    0 -0.17126714793E+02  0.14758844976E+02  0.37046933973E+02  0.43400727890E+02  0.00000000000E+00 0. -1.
         11    1    3    3    0    0  0.13051416550E+01  0.18649137508E+01 -0.36268468524E+00  0.23049595397E+01  0.51100000000E-03 0. -1.
        -11    1    3    3    0    0 -0.78648757048E+00 -0.81439921853E+01 -0.98494975203E+01  0.12804521587E+02  0.51100000000E-03 0.  1.
        -12    1    3    3    0    0  0.16608060708E+02 -0.84797665415E+01 -0.26834751768E+02  0.32677790983E+02  0.00000000000E+00 0.  1.
</event>
<event>
 7    1  0.2599124E-010  0.4778727E+02  0.7816164E-02  0.1312668E+00
        -11   -1    0    0    0    0  0.00000000000E+00  0.00000000000E+00  0.45593999997E+02  0.45594000000E+02  0.51100000000E-03 0. -1.
         11   -1    0    0    0    0 -0.00000000000E+00 -0.00000000000E+00 -0.45593999997E+02  0.45594000000E+02  0.51100000000E-03 0.  1.
    9900012    2    1    2    0    0 -0.20723989463E+02  0.30003961935E+02  0.23535118618E+02  0.47787270981E+02  0.19999999711E+02 0.  0.
         12    1    1    2    0    0  0.20723989463E+02 -0.30003961935E+02 -0.23535118618E+02  0.43400729019E+02  0.00000000000E+00 0. -1.
         11    1    3    3    0    0 -0.11251995097E+02  0.10537135310E+02  0.18184449526E+02  0.23839312470E+02  0.51100000000E-03 0. -1.
        -11    1    3    3    0    0 -0.17431027303E+01 -0.40293721775E+00 -0.46589266999E+00  0.18487351814E+01  0.51100000000E-03 0.  1.
        -12    1    3    3    0    0 -0.77288916353E+01  0.19869763842E+02  0.58165617621E+01  0.22099223330E+02  0.00000000000E+00 0.  1.
</event>
<event>
 7    1  0.2599124E-010  0.4778728E+02  0.7816164E-02  0.1312668E+00
        -11   -1    0    0    0    0  0.00000000000E+00  0.00000000000E+00  0.45593999997E+02  0.45594000000E+02  0.51100000000E-03 0. -1.
         11   -1    0    0    0    0 -0.00000000000E+00 -0.00000000000E+00 -0.45593999997E+02  0.45594000000E+02  0.51100000000E-03 0.  1.
    9900012    2    1    2    0    0  0.35312363425E+02 -0.24823968776E+02  0.45199718728E+01  0.47787279013E+02  0.20000036331E+02 0.  0.
         12    1    1    2    0    0 -0.35312363425E+02  0.24823968776E+02 -0.45199718728E+01  0.43400720987E+02  0.00000000000E+00 0. -1.
         11    1    3    3    0    0  0.39584192236E+01 -0.50996920943E+01 -0.33921379016E+01  0.72926361497E+01  0.51100000000E-03 0. -1.
        -11    1    3    3    0    0  0.69036096525E+01 -0.33742511649E+01 -0.41159663472E+01  0.87170279562E+01  0.51100000000E-03 0.  1.
        -12    1    3    3    0    0  0.24450334549E+02 -0.16350025517E+02  0.12028076122E+02  0.31777614907E+02  0.00000000000E+00 0.  1.
</event>
<event>
 7    1  0.2599124E-010  0.4778728E+02  0.7816164E-02  0.1312668E+00
        -11   -1    0    0    0    0  0.00000000000E+00  0.00000000000E+00  0.45593999997E+02  0.45594000000E+02  0.51100000000E-03 0.  1.
         11   -1    0    0    0    0 -0.00000000000E+00 -0.00000000000E+00 -0.45593999997E+02  0.45594000000E+02  0.51100000000E-03 0. -1.
    9900012    2    1    2    0    0  0.24659124982E+02  0.33331980348E+02  0.12826886979E+02  0.47787281246E+02  0.20000046514E+02 0.  0.
         12    1    1    2    0    0 -0.24659124982E+02 -0.33331980348E+02 -0.12826886979E+02  0.43400718754E+02  0.00000000000E+00 0. -1.
         11    1    3    3    0    0 -0.35587716257E+00 -0.18751947463E+01  0.16286896431E+01  0.25091102220E+01  0.51100000000E-03 0. -1.
        -11    1    3    3    0    0  0.82979220805E+01  0.70844889815E+01  0.76014109297E+00  0.10937244156E+02  0.51100000000E-03 0.  1.
         12    1    3    3    0    0  0.16717080064E+02  0.28122686113E+02  0.10438056242E+02  0.34340926868E+02  0.00000000000E+00 0. -1.
</event>
<event>
 7    1  0.2599124E-010  0.4778727E+02  0.7816164E-02  0.1312668E+00
        -11   -1    0    0    0    0  0.00000000000E+00  0.00000000000E+00  0.45593999997E+02  0.45594000000E+02  0.51100000000E-03 0.  1.
         11   -1    0    0    0    0 -0.00000000000E+00 -0.00000000000E+00 -0.45593999997E+02  0.45594000000E+02  0.51100000000E-03 0. -1.
    9900012    2    1    2    0    0  0.76695138952E-02 -0.26087162166E+02  0.34685487484E+02  0.47787272694E+02  0.20000007519E+02 0.  0.
         12    1    1    2    0    0 -0.76695138952E-02  0.26087162166E+02 -0.34685487484E+02  0.43400727306E+02  0.00000000000E+00 0. -1.
         11    1    3    3    0    0 -0.25248509349E+01 -0.40659283202E+01  0.26302278048E+01  0.54612035226E+01  0.51100000000E-03 0. -1.
        -11    1    3    3    0    0 -0.15820256236E+01 -0.47262608222E+01 -0.72399895831E+00  0.50363202029E+01  0.51100000000E-03 0.  1.
        -12    1    3    3    0    0  0.41145460724E+01 -0.17294973024E+02  0.32779258638E+02  0.37289748968E+02  0.00000000000E+00 0.  1.
</event>
<event>
 7    1  0.2599124E-010  0.4778725E+02  0.7816164E-02  0.1312668E+00
        -11   -1    0    0    0    0  0.00000000000E+00  0.00000000000E+00  0.45593999997E+02  0.45594000000E+02  0.51100000000E-03 0. -1.
         11   -1    0    0    0    0 -0.00000000000E+00 -0.00000000000E+00 -0.45593999997E+02  0.45594000000E+02  0.51100000000E-03 0.  1.
    9900012    2    1    2    0    0 -0.16114737842E+02  0.30156823916E+02 -0.26730257432E+02  0.47787245781E+02  0.19999884812E+02 0.  0.
         12    1    1    2    0    0  0.16114737842E+02 -0.30156823916E+02  0.26730257432E+02  0.43400754219E+02  0.00000000000E+00 0. -1.
         11    1    3    3    0    0  0.33807580822E-01  0.12939073076E+02 -0.59519230623E+01  0.14242406518E+02  0.51100000000E-03 0. -1.
        -11    1    3    3    0    0 -0.19839661945E+00  0.47107289042E+00  0.14071756283E+01  0.14971353970E+01  0.51100000000E-03 0.  1.
        -12    1    3    3    0    0 -0.15950148804E+02  0.16746677950E+02 -0.22185509998E+02  0.32047703866E+02  0.00000000000E+00 0.  1.
</event>
<event>
 7    1  0.2599124E-010  0.4778727E+02  0.7816164E-02  0.1312668E+00
        -11   -1    0    0    0    0  0.00000000000E+00  0.00000000000E+00  0.45593999997E+02  0.45594000000E+02  0.51100000000E-03 0. -1.
         11   -1    0    0    0    0 -0.00000000000E+00 -0.00000000000E+00 -0.45593999997E+02  0.45594000000E+02  0.51100000000E-03 0.  1.
    9900012    2    1    2    0    0 -0.34840743638E+02  0.10629388843E+02 -0.23595807666E+02  0.47787268856E+02  0.19999990020E+02 0.  0.
         12    1    1    2    0    0  0.34840743638E+02 -0.10629388843E+02  0.23595807666E+02  0.43400731144E+02  0.00000000000E+00 0. -1.
         11    1    3    3    0    0 -0.15181740432E+02 -0.73614255391E+00 -0.37914971187E+01  0.15665331119E+02  0.51100000000E-03 0. -1.
        -11    1    3    3    0    0 -0.80724220640E+01 -0.93727674134E+00 -0.86733126677E+01  0.11885656842E+02  0.51100000000E-03 0.  1.
         12    1    3    3    0    0 -0.11586581143E+02  0.12302808139E+02 -0.11130997880E+02  0.20236280895E+02  0.00000000000E+00 0. -1.
</event>
<event>
 7    1  0.2599124E-010  0.4778727E+02  0.7816164E-02  0.1312668E+00
        -11   -1    0    0    0    0  0.00000000000E+00  0.00000000000E+00  0.45593999997E+02  0.45594000000E+02  0.51100000000E-03 0.  1.
         11   -1    0    0    0    0 -0.00000000000E+00 -0.00000000000E+00 -0.45593999997E+02  0.45594000000E+02  0.51100000000E-03 0. -1.
    9900012    2    1    2    0    0  0.16828922356E+02  0.29447644197E+02  0.27078528461E+02  0.47787273278E+02  0.20000010182E+02 0.  0.
         12    1    1    2    0    0 -0.16828922356E+02 -0.29447644197E+02 -0.27078528461E+02  0.43400726722E+02  0.00000000000E+00 0. -1.
         11    1    3    3    0    0  0.71267780382E+01  0.12314476810E+02  0.49283129020E+01  0.15057409227E+02  0.51100000000E-03 0. -1.
        -11    1    3    3    0    0  0.11984102987E+02  0.13979907907E+02  0.12314098436E+02  0.22151604232E+02  0.51100000000E-03 0.  1.
         12    1    3    3    0    0 -0.22819586700E+01  0.31532594801E+01  0.98361171236E+01  0.10578259819E+02  0.00000000000E+00 0. -1.
</event>
<event>
 7    1  0.3337280E-010  0.4778727E+02  0.7816164E-02  0.1312668E+00
        -11   -1    0    0    0    0  0.00000000000E+00  0.00000000000E+00  0.45593999997E+02  0.45594000000E+02  0.51100000000E-03 0.  1.
         11   -1    0    0    0    0 -0.00000000000E+00 -0.00000000000E+00 -0.45593999997E+02  0.45594000000E+02  0.51100000000E-03 0. -1.
    9900012    2    1    2    0    0  0.42783747649E+02  0.90643826340E+00  0.72354957260E+01  0.47787273144E+02  0.20000009575E+02 0.  0.
         12    1    1    2    0    0 -0.42783747649E+02 -0.90643826340E+00 -0.72354957260E+01  0.43400726856E+02  0.00000000000E+00 0. -1.
         11    1    3    3    0    0  0.18262974812E+01  0.35298086465E+01  0.29311648055E+01  0.49382829960E+01  0.51100000000E-03 0. -1.
        -11    1    3    3    0    0  0.16455646106E+02  0.27633562569E+01 -0.24591804002E+01  0.16866297610E+02  0.51100000000E-03 0.  1.
        -12    1    3    3    0    0  0.24501804061E+02 -0.53867266400E+01  0.67635113207E+01  0.25982692538E+02  0.00000000000E+00 0.  1.
</event>
<event>
 7    1  0.2599124E-010  0.4778727E+02  0.7816164E-02  0.1312668E+00
        -11   -1    0    0    0    0  0.00000000000E+00  0.00000000000E+00  0.45593999997E+02  0.45594000000E+02  0.51100000000E-03 0.  1.
         11   -1    0    0    0    0 -0.00000000000E+00 -0.00000000000E+00 -0.45593999997E+02  0.45594000000E+02  0.51100000000E-03 0. -1.
    9900012    2    1    2    0    0  0.62333916279E+00 -0.39378160923E+02  0.18237192054E+02  0.47787270935E+02  0.19999999499E+02 0.  0.
         12    1    1    2    0    0 -0.62333916279E+00  0.39378160923E+02 -0.18237192054E+02  0.43400729065E+02  0.00000000000E+00 0. -1.
         11    1    3    3    0    0  0.41152406838E+01 -0.12374032732E+02  0.26714623256E+01  0.13311220949E+02  0.51100000000E-03 0. -1.
        -11    1    3    3    0    0 -0.83754092461E+00 -0.25836126597E+02  0.17292935420E+02  0.31100683723E+02  0.51100000000E-03 0.  1.
         12    1    3    3    0    0 -0.26543605964E+01 -0.11680015935E+01 -0.17272056921E+01  0.33753662618E+01  0.00000000000E+00 0. -1.
</event>
<event>
 7    1  0.2599124E-010  0.4778727E+02  0.7816164E-02  0.1312668E+00
        -11   -1    0    0    0    0  0.00000000000E+00  0.00000000000E+00  0.45593999997E+02  0.45594000000E+02  0.51100000000E-03 0. -1.
         11   -1    0    0    0    0 -0.00000000000E+00 -0.00000000000E+00 -0.45593999997E+02  0.45594000000E+02  0.51100000000E-03 0.  1.
    9900012    2    1    2    0    0 -0.58333230384E+01  0.35594363598E+02 -0.24137873203E+02  0.47787270740E+02  0.19999998611E+02 0.  0.
         12    1    1    2    0    0  0.58333230384E+01 -0.35594363598E+02  0.24137873203E+02  0.43400729260E+02  0.00000000000E+00 0. -1.
         11    1    3    3    0    0 -0.74514305855E+01  0.30797439462E+01 -0.64434995090E+01  0.10321207620E+02  0.51100000000E-03 0. -1.
        -11    1    3    3    0    0 -0.15452561278E+01  0.10485508789E+02 -0.75199911860E+01  0.12995536879E+02  0.51100000000E-03 0.  1.
         12    1    3    3    0    0  0.31633636749E+01  0.22029110862E+02 -0.10174382508E+02  0.24470526241E+02  0.00000000000E+00 0. -1.
</event>
<event>
 7    1  0.2599124E-010  0.4778727E+02  0.7816164E-02  0.1312668E+00
        -11   -1    0    0    0    0  0.00000000000E+00  0.00000000000E+00  0.45593999997E+02  0.45594000000E+02  0.51100000000E-03 0.  1.
         11   -1    0    0    0    0 -0.00000000000E+00 -0.00000000000E+00 -0.45593999997E+02  0.45594000000E+02  0.51100000000E-03 0. -1.
    9900012    2    1    2    0    0 -0.40456067309E+02  0.89562486404E+01  0.12911823260E+02  0.47787274756E+02  0.20000016922E+02 0.  0.
         12    1    1    2    0    0  0.40456067309E+02 -0.89562486404E+01 -0.12911823260E+02  0.43400725244E+02  0.00000000000E+00 0. -1.
         11    1    3    3    0    0 -0.13053443956E+01 -0.77514486358E+00  0.20638894568E+01  0.25621111416E+01  0.51100000000E-03 0. -1.
        -11    1    3    3    0    0 -0.39057238394E+02  0.90949715727E+01  0.62546174313E+01  0.40587025246E+02  0.51100000000E-03 0.  1.
        -12    1    3    3    0    0 -0.93484519606E-01  0.63642193125E+00  0.45933163719E+01  0.46381383682E+01  0.00000000000E+00 0.  1.
</event>
<event>
 7    1  0.2599124E-010  0.4778727E+02  0.7816164E-02  0.1312668E+00
        -11   -1    0    0    0    0  0.00000000000E+00  0.00000000000E+00  0.45593999997E+02  0.45594000000E+02  0.51100000000E-03 0.  1.
         11   -1    0    0    0    0 -0.00000000000E+00 -0.00000000000E+00 -0.45593999997E+02  0.45594000000E+02  0.51100000000E-03 0. -1.
    9900012    2    1    2    0    0  0.33549191431E+02  0.25974819688E+02  0.91314857626E+01  0.47787268028E+02  0.19999986245E+02 0.  0.
         12    1    1    2    0    0 -0.33549191431E+02 -0.25974819688E+02 -0.91314857626E+01  0.43400731972E+02  0.00000000000E+00 0. -1.
         11    1    3    3    0    0  0.24318473132E+02  0.22029906966E+02  0.62764016260E+01  0.33408055227E+02  0.51100000000E-03 0. -1.
        -11    1    3    3    0    0  0.67630540322E+01  0.72835759366E+01  0.21241435924E+01  0.10163727885E+02  0.51100000000E-03 0.  1.
        -12    1    3    3    0    0  0.24676642661E+01 -0.33386632144E+01  0.73094054415E+00  0.42154849150E+01  0.00000000000E+00 0.  1.
</event>
<event>
 7    1  0.2599124E-010  0.4778727E+02  0.7816164E-02  0.1312668E+00
        -11   -1    0    0    0    0  0.00000000000E+00  0.00000000000E+00  0.45593999997E+02  0.45594000000E+02  0.51100000000E-03 0.  1.
         11   -1    0    0    0    0 -0.00000000000E+00 -0.00000000000E+00 -0.45593999997E+02  0.45594000000E+02  0.51100000000E-03 0. -1.
    9900012    2    1    2    0    0 -0.43054298706E+02 -0.73086672788E+00  0.54236957000E+01  0.47787270994E+02  0.19999999769E+02 0.  0.
         12    1    1    2    0    0  0.43054298706E+02  0.73086672788E+00 -0.54236957000E+01  0.43400729006E+02  0.00000000000E+00 0. -1.
         11    1    3    3    0    0 -0.13126210268E+02 -0.88801761392E+01  0.19997508077E+01  0.15973538362E+02  0.51100000000E-03 0. -1.
        -11    1    3    3    0    0 -0.62993872052E+01  0.19981151389E+01 -0.17903900028E+01  0.68469146258E+01  0.51100000000E-03 0.  1.
        -12    1    3    3    0    0 -0.23628701233E+02  0.61511942723E+01  0.52143348951E+01  0.24966818006E+02  0.00000000000E+00 0.  1.
</event>
<event>
 7    1  0.2599124E-010  0.4778727E+02  0.7816164E-02  0.1312668E+00
        -11   -1    0    0    0    0  0.00000000000E+00  0.00000000000E+00  0.45593999997E+02  0.45594000000E+02  0.51100000000E-03 0.  1.
         11   -1    0    0    0    0 -0.00000000000E+00 -0.00000000000E+00 -0.45593999997E+02  0.45594000000E+02  0.51100000000E-03 0. -1.
    9900012    2    1    2    0    0  0.19854716921E+02 -0.34150066013E+02  0.17977397280E+02  0.47787267222E+02  0.19999982572E+02 0.  0.
         12    1    1    2    0    0 -0.19854716921E+02  0.34150066013E+02 -0.17977397280E+02  0.43400732778E+02  0.00000000000E+00 0. -1.
         11    1    3    3    0    0  0.11868927673E+00 -0.29457501061E+00  0.16340096838E+01  0.16645868824E+01  0.51100000000E-03 0. -1.
        -11    1    3    3    0    0  0.20651971002E+01 -0.21111740171E+02  0.98573602928E+01  0.23390984680E+02  0.51100000000E-03 0.  1.
        -12    1    3    3    0    0  0.17670830544E+02 -0.12743750832E+02  0.64860273035E+01  0.22731695659E+02  0.00000000000E+00 0.  1.
</event>
<event>
 7    1  0.2599124E-010  0.4778727E+02  0.7816164E-02  0.1312668E+00
        -11   -1    0    0    0    0  0.00000000000E+00  0.00000000000E+00  0.45593999997E+02  0.45594000000E+02  0.51100000000E-03 0.  1.
         11   -1    0    0    0    0 -0.00000000000E+00 -0.00000000000E+00 -0.45593999997E+02  0.45594000000E+02  0.51100000000E-03 0. -1.
    9900012    2    1    2    0    0 -0.24810663879E+02 -0.23053801791E+02  0.27139942774E+02  0.47787270595E+02  0.19999997949E+02 0.  0.
         12    1    1    2    0    0  0.24810663879E+02  0.23053801791E+02 -0.27139942774E+02  0.43400729405E+02  0.00000000000E+00 0. -1.
         11    1    3    3    0    0 -0.56150219552E+01 -0.58988578552E+01  0.38980859401E+01  0.90288465382E+01  0.51100000000E-03 0. -1.
        -11    1    3    3    0    0 -0.15843837074E+02 -0.10098471028E+02  0.58264690311E+01  0.19671147195E+02  0.51100000000E-03 0.  1.
         12    1    3    3    0    0 -0.33518048497E+01 -0.70564729073E+01  0.17415387803E+02  0.19087276861E+02  0.00000000000E+00 0. -1.
</event>
<event>
 7    1  0.2599124E-010  0.4778727E+02  0.7816164E-02  0.1312668E+00
        -11   -1    0    0    0    0  0.00000000000E+00  0.00000000000E+00  0.45593999997E+02  0.45594000000E+02  0.51100000000E-03 0.  1.
         11   -1    0    0    0    0 -0.00000000000E+00 -0.00000000000E+00 -0.45593999997E+02  0.45594000000E+02  0.51100000000E-03 0. -1.
    9900012    2    1    2    0    0 -0.98033053768E+01 -0.41302094232E+02  0.90363440158E+01  0.47787270773E+02  0.19999998763E+02 0.  0.
         12    1    1    2    0    0  0.98033053768E+01  0.41302094232E+02 -0.90363440158E+01  0.43400729227E+02  0.00000000000E+00 0. -1.
         11    1    3    3    0    0  0.26367471992E+01 -0.10817136270E+02  0.23475176989E+01  0.11378651611E+02  0.51100000000E-03 0. -1.
        -11    1    3    3    0    0 -0.23665547859E+01 -0.86040504328E+01  0.84057304674E+01  0.12259142317E+02  0.51100000000E-03 0.  1.
        -12    1    3    3    0    0 -0.10073497790E+02 -0.21880907529E+02 -0.17169041505E+01  0.24149476845E+02  0.00000000000E+00 0.  1.
</event>
<event>
 7    1  0.2599124E-010  0.4778727E+02  0.7816164E-02  0.1312668E+00
        -11   -1    0    0    0    0  0.00000000000E+00  0.00000000000E+00  0.45593999997E+02  0.45594000000E+02  0.51100000000E-03 0.  1.
         11   -1    0    0    0    0 -0.00000000000E+00 -0.00000000000E+00 -0.45593999997E+02  0.45594000000E+02  0.51100000000E-03 0. -1.
    9900012    2    1    2    0    0  0.11037335690E+02 -0.41763526850E+02 -0.41962322319E+01  0.47787270524E+02  0.19999997627E+02 0.  0.
         12    1    1    2    0    0 -0.11037335690E+02  0.41763526850E+02  0.41962322319E+01  0.43400729476E+02  0.00000000000E+00 0. -1.
         11    1    3    3    0    0  0.68020126308E+00 -0.24617033546E+01  0.32154655481E+01  0.41063214824E+01  0.51100000000E-03 0. -1.
        -11    1    3    3    0    0  0.54996550843E+01 -0.31224204328E+01  0.44907061144E+00  0.63401403834E+01  0.51100000000E-03 0.  1.
        -12    1    3    3    0    0  0.48574793426E+01 -0.36179403063E+02 -0.78607683915E+01  0.37340808658E+02  0.00000000000E+00 0.  1.
</event>
<event>
 7    1  0.2599124E-010  0.4778726E+02  0.7816164E-02  0.1312668E+00
        -11   -1    0    0    0    0  0.00000000000E+00  0.00000000000E+00  0.45593999997E+02  0.45594000000E+02  0.51100000000E-03 0.  1.
         11   -1    0    0    0    0 -0.00000000000E+00 -0.00000000000E+00 -0.45593999997E+02  0.45594000000E+02  0.51100000000E-03 0. -1.
    9900012    2    1    2    0    0  0.12268593406E+02 -0.42192840133E+01  0.41416223190E+02  0.47787259395E+02  0.19999946884E+02 0.  0.
         12    1    1    2    0    0 -0.12268593406E+02  0.42192840133E+01 -0.41416223190E+02  0.43400740605E+02  0.00000000000E+00 0. -1.
         11    1    3    3    0    0  0.62833293223E+01  0.14101599373E+01  0.86418290137E+01  0.10777290354E+02  0.51100000000E-03 0. -1.
        -11    1    3    3    0    0  0.10623871593E+02 -0.10564536301E+01  0.20058574279E+02  0.22722877112E+02  0.51100000000E-03 0.  1.
        -12    1    3    3    0    0 -0.46386075085E+01 -0.45729903206E+01  0.12715819898E+02  0.14287091928E+02  0.00000000000E+00 0.  1.
</event>
<event>
 7    1  0.2599124E-010  0.4778727E+02  0.7816164E-02  0.1312668E+00
        -11   -1    0    0    0    0  0.00000000000E+00  0.00000000000E+00  0.45593999997E+02  0.45594000000E+02  0.51100000000E-03 0.  1.
         11   -1    0    0    0    0 -0.00000000000E+00 -0.00000000000E+00 -0.45593999997E+02  0.45594000000E+02  0.51100000000E-03 0. -1.
    9900012    2    1    2    0    0 -0.12576129726E+02  0.36405496723E+02  0.20002605467E+02  0.47787268946E+02  0.19999990433E+02 0.  0.
         12    1    1    2    0    0  0.12576129726E+02 -0.36405496723E+02 -0.20002605467E+02  0.43400731054E+02  0.00000000000E+00 0. -1.
         11    1    3    3    0    0 -0.20593856822E+01  0.41422267158E+01  0.64795394690E+01  0.79613782440E+01  0.51100000000E-03 0. -1.
        -11    1    3    3    0    0 -0.48147629640E+01  0.15470155282E+02  0.14934416237E+02  0.22035072849E+02  0.51100000000E-03 0.  1.
         12    1    3    3    0    0 -0.57019810795E+01  0.16793114725E+02 -0.14113502386E+01  0.17790817853E+02  0.00000000000E+00 0. -1.
</event>
<event>
 7    1  0.2599124E-010  0.4778727E+02  0.7816164E-02  0.1312668E+00
        -11   -1    0    0    0    0  0.00000000000E+00  0.00000000000E+00  0.45593999997E+02  0.45594000000E+02  0.51100000000E-03 0.  1.
         11   -1    0    0    0    0 -0.00000000000E+00 -0.00000000000E+00 -0.45593999997E+02  0.45594000000E+02  0.51100000000E-03 0. -1.
    9900012    2    1    2    0    0  0.14374547886E+01  0.21857567098E+02  0.37467369187E+02  0.47787271095E+02  0.20000000230E+02 0.  0.
         12    1    1    2    0    0 -0.14374547886E+01 -0.21857567098E+02 -0.37467369187E+02  0.43400728905E+02  0.00000000000E+00 0. -1.
         11    1    3    3    0    0  0.35679435179E+01  0.11098318277E+02  0.21684652068E+02  0.24619647136E+02  0.51100000000E-03 0.  1.
        -11    1    3    3    0    0 -0.70464072328E+01  0.43376930255E+01  0.11025124427E+02  0.13784803392E+02  0.51100000000E-03 0. -1.
         12    1    3    3    0    0  0.49159185035E+01  0.64215557953E+01  0.47575926918E+01  0.93828205667E+01  0.00000000000E+00 0. -1.
</event>
<event>
 7    1  0.2599124E-010  0.4778726E+02  0.7816164E-02  0.1312668E+00
        -11   -1    0    0    0    0  0.00000000000E+00  0.00000000000E+00  0.45593999997E+02  0.45594000000E+02  0.51100000000E-03 0.  1.
         11   -1    0    0    0    0 -0.00000000000E+00 -0.00000000000E+00 -0.45593999997E+02  0.45594000000E+02  0.51100000000E-03 0. -1.
    9900012    2    1    2    0    0  0.19417082212E+01 -0.37023007353E+02  0.22564374004E+02  0.47787259471E+02  0.19999947231E+02 0.  0.
         12    1    1    2    0    0 -0.19417082212E+01  0.37023007353E+02 -0.22564374004E+02  0.43400740529E+02  0.00000000000E+00 0. -1.
         11    1    3    3    0    0  0.21088396102E+01 -0.20905058848E+01 -0.15386024417E+01  0.33443560054E+01  0.51100000000E-03 0. -1.
        -11    1    3    3    0    0 -0.19300558709E+01 -0.52024602495E+01 -0.81867016169E+00  0.56090043152E+01  0.51100000000E-03 0.  1.
        -12    1    3    3    0    0  0.17629244819E+01 -0.29730041219E+02  0.24921646607E+02  0.38833899150E+02  0.00000000000E+00 0.  1.
</event>
<event>
 7    1  0.2599124E-010  0.4778727E+02  0.7816164E-02  0.1312668E+00
        -11   -1    0    0    0    0  0.00000000000E+00  0.00000000000E+00  0.45593999997E+02  0.45594000000E+02  0.51100000000E-03 0.  1.
         11   -1    0    0    0    0 -0.00000000000E+00 -0.00000000000E+00 -0.45593999997E+02  0.45594000000E+02  0.51100000000E-03 0. -1.
    9900012    2    1    2    0    0  0.30913280017E+02 -0.10573721903E+02  0.28569015143E+02  0.47787273018E+02  0.20000009000E+02 0.  0.
         12    1    1    2    0    0 -0.30913280017E+02  0.10573721903E+02 -0.28569015143E+02  0.43400726982E+02  0.00000000000E+00 0. -1.
         11    1    3    3    0    0  0.39061888889E+01 -0.67798762856E+01  0.95438304746E+01  0.12341383005E+02  0.51100000000E-03 0. -1.
        -11    1    3    3    0    0  0.43259005062E+01 -0.15478009994E+01  0.98639835972E+01  0.10881510731E+02  0.51100000000E-03 0.  1.
        -12    1    3    3    0    0  0.22681190622E+02 -0.22460446181E+01  0.91612010708E+01  0.24564379282E+02  0.00000000000E+00 0.  1.
</event>
<event>
 7    1  0.2599124E-010  0.4778727E+02  0.7816164E-02  0.1312668E+00
        -11   -1    0    0    0    0  0.00000000000E+00  0.00000000000E+00  0.45593999997E+02  0.45594000000E+02  0.51100000000E-03 0. -1.
         11   -1    0    0    0    0 -0.00000000000E+00 -0.00000000000E+00 -0.45593999997E+02  0.45594000000E+02  0.51100000000E-03 0.  1.
    9900012    2    1    2    0    0 -0.61248407041E+01  0.25272442727E+02 -0.34747850390E+02  0.47787272567E+02  0.20000006940E+02 0.  0.
         12    1    1    2    0    0  0.61248407041E+01 -0.25272442727E+02  0.34747850390E+02  0.43400727433E+02  0.00000000000E+00 0. -1.
         11    1    3    3    0    0 -0.12158106307E+01  0.47375921686E+00  0.56779244390E+00  0.14230361224E+01  0.51100000000E-03 0. -1.
        -11    1    3    3    0    0 -0.59849608263E+01  0.14629607341E+02 -0.31868322090E+02  0.35572954897E+02  0.51100000000E-03 0.  1.
         12    1    3    3    0    0  0.10759307528E+01  0.10169076169E+02 -0.34473207442E+01  0.10791281547E+02  0.00000000000E+00 0. -1.
</event>
<event>
 7    1  0.2599124E-010  0.4778728E+02  0.7816164E-02  0.1312668E+00
        -11   -1    0    0    0    0  0.00000000000E+00  0.00000000000E+00  0.45593999997E+02  0.45594000000E+02  0.51100000000E-03 0.  1.
         11   -1    0    0    0    0 -0.00000000000E+00 -0.00000000000E+00 -0.45593999997E+02  0.45594000000E+02  0.51100000000E-03 0. -1.
    9900012    2    1    2    0    0  0.17443290775E+02  0.38166484598E+02  0.11075802587E+02  0.47787281774E+02  0.20000048920E+02 0.  0.
         12    1    1    2    0    0 -0.17443290775E+02 -0.38166484598E+02 -0.11075802587E+02  0.43400718226E+02  0.00000000000E+00 0. -1.
         11    1    3    3    0    0  0.15395700315E+02  0.19485381255E+02  0.23380585557E+01  0.24943419752E+02  0.51100000000E-03 0. -1.
        -11    1    3    3    0    0  0.33639589159E+00 -0.55678100733E+00 -0.10163476762E+01  0.12067021778E+01  0.51100000000E-03 0.  1.
        -12    1    3    3    0    0  0.17111945685E+01  0.19237884350E+02  0.97540917071E+01  0.21637159844E+02  0.00000000000E+00 0.  1.
</event>
<event>
 7    1  0.2599124E-010  0.4778728E+02  0.7816164E-02  0.1312668E+00
        -11   -1    0    0    0    0  0.00000000000E+00  0.00000000000E+00  0.45593999997E+02  0.45594000000E+02  0.51100000000E-03 0.  1.
         11   -1    0    0    0    0 -0.00000000000E+00 -0.00000000000E+00 -0.45593999997E+02  0.45594000000E+02  0.51100000000E-03 0. -1.
    9900012    2    1    2    0    0 -0.41581768469E+02  0.12400301804E+02  0.90079409770E+00  0.47787281298E+02  0.20000046748E+02 0.  0.
         12    1    1    2    0    0  0.41581768469E+02 -0.12400301804E+02 -0.90079409770E+00  0.43400718702E+02  0.00000000000E+00 0. -1.
         11    1    3    3    0    0 -0.19661443691E+02  0.10246765006E+02 -0.15606516343E+01  0.22226205139E+02  0.51100000000E-03 0.  1.
        -11    1    3    3    0    0 -0.67141286293E-01  0.30879965015E+01  0.20064040783E+01  0.36831899125E+01  0.51100000000E-03 0. -1.
        -12    1    3    3    0    0 -0.21853183493E+02 -0.93445970347E+00  0.45504165374E+00  0.21877886246E+02  0.00000000000E+00 0.  1.
</event>
<event>
 7    1  0.2599124E-010  0.4778729E+02  0.7816164E-02  0.1312668E+00
        -11   -1    0    0    0    0  0.00000000000E+00  0.00000000000E+00  0.45593999997E+02  0.45594000000E+02  0.51100000000E-03 0.  1.
         11   -1    0    0    0    0 -0.00000000000E+00 -0.00000000000E+00 -0.45593999997E+02  0.45594000000E+02  0.51100000000E-03 0. -1.
    9900012    2    1    2    0    0  0.11051211591E+02  0.39815734034E+02  0.13274037904E+02  0.47787285299E+02  0.20000064993E+02 0.  0.
         12    1    1    2    0    0 -0.11051211591E+02 -0.39815734034E+02 -0.13274037904E+02  0.43400714701E+02  0.00000000000E+00 0. -1.
         11    1    3    3    0    0 -0.89083586533E+00 -0.34012623243E+00  0.18683059570E+01  0.20975799872E+01  0.51100000000E-03 0. -1.
        -11    1    3    3    0    0  0.16035964377E+01  0.23595166297E+02  0.11195706197E+02  0.26165764495E+02  0.51100000000E-03 0.  1.
         12    1    3    3    0    0  0.10338451018E+02  0.16560693969E+02  0.21002575028E+00  0.19523940817E+02  0.00000000000E+00 0. -1.
</event>
<event>
 7    1  0.2599124E-010  0.4778727E+02  0.7816164E-02  0.1312668E+00
        -11   -1    0    0    0    0  0.00000000000E+00  0.00000000000E+00  0.45593999997E+02  0.45594000000E+02  0.51100000000E-03 0.  1.
         11   -1    0    0    0    0 -0.00000000000E+00 -0.00000000000E+00 -0.45593999997E+02  0.45594000000E+02  0.51100000000E-03 0. -1.
    9900012    2    1    2    0    0  0.14380953320E+02 -0.40649989355E+02 -0.49385784101E+01  0.47787274088E+02  0.20000013877E+02 0.  0.
         12    1    1    2    0    0 -0.14380953320E+02  0.40649989355E+02  0.49385784101E+01  0.43400725912E+02  0.00000000000E+00 0. -1.
         11    1    3    3    0    0  0.32192245385E+01 -0.42689392201E+01  0.38059733993E+01  0.65629781709E+01  0.51100000000E-03 0. -1.
        -11    1    3    3    0    0  0.59459960790E+01 -0.13631308161E+02  0.28826679697E+01  0.15148505089E+02  0.51100000000E-03 0.  1.
         12    1    3    3    0    0  0.52157327028E+01 -0.22749741974E+02 -0.11627219779E+02  0.26075790828E+02  0.00000000000E+00 0. -1.
</event>
<event>
 7    1  0.2599124E-010  0.4778729E+02  0.7816164E-02  0.1312668E+00
        -11   -1    0    0    0    0  0.00000000000E+00  0.00000000000E+00  0.45593999997E+02  0.45594000000E+02  0.51100000000E-03 0.  1.
         11   -1    0    0    0    0 -0.00000000000E+00 -0.00000000000E+00 -0.45593999997E+02  0.45594000000E+02  0.51100000000E-03 0. -1.
    9900012    2    1    2    0    0  0.33537671389E+02  0.13951827794E+02  0.23752740968E+02  0.47787290277E+02  0.20000087689E+02 0.  0.
         12    1    1    2    0    0 -0.33537671389E+02 -0.13951827794E+02 -0.23752740968E+02  0.43400709723E+02  0.00000000000E+00 0. -1.
         11    1    3    3    0    0  0.85591638337E+01  0.44143850434E+01  0.28173340169E+01  0.10034114414E+02  0.51100000000E-03 0. -1.
        -11    1    3    3    0    0  0.63439491681E+01 -0.43975940902E+01  0.26563344591E+01  0.81633717206E+01  0.51100000000E-03 0.  1.
         12    1    3    3    0    0  0.18634558387E+02  0.13935036841E+02  0.18279072492E+02  0.29589804143E+02  0.00000000000E+00 0. -1.
</event>
<event>
 7    1  0.2599124E-010  0.4778726E+02  0.7816164E-02  0.1312668E+00
        -11   -1    0    0    0    0  0.00000000000E+00  0.00000000000E+00  0.45593999997E+02  0.45594000000E+02  0.51100000000E-03 0.  1.
         11   -1    0    0    0    0 -0.00000000000E+00 -0.00000000000E+00 -0.45593999997E+02  0.45594000000E+02  0.51100000000E-03 0. -1.
    9900012    2    1    2    0    0 -0.43255904375E+01 -0.57735792773E+01  0.42796954595E+02  0.47787259535E+02  0.19999947522E+02 0.  0.
         12    1    1    2    0    0  0.43255904375E+01  0.57735792773E+01 -0.42796954595E+02  0.43400740465E+02  0.00000000000E+00 0. -1.
         11    1    3    3    0    0  0.43278663292E+01  0.16747528145E+01  0.96525753260E+01  0.10710155678E+02  0.51100000000E-03 0. -1.
        -11    1    3    3    0    0 -0.26097257712E+01 -0.34250515804E+01  0.14223810565E+01  0.45348445465E+01  0.51100000000E-03 0.  1.
        -12    1    3    3    0    0 -0.60437309954E+01 -0.40232805114E+01  0.31721998213E+02  0.32542259311E+02  0.00000000000E+00 0.  1.
</event>
<event>
 7    1  0.2599124E-010  0.4778727E+02  0.7816164E-02  0.1312668E+00
        -11   -1    0    0    0    0  0.00000000000E+00  0.00000000000E+00  0.45593999997E+02  0.45594000000E+02  0.51100000000E-03 0. -1.
         11   -1    0    0    0    0 -0.00000000000E+00 -0.00000000000E+00 -0.45593999997E+02  0.45594000000E+02  0.51100000000E-03 0.  1.
    9900012    2    1    2    0    0  0.79478717543E+01 -0.47091254352E+01 -0.42406114518E+02  0.47787273321E+02  0.20000010379E+02 0.  0.
         12    1    1    2    0    0 -0.79478717543E+01  0.47091254352E+01  0.42406114518E+02  0.43400726679E+02  0.00000000000E+00 0. -1.
         11    1    3    3    0    0  0.19333546491E+01  0.13152809970E+01  0.94353738402E+00  0.25215248078E+01  0.51100000000E-03 0. -1.
        -11    1    3    3    0    0 -0.14309137252E+01 -0.31550970494E+01 -0.49254538003E+01  0.60218142516E+01  0.51100000000E-03 0.  1.
        -12    1    3    3    0    0  0.74454308304E+01 -0.28693093828E+01 -0.38424198101E+02  0.39243934261E+02  0.00000000000E+00 0.  1.
</event>
<event>
 7    1  0.2599124E-010  0.4778727E+02  0.7816164E-02  0.1312668E+00
        -11   -1    0    0    0    0  0.00000000000E+00  0.00000000000E+00  0.45593999997E+02  0.45594000000E+02  0.51100000000E-03 0. -1.
         11   -1    0    0    0    0 -0.00000000000E+00 -0.00000000000E+00 -0.45593999997E+02  0.45594000000E+02  0.51100000000E-03 0.  1.
    9900012    2    1    2    0    0 -0.24006915954E+02  0.35773242528E+02  0.52504042726E+01  0.47787266830E+02  0.19999980787E+02 0.  0.
         12    1    1    2    0    0  0.24006915954E+02 -0.35773242528E+02 -0.52504042726E+01  0.43400733170E+02  0.00000000000E+00 0. -1.
         11    1    3    3    0    0 -0.50539848448E+01  0.11558242276E+02  0.52297629735E+01  0.13655993129E+02  0.51100000000E-03 0. -1.
        -11    1    3    3    0    0 -0.11449643720E+02  0.23676324657E+02  0.19298141643E+01  0.26370189107E+02  0.51100000000E-03 0.  1.
        -12    1    3    3    0    0 -0.75032873896E+01  0.53867559525E+00 -0.19091728653E+01  0.77610845942E+01  0.00000000000E+00 0.  1.
</event>
<event>
 7    1  0.2599124E-010  0.4778727E+02  0.7816164E-02  0.1312668E+00
        -11   -1    0    0    0    0  0.00000000000E+00  0.00000000000E+00  0.45593999997E+02  0.45594000000E+02  0.51100000000E-03 0.  1.
         11   -1    0    0    0    0 -0.00000000000E+00 -0.00000000000E+00 -0.45593999997E+02  0.45594000000E+02  0.51100000000E-03 0. -1.
    9900012    2    1    2    0    0  0.27735667637E+02  0.33359171864E+02 -0.12335850280E+01  0.47787270298E+02  0.19999996595E+02 0.  0.
         12    1    1    2    0    0 -0.27735667637E+02 -0.33359171864E+02  0.12335850280E+01  0.43400729702E+02  0.00000000000E+00 0. -1.
         11    1    3    3    0    0  0.62175258628E+01  0.42514176770E+01 -0.29899256116E+01  0.81038161100E+01  0.51100000000E-03 0. -1.
        -11    1    3    3    0    0  0.74990823281E+01  0.48083515546E+01  0.67658021903E+01  0.11186266579E+02  0.51100000000E-03 0.  1.
        -12    1    3    3    0    0  0.14019059446E+02  0.24299402632E+02 -0.50094616066E+01  0.28497187609E+02  0.00000000000E+00 0.  1.
</event>
<event>
 7    1  0.2599124E-010  0.4778727E+02  0.7816164E-02  0.1312668E+00
        -11   -1    0    0    0    0  0.00000000000E+00  0.00000000000E+00  0.45593999997E+02  0.45594000000E+02  0.51100000000E-03 0. -1.
         11   -1    0    0    0    0 -0.00000000000E+00 -0.00000000000E+00 -0.45593999997E+02  0.45594000000E+02  0.51100000000E-03 0.  1.
    9900012    2    1    2    0    0 -0.14042386242E+02  0.40414645618E+02 -0.72863746499E+01  0.47787269046E+02  0.19999990888E+02 0.  0.
         12    1    1    2    0    0  0.14042386242E+02 -0.40414645618E+02  0.72863746499E+01  0.43400730954E+02  0.00000000000E+00 0. -1.
         11    1    3    3    0    0 -0.30732648853E+01  0.88622449151E+01 -0.57511285432E+01  0.11002718835E+02  0.51100000000E-03 0. -1.
        -11    1    3    3    0    0 -0.13705209609E+02  0.31088994905E+02 -0.13287115072E+01  0.34001821262E+02  0.51100000000E-03 0.  1.
         12    1    3    3    0    0  0.27360882524E+01  0.46340579840E+00 -0.20653459954E+00  0.27827289483E+01  0.00000000000E+00 0. -1.
</event>
<event>
 7    1  0.2599124E-010  0.4778727E+02  0.7816164E-02  0.1312668E+00
        -11   -1    0    0    0    0  0.00000000000E+00  0.00000000000E+00  0.45593999997E+02  0.45594000000E+02  0.51100000000E-03 0.  1.
         11   -1    0    0    0    0 -0.00000000000E+00 -0.00000000000E+00 -0.45593999997E+02  0.45594000000E+02  0.51100000000E-03 0. -1.
    9900012    2    1    2    0    0  0.38104857639E+02  0.20337486313E+01  0.20676242558E+02  0.47787270565E+02  0.19999997815E+02 0.  0.
         12    1    1    2    0    0 -0.38104857639E+02 -0.20337486313E+01 -0.20676242558E+02  0.43400729435E+02  0.00000000000E+00 0. -1.
         11    1    3    3    0    0  0.11504960487E+02 -0.36266109515E+01  0.10316598096E+02  0.15872889445E+02  0.51100000000E-03 0.  1.
        -11    1    3    3    0    0  0.20332637988E+02 -0.17258396898E+01  0.58395648432E+01  0.21224872390E+02  0.51100000000E-03 0. -1.
         12    1    3    3    0    0  0.62672591636E+01  0.73861992725E+01  0.45200796192E+01  0.10689508730E+02  0.00000000000E+00 0. -1.
</event>
<event>
 7    1  0.2599124E-010  0.4778727E+02  0.7816164E-02  0.1312668E+00
        -11   -1    0    0    0    0  0.00000000000E+00  0.00000000000E+00  0.45593999997E+02  0.45594000000E+02  0.51100000000E-03 0. -1.
         11   -1    0    0    0    0 -0.00000000000E+00 -0.00000000000E+00 -0.45593999997E+02  0.45594000000E+02  0.51100000000E-03 0.  1.
    9900012    2    1    2    0    0 -0.32748110883E+02  0.62946361402E+01  0.27777007500E+02  0.47787270096E+02  0.19999995676E+02 0.  0.
         12    1    1    2    0    0  0.32748110883E+02 -0.62946361402E+01 -0.27777007500E+02  0.43400729904E+02  0.00000000000E+00 0. -1.
         11    1    3    3    0    0 -0.80866694570E+01 -0.43181604496E+01  0.32070184987E+01  0.97121419104E+01  0.51100000000E-03 0. -1.
        -11    1    3    3    0    0 -0.74400555161E+01  0.55730926324E+01  0.24904019048E+01  0.96237149522E+01  0.51100000000E-03 0.  1.
         12    1    3    3    0    0 -0.17221385910E+02  0.50397039574E+01  0.22079587096E+02  0.28451413234E+02  0.00000000000E+00 0. -1.
</event>
<event>
 7    1  0.2599124E-010  0.4778727E+02  0.7816164E-02  0.1312668E+00
        -11   -1    0    0    0    0  0.00000000000E+00  0.00000000000E+00  0.45593999997E+02  0.45594000000E+02  0.51100000000E-03 0.  1.
         11   -1    0    0    0    0 -0.00000000000E+00 -0.00000000000E+00 -0.45593999997E+02  0.45594000000E+02  0.51100000000E-03 0. -1.
    9900012    2    1    2    0    0 -0.40837055347E+02  0.13969842482E+02 -0.45608719834E+01  0.47787272568E+02  0.20000006945E+02 0.  0.
         12    1    1    2    0    0  0.40837055347E+02 -0.13969842482E+02  0.45608719834E+01  0.43400727432E+02  0.00000000000E+00 0. -1.
         11    1    3    3    0    0 -0.82946537829E+01 -0.16085176782E+01 -0.46066533476E+00  0.84617269697E+01  0.51100000000E-03 0. -1.
        -11    1    3    3    0    0 -0.25208905788E+02  0.12674283105E+02  0.34265128288E+01  0.28423007823E+02  0.51100000000E-03 0.  1.
         12    1    3    3    0    0 -0.73334957760E+01  0.29040770548E+01 -0.75267194775E+01  0.10902537775E+02  0.00000000000E+00 0. -1.
</event>
<event>
 7    1  0.2599124E-010  0.4778724E+02  0.7816164E-02  0.1312668E+00
        -11   -1    0    0    0    0  0.00000000000E+00  0.00000000000E+00  0.45593999997E+02  0.45594000000E+02  0.51100000000E-03 0.  1.
         11   -1    0    0    0    0 -0.00000000000E+00 -0.00000000000E+00 -0.45593999997E+02  0.45594000000E+02  0.51100000000E-03 0. -1.
    9900012    2    1    2    0    0 -0.38596946853E+00  0.43274526337E+02  0.32852359897E+01  0.47787235287E+02  0.19999836968E+02 0.  0.
         12    1    1    2    0    0  0.38596946853E+00 -0.43274526337E+02 -0.32852359897E+01  0.43400764713E+02  0.00000000000E+00 0. -1.
         11    1    3    3    0    0 -0.62497207290E+00  0.94203668012E+01  0.20668344618E+01  0.96646627316E+01  0.51100000000E-03 0. -1.
        -11    1    3    3    0    0  0.50651801010E+01  0.30932384360E+02  0.43903326691E+01  0.31650331323E+02  0.51100000000E-03 0.  1.
         12    1    3    3    0    0 -0.48261774967E+01  0.29217751763E+01 -0.31719311412E+01  0.64722412327E+01  0.00000000000E+00 0. -1.
</event>
<event>
 7    1  0.2599124E-010  0.4778727E+02  0.7816164E-02  0.1312668E+00
        -11   -1    0    0    0    0  0.00000000000E+00  0.00000000000E+00  0.45593999997E+02  0.45594000000E+02  0.51100000000E-03 0. -1.
         11   -1    0    0    0    0 -0.00000000000E+00 -0.00000000000E+00 -0.45593999997E+02  0.45594000000E+02  0.51100000000E-03 0.  1.
    9900012    2    1    2    0    0 -0.12242789206E+02 -0.41631554100E+02 -0.74227399499E+00  0.47787272414E+02  0.20000006244E+02 0.  0.
         12    1    1    2    0    0  0.12242789206E+02  0.41631554100E+02  0.74227399499E+00  0.43400727586E+02  0.00000000000E+00 0. -1.
         11    1    3    3    0    0  0.16573994966E+01 -0.14048676487E+02  0.12642952944E+01  0.14202490168E+02  0.51100000000E-03 0. -1.
        -11    1    3    3    0    0 -0.29752977875E+01 -0.21599416031E-01  0.21172617599E+01  0.36518024427E+01  0.51100000000E-03 0.  1.
        -12    1    3    3    0    0 -0.10924890915E+02 -0.27561278197E+02 -0.41238310493E+01  0.29932979803E+02  0.00000000000E+00 0.  1.
</event>
<event>
 7    1  0.2599124E-010  0.4778727E+02  0.7816164E-02  0.1312668E+00
        -11   -1    0    0    0    0  0.00000000000E+00  0.00000000000E+00  0.45593999997E+02  0.45594000000E+02  0.51100000000E-03 0.  1.
         11   -1    0    0    0    0 -0.00000000000E+00 -0.00000000000E+00 -0.45593999997E+02  0.45594000000E+02  0.51100000000E-03 0. -1.
    9900012    2    1    2    0    0 -0.82246692591E+01  0.42814737603E+01  0.42398667983E+02  0.47787271335E+02  0.20000001323E+02 0.  0.
         12    1    1    2    0    0  0.82246692591E+01 -0.42814737603E+01 -0.42398667983E+02  0.43400728665E+02  0.00000000000E+00 0. -1.
         11    1    3    3    0    0  0.28957961463E+01 -0.31353758419E+00  0.35536577366E+01  0.45948258626E+01  0.51100000000E-03 0. -1.
        -11    1    3    3    0    0 -0.27574046638E+01 -0.38202781464E+00  0.29724934105E+02  0.29854998469E+02  0.51100000000E-03 0.  1.
         12    1    3    3    0    0 -0.83630607415E+01  0.49770391591E+01  0.91200761408E+01  0.13337447004E+02  0.00000000000E+00 0. -1.
</event>
<event>
 7    1  0.2599124E-010  0.4778727E+02  0.7816164E-02  0.1312668E+00
        -11   -1    0    0    0    0  0.00000000000E+00  0.00000000000E+00  0.45593999997E+02  0.45594000000E+02  0.51100000000E-03 0. -1.
         11   -1    0    0    0    0 -0.00000000000E+00 -0.00000000000E+00 -0.45593999997E+02  0.45594000000E+02  0.51100000000E-03 0.  1.
    9900012    2    1    2    0    0 -0.22659494823E+02 -0.18819023890E+02 -0.31874987326E+02  0.47787272094E+02  0.20000004784E+02 0.  0.
         12    1    1    2    0    0  0.22659494823E+02  0.18819023890E+02  0.31874987326E+02  0.43400727906E+02  0.00000000000E+00 0. -1.
         11    1    3    3    0    0 -0.21380916580E+02 -0.71643295628E+01 -0.24225211897E+02  0.33095801903E+02  0.51100000000E-03 0. -1.
        -11    1    3    3    0    0 -0.26016210145E+01 -0.40715054786E+01 -0.26229607654E+01  0.54977733860E+01  0.51100000000E-03 0.  1.
         12    1    3    3    0    0  0.13230427711E+01 -0.75831888483E+01 -0.50268146627E+01  0.91936968046E+01  0.00000000000E+00 0. -1.
</event>
<event>
 7    1  0.2599124E-010  0.4778727E+02  0.7816164E-02  0.1312668E+00
        -11   -1    0    0    0    0  0.00000000000E+00  0.00000000000E+00  0.45593999997E+02  0.45594000000E+02  0.51100000000E-03 0.  1.
         11   -1    0    0    0    0 -0.00000000000E+00 -0.00000000000E+00 -0.45593999997E+02  0.45594000000E+02  0.51100000000E-03 0. -1.
    9900012    2    1    2    0    0 -0.32402372470E+02  0.62123316675E+01 -0.28197808625E+02  0.47787271692E+02  0.20000002951E+02 0.  0.
         12    1    1    2    0    0  0.32402372470E+02 -0.62123316675E+01  0.28197808625E+02  0.43400728308E+02  0.00000000000E+00 0. -1.
         11    1    3    3    0    0 -0.23563817948E+01  0.13053783073E+01  0.22665625877E+00  0.27033166683E+01  0.51100000000E-03 0. -1.
        -11    1    3    3    0    0 -0.15166899641E+02  0.46003092189E+01 -0.37787413857E+01  0.16293451947E+02  0.51100000000E-03 0.  1.
         12    1    3    3    0    0 -0.14879091034E+02  0.30664414126E+00 -0.24645723498E+02  0.28790503076E+02  0.00000000000E+00 0. -1.
</event>
<event>
 7    1  0.2599124E-010  0.4778728E+02  0.7816164E-02  0.1312668E+00
        -11   -1    0    0    0    0  0.00000000000E+00  0.00000000000E+00  0.45593999997E+02  0.45594000000E+02  0.51100000000E-03 0. -1.
         11   -1    0    0    0    0 -0.00000000000E+00 -0.00000000000E+00 -0.45593999997E+02  0.45594000000E+02  0.51100000000E-03 0.  1.
    9900012    2    1    2    0    0 -0.35883592790E+02  0.20320451405E+02 -0.13530328685E+02  0.47787276837E+02  0.20000026409E+02 0.  0.
         12    1    1    2    0    0  0.35883592790E+02 -0.20320451405E+02  0.13530328685E+02  0.43400723163E+02  0.00000000000E+00 0. -1.
         11    1    3    3    0    0  0.41329064313E+00  0.21001557349E+01 -0.66334642653E-01  0.21414630075E+01  0.51100000000E-03 0. -1.
        -11    1    3    3    0    0 -0.28903073275E+02  0.65171575480E+01 -0.10882466789E+02  0.31564047125E+02  0.51100000000E-03 0.  1.
        -12    1    3    3    0    0 -0.73938101582E+01  0.11703138122E+02 -0.25815272535E+01  0.14081766704E+02  0.00000000000E+00 0.  1.
</event>
<event>
 7    1  0.2599124E-010  0.4778727E+02  0.7816164E-02  0.1312668E+00
        -11   -1    0    0    0    0  0.00000000000E+00  0.00000000000E+00  0.45593999997E+02  0.45594000000E+02  0.51100000000E-03 0.  1.
         11   -1    0    0    0    0 -0.00000000000E+00 -0.00000000000E+00 -0.45593999997E+02  0.45594000000E+02  0.51100000000E-03 0. -1.
    9900012    2    1    2    0    0 -0.15529799634E+02  0.13379848420E+02  0.38254782840E+02  0.47787269239E+02  0.19999991768E+02 0.  0.
         12    1    1    2    0    0  0.15529799634E+02 -0.13379848420E+02 -0.38254782840E+02  0.43400730761E+02  0.00000000000E+00 0. -1.
         11    1    3    3    0    0  0.12101628716E+01  0.38949929452E+00  0.79092816400E+01  0.80108014704E+01  0.51100000000E-03 0. -1.
        -11    1    3    3    0    0 -0.97072752499E+01  0.45009215982E+01  0.25653413427E+02  0.27795451224E+02  0.51100000000E-03 0.  1.
         12    1    3    3    0    0 -0.70326872562E+01  0.84894275269E+01  0.46920877736E+01  0.11981016545E+02  0.00000000000E+00 0. -1.
</event>
<event>
 7    1  0.2599124E-010  0.4778727E+02  0.7816164E-02  0.1312668E+00
        -11   -1    0    0    0    0  0.00000000000E+00  0.00000000000E+00  0.45593999997E+02  0.45594000000E+02  0.51100000000E-03 0.  1.
         11   -1    0    0    0    0 -0.00000000000E+00 -0.00000000000E+00 -0.45593999997E+02  0.45594000000E+02  0.51100000000E-03 0. -1.
    9900012    2    1    2    0    0  0.81651588158E+01 -0.29214509709E+02  0.31039743358E+02  0.47787273465E+02  0.20000011036E+02 0.  0.
         12    1    1    2    0    0 -0.81651588158E+01  0.29214509709E+02 -0.31039743358E+02  0.43400726535E+02  0.00000000000E+00 0. -1.
         11    1    3    3    0    0  0.46774100009E+01 -0.35752714054E+01  0.83117400041E+01  0.10185565870E+02  0.51100000000E-03 0.  1.
        -11    1    3    3    0    0  0.83263688862E+01 -0.22624219082E+02  0.16847249045E+02  0.29411111991E+02  0.51100000000E-03 0. -1.
         12    1    3    3    0    0 -0.48386200713E+01 -0.30150192215E+01  0.58807543087E+01  0.81905956035E+01  0.00000000000E+00 0. -1.
</event>
<event>
 7    1  0.2599124E-010  0.4778728E+02  0.7816164E-02  0.1312668E+00
        -11   -1    0    0    0    0  0.00000000000E+00  0.00000000000E+00  0.45593999997E+02  0.45594000000E+02  0.51100000000E-03 0.  1.
         11   -1    0    0    0    0 -0.00000000000E+00 -0.00000000000E+00 -0.45593999997E+02  0.45594000000E+02  0.51100000000E-03 0. -1.
    9900012    2    1    2    0    0 -0.58609422200E+01 -0.30187014912E+02  0.30627053413E+02  0.47787275193E+02  0.20000018917E+02 0.  0.
         12    1    1    2    0    0  0.58609422200E+01  0.30187014912E+02 -0.30627053413E+02  0.43400724807E+02  0.00000000000E+00 0. -1.
         11    1    3    3    0    0 -0.55294498607E+01 -0.15860153014E+02  0.56630424225E+01  0.17725386290E+02  0.51100000000E-03 0. -1.
        -11    1    3    3    0    0 -0.13879553884E+01 -0.12082455760E+02  0.12835336023E+02  0.17682138118E+02  0.51100000000E-03 0.  1.
         12    1    3    3    0    0  0.10564630290E+01 -0.22444061381E+01  0.12128674968E+02  0.12379750786E+02  0.00000000000E+00 0. -1.
</event>
<event>
 7    1  0.2599124E-010  0.4778727E+02  0.7816164E-02  0.1312668E+00
        -11   -1    0    0    0    0  0.00000000000E+00  0.00000000000E+00  0.45593999997E+02  0.45594000000E+02  0.51100000000E-03 0. -1.
         11   -1    0    0    0    0 -0.00000000000E+00 -0.00000000000E+00 -0.45593999997E+02  0.45594000000E+02  0.51100000000E-03 0.  1.
    9900012    2    1    2    0    0 -0.29739920401E+02  0.70803719145E+01 -0.30806311156E+02  0.47787270294E+02  0.19999996579E+02 0.  0.
         12    1    1    2    0    0  0.29739920401E+02 -0.70803719145E+01  0.30806311156E+02  0.43400729706E+02  0.00000000000E+00 0. -1.
         11    1    3    3    0    0 -0.62578905733E+00  0.68247693299E+00  0.21099416967E+01  0.23041790149E+01  0.51100000000E-03 0. -1.
        -11    1    3    3    0    0 -0.12317880962E+02  0.31571508932E+01 -0.72466646298E+01  0.14635981063E+02  0.51100000000E-03 0.  1.
         12    1    3    3    0    0 -0.16796250382E+02  0.32407440883E+01 -0.25669588223E+02  0.30847110216E+02  0.00000000000E+00 0. -1.
</event>
<event>
 7    1  0.2599124E-010  0.4778727E+02  0.7816164E-02  0.1312668E+00
        -11   -1    0    0    0    0  0.00000000000E+00  0.00000000000E+00  0.45593999997E+02  0.45594000000E+02  0.51100000000E-03 0.  1.
         11   -1    0    0    0    0 -0.00000000000E+00 -0.00000000000E+00 -0.45593999997E+02  0.45594000000E+02  0.51100000000E-03 0. -1.
    9900012    2    1    2    0    0 -0.87630583960E+01 -0.71736800022E+00  0.42500797897E+02  0.47787266928E+02  0.19999981231E+02 0.  0.
         12    1    1    2    0    0  0.87630583960E+01  0.71736800022E+00 -0.42500797897E+02  0.43400733072E+02  0.00000000000E+00 0. -1.
         11    1    3    3    0    0 -0.10410054663E+01  0.14933132405E+01 -0.40286693773E+00  0.18643977167E+01  0.51100000000E-03 0. -1.
        -11    1    3    3    0    0 -0.22284597357E+01  0.52445651031E+01  0.26309549417E+02  0.26919581844E+02  0.51100000000E-03 0.  1.
        -12    1    3    3    0    0 -0.54935931939E+01 -0.74552463438E+01  0.16594115418E+02  0.19003287367E+02  0.00000000000E+00 0.  1.
</event>
<event>
 7    1  0.2599124E-010  0.4778726E+02  0.7816164E-02  0.1312668E+00
        -11   -1    0    0    0    0  0.00000000000E+00  0.00000000000E+00  0.45593999997E+02  0.45594000000E+02  0.51100000000E-03 0.  1.
         11   -1    0    0    0    0 -0.00000000000E+00 -0.00000000000E+00 -0.45593999997E+02  0.45594000000E+02  0.51100000000E-03 0. -1.
    9900012    2    1    2    0    0 -0.21681197104E+02  0.36617354557E+02 -0.85275649804E+01  0.47787258910E+02  0.19999944675E+02 0.  0.
         12    1    1    2    0    0  0.21681197104E+02 -0.36617354557E+02  0.85275649804E+01  0.43400741090E+02  0.00000000000E+00 0. -1.
         11    1    3    3    0    0 -0.30563876353E+01  0.11717015726E+02 -0.10262474117E+02  0.15872880588E+02  0.51100000000E-03 0. -1.
        -11    1    3    3    0    0 -0.41005231165E+01  0.45104500757E+01 -0.23809506815E+01  0.65442628403E+01  0.51100000000E-03 0.  1.
         12    1    3    3    0    0 -0.14524286353E+02  0.20389888755E+02  0.41158598183E+01  0.25370115482E+02  0.00000000000E+00 0. -1.
</event>
<event>
 7    1  0.2599124E-010  0.4778727E+02  0.7816164E-02  0.1312668E+00
        -11   -1    0    0    0    0  0.00000000000E+00  0.00000000000E+00  0.45593999997E+02  0.45594000000E+02  0.51100000000E-03 0.  1.
         11   -1    0    0    0    0 -0.00000000000E+00 -0.00000000000E+00 -0.45593999997E+02  0.45594000000E+02  0.51100000000E-03 0. -1.
    9900012    2    1    2    0    0  0.24911211346E+02  0.61452399021E+01  0.35004154049E+02  0.47787271609E+02  0.20000002575E+02 0.  0.
         12    1    1    2    0    0 -0.24911211346E+02 -0.61452399021E+01 -0.35004154049E+02  0.43400728391E+02  0.00000000000E+00 0. -1.
         11    1    3    3    0    0  0.13290371678E+02  0.71606900418E+01  0.12266841683E+02  0.19452117271E+02  0.51100000000E-03 0. -1.
        -11    1    3    3    0    0  0.13576539846E+02 -0.14865182134E+01  0.14765646136E+02  0.20113589353E+02  0.51100000000E-03 0.  1.
         12    1    3    3    0    0 -0.19557001781E+01  0.47106807378E+00  0.79716662298E+01  0.82215649846E+01  0.00000000000E+00 0. -1.
</event>
<event>
 7    1  0.2599124E-010  0.4778727E+02  0.7816164E-02  0.1312668E+00
        -11   -1    0    0    0    0  0.00000000000E+00  0.00000000000E+00  0.45593999997E+02  0.45594000000E+02  0.51100000000E-03 0.  1.
         11   -1    0    0    0    0 -0.00000000000E+00 -0.00000000000E+00 -0.45593999997E+02  0.45594000000E+02  0.51100000000E-03 0. -1.
    9900012    2    1    2    0    0 -0.35260323415E+02  0.10752305472E+01  0.25281945255E+02  0.47787270928E+02  0.19999999470E+02 0.  0.
         12    1    1    2    0    0  0.35260323415E+02 -0.10752305472E+01 -0.25281945255E+02  0.43400729072E+02  0.00000000000E+00 0. -1.
         11    1    3    3    0    0 -0.42851812144E+01 -0.50071724668E+01  0.49993160518E+01  0.82721046535E+01  0.51100000000E-03 0. -1.
        -11    1    3    3    0    0 -0.82500286158E+00  0.34953123212E+01  0.14527179501E+01  0.38740453854E+01  0.51100000000E-03 0.  1.
        -12    1    3    3    0    0 -0.30150139339E+02  0.25870906928E+01  0.18829911253E+02  0.35641120889E+02  0.00000000000E+00 0.  1.
</event>
<event>
 7    1  0.2599124E-010  0.4778727E+02  0.7816164E-02  0.1312668E+00
        -11   -1    0    0    0    0  0.00000000000E+00  0.00000000000E+00  0.45593999997E+02  0.45594000000E+02  0.51100000000E-03 0. -1.
         11   -1    0    0    0    0 -0.00000000000E+00 -0.00000000000E+00 -0.45593999997E+02  0.45594000000E+02  0.51100000000E-03 0.  1.
    9900012    2    1    2    0    0 -0.42509893432E+02 -0.83823024245E+01  0.25038235031E+01  0.47787272291E+02  0.20000005682E+02 0.  0.
         12    1    1    2    0    0  0.42509893432E+02  0.83823024245E+01 -0.25038235031E+01  0.43400727709E+02  0.00000000000E+00 0. -1.
         11    1    3    3    0    0 -0.65867145319E+01 -0.21573919681E+00  0.59580669319E+01  0.88842508718E+01  0.51100000000E-03 0. -1.
        -11    1    3    3    0    0 -0.26971105577E+02 -0.37391433133E+01  0.23864412459E+01  0.27333437962E+02  0.51100000000E-03 0.  1.
        -12    1    3    3    0    0 -0.89520733233E+01 -0.44274199144E+01 -0.58406846747E+01  0.11569583456E+02  0.00000000000E+00 0.  1.
</event>
<event>
 7    1  0.2599124E-010  0.4778727E+02  0.7816164E-02  0.1312668E+00
        -11   -1    0    0    0    0  0.00000000000E+00  0.00000000000E+00  0.45593999997E+02  0.45594000000E+02  0.51100000000E-03 0.  1.
         11   -1    0    0    0    0 -0.00000000000E+00 -0.00000000000E+00 -0.45593999997E+02  0.45594000000E+02  0.51100000000E-03 0. -1.
    9900012    2    1    2    0    0  0.16871869094E+02 -0.21892317052E+02  0.33461768557E+02  0.47787268813E+02  0.19999989825E+02 0.  0.
         12    1    1    2    0    0 -0.16871869094E+02  0.21892317052E+02 -0.33461768557E+02  0.43400731187E+02  0.00000000000E+00 0. -1.
         11    1    3    3    0    0  0.57862755554E+01 -0.63314496470E+01  0.28450992416E+01  0.90367488286E+01  0.51100000000E-03 0. -1.
        -11    1    3    3    0    0  0.79157667663E+01 -0.14090670511E+02  0.12861773356E+02  0.20655061682E+02  0.51100000000E-03 0.  1.
         12    1    3    3    0    0  0.31698267724E+01 -0.14701968945E+01  0.17754895959E+02  0.18095458303E+02  0.00000000000E+00 0. -1.
</event>
<event>
 7    1  0.2599124E-010  0.4778727E+02  0.7816164E-02  0.1312668E+00
        -11   -1    0    0    0    0  0.00000000000E+00  0.00000000000E+00  0.45593999997E+02  0.45594000000E+02  0.51100000000E-03 0.  1.
         11   -1    0    0    0    0 -0.00000000000E+00 -0.00000000000E+00 -0.45593999997E+02  0.45594000000E+02  0.51100000000E-03 0. -1.
    9900012    2    1    2    0    0  0.29108674719E+02  0.19186825586E+02  0.25849066444E+02  0.47787268946E+02  0.19999990434E+02 0.  0.
         12    1    1    2    0    0 -0.29108674719E+02 -0.19186825586E+02 -0.25849066444E+02  0.43400731054E+02  0.00000000000E+00 0. -1.
         11    1    3    3    0    0  0.10402671986E+02  0.54396780307E+01  0.14328454518E+02  0.18523236506E+02  0.51100000000E-03 0. -1.
        -11    1    3    3    0    0  0.17499002512E+01 -0.26588928970E+01  0.23241746297E+01  0.39412752120E+01  0.51100000000E-03 0.  1.
        -12    1    3    3    0    0  0.16956102481E+02  0.16406040452E+02  0.91964372966E+01  0.25322757228E+02  0.00000000000E+00 0.  1.
</event>
<event>
 7    1  0.2599124E-010  0.4778727E+02  0.7816164E-02  0.1312668E+00
        -11   -1    0    0    0    0  0.00000000000E+00  0.00000000000E+00  0.45593999997E+02  0.45594000000E+02  0.51100000000E-03 0. -1.
         11   -1    0    0    0    0 -0.00000000000E+00 -0.00000000000E+00 -0.45593999997E+02  0.45594000000E+02  0.51100000000E-03 0.  1.
    9900012    2    1    2    0    0 -0.15504065991E+02 -0.23237260595E+00 -0.40536321841E+02  0.47787269042E+02  0.19999990870E+02 0.  0.
         12    1    1    2    0    0  0.15504065991E+02  0.23237260595E+00  0.40536321841E+02  0.43400730958E+02  0.00000000000E+00 0. -1.
         11    1    3    3    0    0 -0.67541388610E+01 -0.36528248952E+01 -0.82582242908E+01  0.11276514983E+02  0.51100000000E-03 0. -1.
        -11    1    3    3    0    0 -0.10937200628E+02  0.98878698321E-01 -0.29990407352E+02  0.31922666993E+02  0.51100000000E-03 0.  1.
         12    1    3    3    0    0  0.21872734982E+01  0.33215735909E+01 -0.22876901989E+01  0.45880870656E+01  0.00000000000E+00 0. -1.
</event>
<event>
 7    1  0.2599124E-010  0.4778727E+02  0.7816164E-02  0.1312668E+00
        -11   -1    0    0    0    0  0.00000000000E+00  0.00000000000E+00  0.45593999997E+02  0.45594000000E+02  0.51100000000E-03 0. -1.
         11   -1    0    0    0    0 -0.00000000000E+00 -0.00000000000E+00 -0.45593999997E+02  0.45594000000E+02  0.51100000000E-03 0.  1.
    9900012    2    1    2    0    0  0.36832074277E+02  0.11216287007E+02 -0.20030380579E+02  0.47787274938E+02  0.20000017752E+02 0.  0.
         12    1    1    2    0    0 -0.36832074277E+02 -0.11216287007E+02  0.20030380579E+02  0.43400725062E+02  0.00000000000E+00 0. -1.
         11    1    3    3    0    0  0.10068817759E+02  0.17728481000E+01 -0.11412771379E+02  0.15322383374E+02  0.51100000000E-03 0.  1.
        -11    1    3    3    0    0  0.18811235989E+01 -0.29387747365E+01 -0.61650458944E+00  0.35433178119E+01  0.51100000000E-03 0. -1.
         12    1    3    3    0    0  0.24882132919E+02  0.12382213644E+02 -0.80011046110E+01  0.28921573752E+02  0.00000000000E+00 0. -1.
</event>
<event>
 7    1  0.2599124E-010  0.4778727E+02  0.7816164E-02  0.1312668E+00
        -11   -1    0    0    0    0  0.00000000000E+00  0.00000000000E+00  0.45593999997E+02  0.45594000000E+02  0.51100000000E-03 0. -1.
         11   -1    0    0    0    0 -0.00000000000E+00 -0.00000000000E+00 -0.45593999997E+02  0.45594000000E+02  0.51100000000E-03 0.  1.
    9900012    2    1    2    0    0  0.30338071663E+02 -0.16674166987E+02 -0.26176271639E+02  0.47787266898E+02  0.19999981093E+02 0.  0.
         12    1    1    2    0    0 -0.30338071663E+02  0.16674166987E+02  0.26176271639E+02  0.43400733102E+02  0.00000000000E+00 0. -1.
         11    1    3    3    0    0 -0.12862307622E+01 -0.44696176054E+00  0.11447653054E+01  0.17789469510E+01  0.51100000000E-03 0. -1.
        -11    1    3    3    0    0  0.79124916219E+01 -0.70607844134E+01 -0.34934039049E+01  0.11165396155E+02  0.51100000000E-03 0.  1.
        -12    1    3    3    0    0  0.23711810803E+02 -0.91664208127E+01 -0.23827633039E+02  0.34842923791E+02  0.00000000000E+00 0.  1.
</event>
<event>
 7    1  0.2599124E-010  0.4778727E+02  0.7816164E-02  0.1312668E+00
        -11   -1    0    0    0    0  0.00000000000E+00  0.00000000000E+00  0.45593999997E+02  0.45594000000E+02  0.51100000000E-03 0.  1.
         11   -1    0    0    0    0 -0.00000000000E+00 -0.00000000000E+00 -0.45593999997E+02  0.45594000000E+02  0.51100000000E-03 0. -1.
    9900012    2    1    2    0    0  0.44619503703E+01  0.12010435762E+02  0.41466416330E+02  0.47787271302E+02  0.20000001172E+02 0.  0.
         12    1    1    2    0    0 -0.44619503703E+01 -0.12010435762E+02 -0.41466416330E+02  0.43400728698E+02  0.00000000000E+00 0. -1.
         11    1    3    3    0    0  0.76456416573E+00  0.23470712105E+01  0.41014948601E+00  0.25023038370E+01  0.51100000000E-03 0. -1.
        -11    1    3    3    0    0  0.98476465987E+01  0.37183221980E+01  0.21431192417E+02  0.23876726580E+02  0.51100000000E-03 0.  1.
         12    1    3    3    0    0 -0.61502603942E+01  0.59450423535E+01  0.19625074427E+02  0.21408240884E+02  0.00000000000E+00 0. -1.
</event>
<event>
 7    1  0.2599124E-010  0.4778727E+02  0.7816164E-02  0.1312668E+00
        -11   -1    0    0    0    0  0.00000000000E+00  0.00000000000E+00  0.45593999997E+02  0.45594000000E+02  0.51100000000E-03 0. -1.
         11   -1    0    0    0    0 -0.00000000000E+00 -0.00000000000E+00 -0.45593999997E+02  0.45594000000E+02  0.51100000000E-03 0.  1.
    9900012    2    1    2    0    0 -0.36629821633E+01 -0.32107161688E+02 -0.28971296135E+02  0.47787271092E+02  0.20000000218E+02 0.  0.
         12    1    1    2    0    0  0.36629821633E+01  0.32107161688E+02  0.28971296135E+02  0.43400728908E+02  0.00000000000E+00 0. -1.
         11    1    3    3    0    0  0.34172478291E+01 -0.26179138002E+01 -0.28479336295E+01  0.51615677473E+01  0.51100000000E-03 0. -1.
        -11    1    3    3    0    0  0.43338308113E+01 -0.62086100030E+01 -0.41221543211E+01  0.86209677055E+01  0.51100000000E-03 0.  1.
        -12    1    3    3    0    0 -0.11414060804E+02 -0.23280637885E+02 -0.22001208184E+02  0.34004735640E+02  0.00000000000E+00 0.  1.
</event>
<event>
 7    1  0.2599124E-010  0.4778727E+02  0.7816164E-02  0.1312668E+00
        -11   -1    0    0    0    0  0.00000000000E+00  0.00000000000E+00  0.45593999997E+02  0.45594000000E+02  0.51100000000E-03 0.  1.
         11   -1    0    0    0    0 -0.00000000000E+00 -0.00000000000E+00 -0.45593999997E+02  0.45594000000E+02  0.51100000000E-03 0. -1.
    9900012    2    1    2    0    0 -0.30843497354E+02  0.24765020745E+02  0.17860447054E+02  0.47787272466E+02  0.20000006481E+02 0.  0.
         12    1    1    2    0    0  0.30843497354E+02 -0.24765020745E+02 -0.17860447054E+02  0.43400727534E+02  0.00000000000E+00 0. -1.
         11    1    3    3    0    0 -0.11810254204E+02  0.97709527366E+01  0.74349986214E+01  0.17036221016E+02  0.51100000000E-03 0. -1.
        -11    1    3    3    0    0 -0.19259351037E+02  0.10792076689E+02  0.13189100385E+02  0.25716607296E+02  0.51100000000E-03 0.  1.
         12    1    3    3    0    0  0.22610788706E+00  0.42019913192E+01 -0.27636519518E+01  0.50344441534E+01  0.00000000000E+00 0. -1.
</event>
<event>
 7    1  0.2599124E-010  0.4778727E+02  0.7816164E-02  0.1312668E+00
        -11   -1    0    0    0    0  0.00000000000E+00  0.00000000000E+00  0.45593999997E+02  0.45594000000E+02  0.51100000000E-03 0.  1.
         11   -1    0    0    0    0 -0.00000000000E+00 -0.00000000000E+00 -0.45593999997E+02  0.45594000000E+02  0.51100000000E-03 0. -1.
    9900012    2    1    2    0    0  0.81854646644E+01 -0.14735076318E+02  0.39993734681E+02  0.47787272822E+02  0.20000008103E+02 0.  0.
         12    1    1    2    0    0 -0.81854646644E+01  0.14735076318E+02 -0.39993734681E+02  0.43400727178E+02  0.00000000000E+00 0. -1.
         11    1    3    3    0    0  0.23309284929E+00 -0.51450317183E+01  0.13769981905E+02  0.14701635473E+02  0.51100000000E-03 0. -1.
        -11    1    3    3    0    0  0.50592751203E+01 -0.11960948435E+02  0.26313763200E+02  0.29344074124E+02  0.51100000000E-03 0.  1.
         12    1    3    3    0    0  0.28930966947E+01  0.23709038355E+01 -0.90010424053E-01  0.37415632240E+01  0.00000000000E+00 0. -1.
</event>
<event>
 7    1  0.2599124E-010  0.4778727E+02  0.7816164E-02  0.1312668E+00
        -11   -1    0    0    0    0  0.00000000000E+00  0.00000000000E+00  0.45593999997E+02  0.45594000000E+02  0.51100000000E-03 0.  1.
         11   -1    0    0    0    0 -0.00000000000E+00 -0.00000000000E+00 -0.45593999997E+02  0.45594000000E+02  0.51100000000E-03 0. -1.
    9900012    2    1    2    0    0 -0.27031336487E+01 -0.24343180366E+02  0.35829120919E+02  0.47787271116E+02  0.20000000327E+02 0.  0.
         12    1    1    2    0    0  0.27031336487E+01  0.24343180366E+02 -0.35829120919E+02  0.43400728884E+02  0.00000000000E+00 0. -1.
         11    1    3    3    0    0  0.56084328907E+00 -0.22090558917E+00 -0.12295529072E+01  0.13693593710E+01  0.51100000000E-03 0. -1.
        -11    1    3    3    0    0  0.25647138596E+01 -0.18489027724E+02  0.31410387793E+02  0.36538122078E+02  0.51100000000E-03 0.  1.
        -12    1    3    3    0    0 -0.58286907974E+01 -0.56332470524E+01  0.56482860323E+01  0.98797896672E+01  0.00000000000E+00 0.  1.
</event>
<event>
 7    1  0.2599124E-010  0.4778727E+02  0.7816164E-02  0.1312668E+00
        -11   -1    0    0    0    0  0.00000000000E+00  0.00000000000E+00  0.45593999997E+02  0.45594000000E+02  0.51100000000E-03 0. -1.
         11   -1    0    0    0    0 -0.00000000000E+00 -0.00000000000E+00 -0.45593999997E+02  0.45594000000E+02  0.51100000000E-03 0.  1.
    9900012    2    1    2    0    0  0.17065506244E+02 -0.33372333502E+01 -0.39764994306E+02  0.47787269569E+02  0.19999993274E+02 0.  0.
         12    1    1    2    0    0 -0.17065506244E+02  0.33372333502E+01  0.39764994306E+02  0.43400730431E+02  0.00000000000E+00 0. -1.
         11    1    3    3    0    0  0.12736681644E+00  0.11232231948E+01 -0.38846828446E+01  0.40458143452E+01  0.51100000000E-03 0. -1.
        -11    1    3    3    0    0  0.10151029956E+02  0.57594222902E+01 -0.23882214342E+02  0.26581469418E+02  0.51100000000E-03 0.  1.
         12    1    3    3    0    0  0.67871094718E+01 -0.10219878835E+02 -0.11998097119E+02  0.17159985806E+02  0.00000000000E+00 0. -1.
</event>
<event>
 7    1  0.2599124E-010  0.4778727E+02  0.7816164E-02  0.1312668E+00
        -11   -1    0    0    0    0  0.00000000000E+00  0.00000000000E+00  0.45593999997E+02  0.45594000000E+02  0.51100000000E-03 0.  1.
         11   -1    0    0    0    0 -0.00000000000E+00 -0.00000000000E+00 -0.45593999997E+02  0.45594000000E+02  0.51100000000E-03 0. -1.
    9900012    2    1    2    0    0 -0.34594311783E+02  0.63886806076E+01  0.25417346290E+02  0.47787272586E+02  0.20000007030E+02 0.  0.
         12    1    1    2    0    0  0.34594311783E+02 -0.63886806076E+01 -0.25417346290E+02  0.43400727414E+02  0.00000000000E+00 0. -1.
         11    1    3    3    0    0 -0.25853451862E+01  0.79249048247E+00 -0.20455728551E+01  0.33906370291E+01  0.51100000000E-03 0. -1.
        -11    1    3    3    0    0 -0.17961192821E+02  0.81519864447E+01  0.10926218834E+02  0.22548649379E+02  0.51100000000E-03 0.  1.
        -12    1    3    3    0    0 -0.14047773776E+02 -0.25557963196E+01  0.16536700311E+02  0.21847986179E+02  0.00000000000E+00 0.  1.
</event>
<event>
 7    1  0.3184886E-010  0.4778728E+02  0.7816164E-02  0.1312668E+00
        -11   -1    0    0    0    0  0.00000000000E+00  0.00000000000E+00  0.45593999997E+02  0.45594000000E+02  0.51100000000E-03 0.  1.
         11   -1    0    0    0    0 -0.00000000000E+00 -0.00000000000E+00 -0.45593999997E+02  0.45594000000E+02  0.51100000000E-03 0. -1.
    9900012    2    1    2    0    0  0.19705567121E+02 -0.38592175243E+02  0.24407980543E+01  0.47787275805E+02  0.20000021704E+02 0.  0.
         12    1    1    2    0    0 -0.19705567121E+02  0.38592175243E+02 -0.24407980543E+01  0.43400724195E+02  0.00000000000E+00 0. -1.
         11    1    3    3    0    0  0.10662131398E+01 -0.84827392434E+01  0.59602044770E+01  0.10421982211E+02  0.51100000000E-03 0. -1.
        -11    1    3    3    0    0  0.83553452166E+01 -0.11054310954E+02  0.40348304680E+01  0.14432236193E+02  0.51100000000E-03 0.  1.
        -12    1    3    3    0    0  0.10284008765E+02 -0.19055125045E+02 -0.75542368907E+01  0.22933057401E+02  0.00000000000E+00 0.  1.
</event>
<event>
 7    1  0.2599124E-010  0.4778726E+02  0.7816164E-02  0.1312668E+00
        -11   -1    0    0    0    0  0.00000000000E+00  0.00000000000E+00  0.45593999997E+02  0.45594000000E+02  0.51100000000E-03 0.  1.
         11   -1    0    0    0    0 -0.00000000000E+00 -0.00000000000E+00 -0.45593999997E+02  0.45594000000E+02  0.51100000000E-03 0. -1.
    9900012    2    1    2    0    0 -0.17509648616E+02 -0.37364056858E+02 -0.13452270787E+02  0.47787261195E+02  0.19999955091E+02 0.  0.
         12    1    1    2    0    0  0.17509648616E+02  0.37364056858E+02  0.13452270787E+02  0.43400738805E+02  0.00000000000E+00 0. -1.
         11    1    3    3    0    0  0.65523311704E+00  0.89677517391E+00 -0.30451009586E+01  0.32413232266E+01  0.51100000000E-03 0. -1.
        -11    1    3    3    0    0 -0.18767175676E+01 -0.13390210675E+02 -0.43677788664E+01  0.14209057085E+02  0.51100000000E-03 0.  1.
        -12    1    3    3    0    0 -0.16288164166E+02 -0.24870621356E+02 -0.60393909616E+01  0.30336880883E+02  0.00000000000E+00 0.  1.
</event>
<event>
 7    1  0.2599124E-010  0.4778727E+02  0.7816164E-02  0.1312668E+00
        -11   -1    0    0    0    0  0.00000000000E+00  0.00000000000E+00  0.45593999997E+02  0.45594000000E+02  0.51100000000E-03 0. -1.
         11   -1    0    0    0    0 -0.00000000000E+00 -0.00000000000E+00 -0.45593999997E+02  0.45594000000E+02  0.51100000000E-03 0.  1.
    9900012    2    1    2    0    0 -0.43118350818E+02  0.47938413567E+01  0.12042263965E+01  0.47787271280E+02  0.20000001075E+02 0.  0.
         12    1    1    2    0    0  0.43118350818E+02 -0.47938413567E+01 -0.12042263965E+01  0.43400728720E+02  0.00000000000E+00 0. -1.
         11    1    3    3    0    0 -0.45639298677E+01  0.38439907555E+01  0.10001427652E+01  0.60502897928E+01  0.51100000000E-03 0. -1.
        -11    1    3    3    0    0 -0.10743486077E+02  0.52166927114E+01 -0.53018380067E+01  0.13066976025E+02  0.51100000000E-03 0.  1.
        -12    1    3    3    0    0 -0.27810934874E+02 -0.42668421102E+01  0.55059216379E+01  0.28670005463E+02  0.00000000000E+00 0.  1.
</event>
<event>
 7    1  0.2599124E-010  0.4778724E+02  0.7816164E-02  0.1312668E+00
        -11   -1    0    0    0    0  0.00000000000E+00  0.00000000000E+00  0.45593999997E+02  0.45594000000E+02  0.51100000000E-03 0.  1.
         11   -1    0    0    0    0 -0.00000000000E+00 -0.00000000000E+00 -0.45593999997E+02  0.45594000000E+02  0.51100000000E-03 0. -1.
    9900012    2    1    2    0    0 -0.38097594770E+02  0.20462520461E+02 -0.36721204157E+01  0.47787240338E+02  0.19999859997E+02 0.  0.
         12    1    1    2    0    0  0.38097594770E+02 -0.20462520461E+02  0.36721204157E+01  0.43400759662E+02  0.00000000000E+00 0. -1.
         11    1    3    3    0    0 -0.64344452851E+01  0.32881536207E+00  0.21424770980E+01  0.67897285694E+01  0.51100000000E-03 0. -1.
        -11    1    3    3    0    0 -0.44106343064E+01  0.13274248228E+01  0.43759047744E+01  0.63532900532E+01  0.51100000000E-03 0.  1.
         12    1    3    3    0    0 -0.27252515178E+02  0.18806280276E+02 -0.10190502288E+02  0.34644221715E+02  0.00000000000E+00 0. -1.
</event>
<event>
 7    1  0.2599124E-010  0.4778727E+02  0.7816164E-02  0.1312668E+00
        -11   -1    0    0    0    0  0.00000000000E+00  0.00000000000E+00  0.45593999997E+02  0.45594000000E+02  0.51100000000E-03 0.  1.
         11   -1    0    0    0    0 -0.00000000000E+00 -0.00000000000E+00 -0.45593999997E+02  0.45594000000E+02  0.51100000000E-03 0. -1.
    9900012    2    1    2    0    0 -0.40870642640E+02 -0.11680232956E+02 -0.87627484394E+01  0.47787273832E+02  0.20000012709E+02 0.  0.
         12    1    1    2    0    0  0.40870642640E+02  0.11680232956E+02  0.87627484394E+01  0.43400726168E+02  0.00000000000E+00 0. -1.
         11    1    3    3    0    0 -0.16061738683E+02 -0.40421033934E+01  0.64536950891E+00  0.16575118444E+02  0.51100000000E-03 0.  1.
        -11    1    3    3    0    0 -0.92988286736E+01  0.90762924886E+00  0.27409397221E+01  0.97367734068E+01  0.51100000000E-03 0. -1.
        -12    1    3    3    0    0 -0.15510075283E+02 -0.85457588111E+01 -0.12149057670E+02  0.21475381981E+02  0.00000000000E+00 0.  1.
</event>
<event>
 7    1  0.2599124E-010  0.4778727E+02  0.7816164E-02  0.1312668E+00
        -11   -1    0    0    0    0  0.00000000000E+00  0.00000000000E+00  0.45593999997E+02  0.45594000000E+02  0.51100000000E-03 0. -1.
         11   -1    0    0    0    0 -0.00000000000E+00 -0.00000000000E+00 -0.45593999997E+02  0.45594000000E+02  0.51100000000E-03 0.  1.
    9900012    2    1    2    0    0 -0.12388460304E+02  0.39515002910E+02 -0.12989002579E+02  0.47787267383E+02  0.19999983306E+02 0.  0.
         12    1    1    2    0    0  0.12388460304E+02 -0.39515002910E+02  0.12989002579E+02  0.43400732617E+02  0.00000000000E+00 0. -1.
         11    1    3    3    0    0 -0.95331120998E+01  0.83557116290E+01 -0.24194797929E+01  0.12905503704E+02  0.51100000000E-03 0. -1.
        -11    1    3    3    0    0 -0.29189044449E+01  0.12111199152E+02  0.11598855410E+01  0.12511853691E+02  0.51100000000E-03 0.  1.
        -12    1    3    3    0    0  0.63556240321E-01  0.19048092130E+02 -0.11729408327E+02  0.22369909988E+02  0.00000000000E+00 0.  1.
</event>
<event>
 7    1  0.2599124E-010  0.4778729E+02  0.7816164E-02  0.1312668E+00
        -11   -1    0    0    0    0  0.00000000000E+00  0.00000000000E+00  0.45593999997E+02  0.45594000000E+02  0.51100000000E-03 0.  1.
         11   -1    0    0    0    0 -0.00000000000E+00 -0.00000000000E+00 -0.45593999997E+02  0.45594000000E+02  0.51100000000E-03 0. -1.
    9900012    2    1    2    0    0 -0.15681382083E+02  0.37206539954E+02  0.15918200965E+02  0.47787291695E+02  0.20000094154E+02 0.  0.
         12    1    1    2    0    0  0.15681382083E+02 -0.37206539954E+02 -0.15918200965E+02  0.43400708305E+02  0.00000000000E+00 0. -1.
         11    1    3    3    0    0 -0.61059522039E+01  0.13696567728E+02  0.70003087932E+01  0.16549409153E+02  0.51100000000E-03 0. -1.
        -11    1    3    3    0    0 -0.11844282097E+02  0.98716206078E+01  0.80280707188E+01  0.17383493077E+02  0.51100000000E-03 0.  1.
         12    1    3    3    0    0  0.22688522176E+01  0.13638351618E+02  0.88982145338E+00  0.13854389466E+02  0.00000000000E+00 0. -1.
</event>
<event>
 7    1  0.2599124E-010  0.4778727E+02  0.7816164E-02  0.1312668E+00
        -11   -1    0    0    0    0  0.00000000000E+00  0.00000000000E+00  0.45593999997E+02  0.45594000000E+02  0.51100000000E-03 0. -1.
         11   -1    0    0    0    0 -0.00000000000E+00 -0.00000000000E+00 -0.45593999997E+02  0.45594000000E+02  0.51100000000E-03 0.  1.
    9900012    2    1    2    0    0  0.18048467293E+02  0.20593666706E+02 -0.33671603139E+02  0.47787272610E+02  0.20000007138E+02 0.  0.
         12    1    1    2    0    0 -0.18048467293E+02 -0.20593666706E+02  0.33671603139E+02  0.43400727390E+02  0.00000000000E+00 0. -1.
         11    1    3    3    0    0  0.32039917278E+01  0.68115867262E+01 -0.46988472373E+01  0.88736938386E+01  0.51100000000E-03 0. -1.
        -11    1    3    3    0    0  0.14523760620E+02  0.89006857237E+01 -0.29425951579E+02  0.34000712574E+02  0.51100000000E-03 0.  1.
         12    1    3    3    0    0  0.32071494542E+00  0.48813942556E+01  0.45319567762E+00  0.49128661978E+01  0.00000000000E+00 0. -1.
</event>
<event>
 7    1  0.2599124E-010  0.4778727E+02  0.7816164E-02  0.1312668E+00
        -11   -1    0    0    0    0  0.00000000000E+00  0.00000000000E+00  0.45593999997E+02  0.45594000000E+02  0.51100000000E-03 0.  1.
         11   -1    0    0    0    0 -0.00000000000E+00 -0.00000000000E+00 -0.45593999997E+02  0.45594000000E+02  0.51100000000E-03 0. -1.
    9900012    2    1    2    0    0 -0.21100937191E+02 -0.29264426107E+02  0.24123993089E+02  0.47787271570E+02  0.20000002397E+02 0.  0.
         12    1    1    2    0    0  0.21100937191E+02  0.29264426107E+02 -0.24123993089E+02  0.43400728430E+02  0.00000000000E+00 0. -1.
         11    1    3    3    0    0 -0.29629007818E+01 -0.41795307377E+01 -0.22889418218E+00  0.51283185390E+01  0.51100000000E-03 0. -1.
        -11    1    3    3    0    0 -0.15395828021E+01 -0.79930397017E+01 -0.59544711831E+00  0.81617128355E+01  0.51100000000E-03 0.  1.
        -12    1    3    3    0    0 -0.16598453607E+02 -0.17091855667E+02  0.24948334389E+02  0.34497240196E+02  0.00000000000E+00 0.  1.
</event>
<event>
 7    1  0.2599124E-010  0.4778724E+02  0.7816164E-02  0.1312668E+00
        -11   -1    0    0    0    0  0.00000000000E+00  0.00000000000E+00  0.45593999997E+02  0.45594000000E+02  0.51100000000E-03 0.  1.
         11   -1    0    0    0    0 -0.00000000000E+00 -0.00000000000E+00 -0.45593999997E+02  0.45594000000E+02  0.51100000000E-03 0. -1.
    9900012    2    1    2    0    0 -0.10977908251E+02  0.29441587610E+02  0.29938337183E+02  0.47787244433E+02  0.19999878665E+02 0.  0.
         12    1    1    2    0    0  0.10977908251E+02 -0.29441587610E+02 -0.29938337183E+02  0.43400755567E+02  0.00000000000E+00 0. -1.
         11    1    3    3    0    0 -0.28485420113E+01  0.12707993825E+02  0.59683859016E+01  0.14325813386E+02  0.51100000000E-03 0. -1.
        -11    1    3    3    0    0 -0.11479360180E+02  0.15222452787E+02  0.16830233189E+02  0.25431388646E+02  0.51100000000E-03 0.  1.
        -12    1    3    3    0    0  0.33499939406E+01  0.15111409982E+01  0.71397180923E+01  0.80300424006E+01  0.00000000000E+00 0.  1.
</event>
<event>
 7    1  0.2599124E-010  0.4778727E+02  0.7816164E-02  0.1312668E+00
        -11   -1    0    0    0    0  0.00000000000E+00  0.00000000000E+00  0.45593999997E+02  0.45594000000E+02  0.51100000000E-03 0. -1.
         11   -1    0    0    0    0 -0.00000000000E+00 -0.00000000000E+00 -0.45593999997E+02  0.45594000000E+02  0.51100000000E-03 0.  1.
    9900012    2    1    2    0    0 -0.18665505535E+02  0.37764784529E+02  0.10442364322E+02  0.47787273968E+02  0.20000013331E+02 0.  0.
         12    1    1    2    0    0  0.18665505535E+02 -0.37764784529E+02 -0.10442364322E+02  0.43400726032E+02  0.00000000000E+00 0. -1.
         11    1    3    3    0    0 -0.28362874256E+01 -0.56530306850E+00  0.11590461942E+01  0.31156832735E+01  0.51100000000E-03 0. -1.
        -11    1    3    3    0    0 -0.51190602074E+00  0.13167281232E+02 -0.15854744565E+01  0.13272267039E+02  0.51100000000E-03 0.  1.
        -12    1    3    3    0    0 -0.15317312089E+02  0.25162806365E+02  0.10868792584E+02  0.31399323656E+02  0.00000000000E+00 0.  1.
</event>
<event>
 7    1  0.2599124E-010  0.4778727E+02  0.7816164E-02  0.1312668E+00
        -11   -1    0    0    0    0  0.00000000000E+00  0.00000000000E+00  0.45593999997E+02  0.45594000000E+02  0.51100000000E-03 0.  1.
         11   -1    0    0    0    0 -0.00000000000E+00 -0.00000000000E+00 -0.45593999997E+02  0.45594000000E+02  0.51100000000E-03 0. -1.
    9900012    2    1    2    0    0  0.29988575163E+02 -0.12145912958E+02  0.28927248855E+02  0.47787267654E+02  0.19999984540E+02 0.  0.
         12    1    1    2    0    0 -0.29988575163E+02  0.12145912958E+02 -0.28927248855E+02  0.43400732346E+02  0.00000000000E+00 0. -1.
         11    1    3    3    0    0  0.60439423299E+01  0.31797532493E+01  0.77839501189E+01  0.10355189488E+02  0.51100000000E-03 0. -1.
        -11    1    3    3    0    0  0.97828736851E+00 -0.30272893525E+01  0.72269079266E+01  0.78961842329E+01  0.51100000000E-03 0.  1.
         12    1    3    3    0    0  0.22966345465E+02 -0.12298376854E+02  0.13916390809E+02  0.29535893933E+02  0.00000000000E+00 0. -1.
</event>
<event>
 7    1  0.2599124E-010  0.4778727E+02  0.7816164E-02  0.1312668E+00
        -11   -1    0    0    0    0  0.00000000000E+00  0.00000000000E+00  0.45593999997E+02  0.45594000000E+02  0.51100000000E-03 0.  1.
         11   -1    0    0    0    0 -0.00000000000E+00 -0.00000000000E+00 -0.45593999997E+02  0.45594000000E+02  0.51100000000E-03 0. -1.
    9900012    2    1    2    0    0  0.32914070002E+02  0.22996827484E+01  0.28195721687E+02  0.47787271132E+02  0.20000000400E+02 0.  0.
         12    1    1    2    0    0 -0.32914070002E+02 -0.22996827484E+01 -0.28195721687E+02  0.43400728868E+02  0.00000000000E+00 0. -1.
         11    1    3    3    0    0 -0.10376453856E+01  0.82530965669E+00  0.61995796115E+00  0.14636229399E+01  0.51100000000E-03 0. -1.
        -11    1    3    3    0    0  0.22227699287E+02  0.70524654666E+01  0.12609179608E+02  0.26510362038E+02  0.51100000000E-03 0.  1.
         12    1    3    3    0    0  0.11724016100E+02 -0.55780923748E+01  0.14966584118E+02  0.19813286154E+02  0.00000000000E+00 0. -1.
</event>
<event>
 7    1  0.2599124E-010  0.4778727E+02  0.7816164E-02  0.1312668E+00
        -11   -1    0    0    0    0  0.00000000000E+00  0.00000000000E+00  0.45593999997E+02  0.45594000000E+02  0.51100000000E-03 0. -1.
         11   -1    0    0    0    0 -0.00000000000E+00 -0.00000000000E+00 -0.45593999997E+02  0.45594000000E+02  0.51100000000E-03 0.  1.
    9900012    2    1    2    0    0 -0.21136789601E+02  0.17820661857E+02 -0.33455694822E+02  0.47787269826E+02  0.19999994443E+02 0.  0.
         12    1    1    2    0    0  0.21136789601E+02 -0.17820661857E+02  0.33455694822E+02  0.43400730174E+02  0.00000000000E+00 0. -1.
         11    1    3    3    0    0 -0.65510614861E+01  0.91338204757E+01 -0.10673127451E+02  0.15500281705E+02  0.51100000000E-03 0. -1.
        -11    1    3    3    0    0 -0.17777759631E+02  0.78539344038E+01 -0.20656273261E+02  0.28362204576E+02  0.51100000000E-03 0.  1.
         12    1    3    3    0    0  0.31920315163E+01  0.83290697728E+00 -0.21262941099E+01  0.39247835450E+01  0.00000000000E+00 0. -1.
</event>
<event>
 7    1  0.2599124E-010  0.4778727E+02  0.7816164E-02  0.1312668E+00
        -11   -1    0    0    0    0  0.00000000000E+00  0.00000000000E+00  0.45593999997E+02  0.45594000000E+02  0.51100000000E-03 0.  1.
         11   -1    0    0    0    0 -0.00000000000E+00 -0.00000000000E+00 -0.45593999997E+02  0.45594000000E+02  0.51100000000E-03 0. -1.
    9900012    2    1    2    0    0 -0.34810569570E+02 -0.86915599732E+01  0.24419342059E+02  0.47787271491E+02  0.20000002036E+02 0.  0.
         12    1    1    2    0    0  0.34810569570E+02  0.86915599732E+01 -0.24419342059E+02  0.43400728509E+02  0.00000000000E+00 0. -1.
         11    1    3    3    0    0 -0.64991165012E+01 -0.93598676233E+01  0.11753950325E+02  0.16370735650E+02  0.51100000000E-03 0. -1.
        -11    1    3    3    0    0 -0.79578367269E+01 -0.16571388915E+01  0.50007634331E+01  0.95436319006E+01  0.51100000000E-03 0.  1.
         12    1    3    3    0    0 -0.20353616341E+02  0.23254465416E+01  0.76646283004E+01  0.21872903940E+02  0.00000000000E+00 0. -1.
</event>
<event>
 7    1  0.2599124E-010  0.4778727E+02  0.7816164E-02  0.1312668E+00
        -11   -1    0    0    0    0  0.00000000000E+00  0.00000000000E+00  0.45593999997E+02  0.45594000000E+02  0.51100000000E-03 0.  1.
         11   -1    0    0    0    0 -0.00000000000E+00 -0.00000000000E+00 -0.45593999997E+02  0.45594000000E+02  0.51100000000E-03 0. -1.
    9900012    2    1    2    0    0  0.19325559318E+02  0.22007108211E+02  0.32028626029E+02  0.47787274890E+02  0.20000017532E+02 0.  0.
         12    1    1    2    0    0 -0.19325559318E+02 -0.22007108211E+02 -0.32028626029E+02  0.43400725110E+02  0.00000000000E+00 0. -1.
         11    1    3    3    0    0 -0.12377613096E+01  0.24492742500E+01  0.48478142315E+01  0.55706642778E+01  0.51100000000E-03 0. -1.
        -11    1    3    3    0    0  0.24418571934E+01  0.12621394941E+02  0.97689466086E+01  0.16146039605E+02  0.51100000000E-03 0.  1.
        -12    1    3    3    0    0  0.18121463434E+02  0.69364390199E+01  0.17411865189E+02  0.26070571007E+02  0.00000000000E+00 0.  1.
</event>
<event>
 7    1  0.2599124E-010  0.4778727E+02  0.7816164E-02  0.1312668E+00
        -11   -1    0    0    0    0  0.00000000000E+00  0.00000000000E+00  0.45593999997E+02  0.45594000000E+02  0.51100000000E-03 0. -1.
         11   -1    0    0    0    0 -0.00000000000E+00 -0.00000000000E+00 -0.45593999997E+02  0.45594000000E+02  0.51100000000E-03 0.  1.
    9900012    2    1    2    0    0 -0.37967399474E+02  0.17946981792E+02 -0.10954703665E+02  0.47787272925E+02  0.20000008575E+02 0.  0.
         12    1    1    2    0    0  0.37967399474E+02 -0.17946981792E+02  0.10954703665E+02  0.43400727075E+02  0.00000000000E+00 0. -1.
         11    1    3    3    0    0 -0.23841840886E+02  0.13665445738E+02 -0.94450835167E+01  0.29058344532E+02  0.51100000000E-03 0. -1.
        -11    1    3    3    0    0 -0.12888196911E+02  0.47241005038E+00 -0.45762053139E+01  0.13684679251E+02  0.51100000000E-03 0.  1.
         12    1    3    3    0    0 -0.12373616774E+01  0.38091260033E+01  0.30665851656E+01  0.50442491421E+01  0.00000000000E+00 0. -1.
</event>
<event>
 7    1  0.2599124E-010  0.4778727E+02  0.7816164E-02  0.1312668E+00
        -11   -1    0    0    0    0  0.00000000000E+00  0.00000000000E+00  0.45593999997E+02  0.45594000000E+02  0.51100000000E-03 0.  1.
         11   -1    0    0    0    0 -0.00000000000E+00 -0.00000000000E+00 -0.45593999997E+02  0.45594000000E+02  0.51100000000E-03 0. -1.
    9900012    2    1    2    0    0 -0.38771277941E+02  0.19442607741E+02 -0.15480540118E+01  0.47787268898E+02  0.19999990214E+02 0.  0.
         12    1    1    2    0    0  0.38771277941E+02 -0.19442607741E+02  0.15480540118E+01  0.43400731102E+02  0.00000000000E+00 0. -1.
         11    1    3    3    0    0 -0.13954376229E+02  0.11378173184E+02 -0.36272758148E+01  0.18366942343E+02  0.51100000000E-03 0.  1.
        -11    1    3    3    0    0 -0.15458257247E+01 -0.10703063187E+01 -0.33465752096E+01  0.38385802950E+01  0.51100000000E-03 0. -1.
         12    1    3    3    0    0 -0.23271075988E+02  0.91347408759E+01  0.54257970126E+01  0.25581746260E+02  0.00000000000E+00 0. -1.
</event>
<event>
 7    1  0.2599124E-010  0.4778726E+02  0.7816164E-02  0.1312668E+00
        -11   -1    0    0    0    0  0.00000000000E+00  0.00000000000E+00  0.45593999997E+02  0.45594000000E+02  0.51100000000E-03 0. -1.
         11   -1    0    0    0    0 -0.00000000000E+00 -0.00000000000E+00 -0.45593999997E+02  0.45594000000E+02  0.51100000000E-03 0.  1.
    9900012    2    1    2    0    0  0.34148424982E+02  0.11616838875E+02 -0.24136243511E+02  0.47787261239E+02  0.19999955292E+02 0.  0.
         12    1    1    2    0    0 -0.34148424982E+02 -0.11616838875E+02  0.24136243511E+02  0.43400738761E+02  0.00000000000E+00 0. -1.
         11    1    3    3    0    0  0.93051176777E+01  0.11939891842E+00 -0.17175382429E+01  0.94630549493E+01  0.51100000000E-03 0.  1.
        -11    1    3    3    0    0  0.19365296643E+02  0.22416863059E+01 -0.10047968014E+02  0.21931747150E+02  0.51100000000E-03 0. -1.
         12    1    3    3    0    0  0.54780106613E+01  0.92557536509E+01 -0.12370737254E+02  0.16392459140E+02  0.00000000000E+00 0. -1.
</event>
<event>
 7    1  0.2599124E-010  0.4778727E+02  0.7816164E-02  0.1312668E+00
        -11   -1    0    0    0    0  0.00000000000E+00  0.00000000000E+00  0.45593999997E+02  0.45594000000E+02  0.51100000000E-03 0.  1.
         11   -1    0    0    0    0 -0.00000000000E+00 -0.00000000000E+00 -0.45593999997E+02  0.45594000000E+02  0.51100000000E-03 0. -1.
    9900012    2    1    2    0    0  0.20667501886E+02 -0.38163784589E+02 -0.56115849214E-01  0.47787271465E+02  0.20000001919E+02 0.  0.
         12    1    1    2    0    0 -0.20667501886E+02  0.38163784589E+02  0.56115849214E-01  0.43400728535E+02  0.00000000000E+00 0. -1.
         11    1    3    3    0    0  0.10972692903E+02 -0.27465180679E+02 -0.27769351546E+01  0.29706018050E+02  0.51100000000E-03 0. -1.
        -11    1    3    3    0    0  0.10693691633E+02 -0.87955879107E+01 -0.89478530392E+00  0.13875087330E+02  0.51100000000E-03 0.  1.
         12    1    3    3    0    0 -0.99888264920E+00 -0.19030159987E+01  0.36156046093E+01  0.42061660843E+01  0.00000000000E+00 0. -1.
</event>
<event>
 7    1  0.2599124E-010  0.4778727E+02  0.7816164E-02  0.1312668E+00
        -11   -1    0    0    0    0  0.00000000000E+00  0.00000000000E+00  0.45593999997E+02  0.45594000000E+02  0.51100000000E-03 0. -1.
         11   -1    0    0    0    0 -0.00000000000E+00 -0.00000000000E+00 -0.45593999997E+02  0.45594000000E+02  0.51100000000E-03 0.  1.
    9900012    2    1    2    0    0  0.38821744963E+02 -0.14429676987E+02 -0.12972278852E+02  0.47787268686E+02  0.19999989249E+02 0.  0.
         12    1    1    2    0    0 -0.38821744963E+02  0.14429676987E+02  0.12972278852E+02  0.43400731314E+02  0.00000000000E+00 0. -1.
         11    1    3    3    0    0  0.90514728090E+01 -0.44465853598E+01 -0.38233844880E+01  0.10785154175E+02  0.51100000000E-03 0. -1.
        -11    1    3    3    0    0  0.16711681289E+02 -0.10940414834E+02  0.16325317484E+01  0.20040911367E+02  0.51100000000E-03 0.  1.
         12    1    3    3    0    0  0.13058590865E+02  0.95732320606E+00 -0.10781426112E+02  0.16961203144E+02  0.00000000000E+00 0. -1.
</event>
<event>
 7    1  0.2599124E-010  0.4778728E+02  0.7816164E-02  0.1312668E+00
        -11   -1    0    0    0    0  0.00000000000E+00  0.00000000000E+00  0.45593999997E+02  0.45594000000E+02  0.51100000000E-03 0. -1.
         11   -1    0    0    0    0 -0.00000000000E+00 -0.00000000000E+00 -0.45593999997E+02  0.45594000000E+02  0.51100000000E-03 0.  1.
    9900012    2    1    2    0    0  0.21312797285E+02 -0.36029844672E+02 -0.11455901126E+02  0.47787277589E+02  0.20000029840E+02 0.  0.
         12    1    1    2    0    0 -0.21312797285E+02  0.36029844672E+02  0.11455901126E+02  0.43400722411E+02  0.00000000000E+00 0. -1.
         11    1    3    3    0    0  0.99040120562E+01 -0.11024334402E+02  0.21378384564E+01  0.14973167913E+02  0.51100000000E-03 0. -1.
        -11    1    3    3    0    0  0.78634761825E+01 -0.19148865772E+02 -0.40891459175E+01  0.21100578964E+02  0.51100000000E-03 0.  1.
        -12    1    3    3    0    0  0.35453090460E+01 -0.58566444975E+01 -0.95045936651E+01  0.11713530712E+02  0.00000000000E+00 0.  1.
</event>
<event>
 7    1  0.2599124E-010  0.4778728E+02  0.7816164E-02  0.1312668E+00
        -11   -1    0    0    0    0  0.00000000000E+00  0.00000000000E+00  0.45593999997E+02  0.45594000000E+02  0.51100000000E-03 0. -1.
         11   -1    0    0    0    0 -0.00000000000E+00 -0.00000000000E+00 -0.45593999997E+02  0.45594000000E+02  0.51100000000E-03 0.  1.
    9900012    2    1    2    0    0  0.47422129454E+00  0.40066442745E+02 -0.16675662804E+02  0.47787280535E+02  0.20000043272E+02 0.  0.
         12    1    1    2    0    0 -0.47422129454E+00 -0.40066442745E+02  0.16675662804E+02  0.43400719465E+02  0.00000000000E+00 0. -1.
         11    1    3    3    0    0  0.64870052325E+01  0.11398454194E+02 -0.47374284876E+01  0.13944505149E+02  0.51100000000E-03 0. -1.
        -11    1    3    3    0    0  0.32703401904E+01  0.74384000911E+01 -0.54394057234E+01  0.97781417336E+01  0.51100000000E-03 0.  1.
         12    1    3    3    0    0 -0.92831241283E+01  0.21229588460E+02 -0.64988285932E+01  0.24064633653E+02  0.00000000000E+00 0. -1.
</event>
<event>
 7    1  0.2599124E-010  0.4778727E+02  0.7816164E-02  0.1312668E+00
        -11   -1    0    0    0    0  0.00000000000E+00  0.00000000000E+00  0.45593999997E+02  0.45594000000E+02  0.51100000000E-03 0.  1.
         11   -1    0    0    0    0 -0.00000000000E+00 -0.00000000000E+00 -0.45593999997E+02  0.45594000000E+02  0.51100000000E-03 0. -1.
    9900012    2    1    2    0    0 -0.78991270443E+01  0.21163149973E+02  0.37058712582E+02  0.47787270708E+02  0.19999998466E+02 0.  0.
         12    1    1    2    0    0  0.78991270443E+01 -0.21163149973E+02 -0.37058712582E+02  0.43400729292E+02  0.00000000000E+00 0. -1.
         11    1    3    3    0    0  0.12622256567E+01 -0.77252708874E+00  0.12884347914E+02  0.12969056756E+02  0.51100000000E-03 0. -1.
        -11    1    3    3    0    0 -0.30330715164E+01  0.49506520084E+01  0.11094398654E+02  0.12521747477E+02  0.51100000000E-03 0.  1.
        -12    1    3    3    0    0 -0.61282811846E+01  0.16985025053E+02  0.13079966015E+02  0.22296466475E+02  0.00000000000E+00 0.  1.
</event>
<event>
 7    1  0.2599124E-010  0.4778727E+02  0.7816164E-02  0.1312668E+00
        -11   -1    0    0    0    0  0.00000000000E+00  0.00000000000E+00  0.45593999997E+02  0.45594000000E+02  0.51100000000E-03 0.  1.
         11   -1    0    0    0    0 -0.00000000000E+00 -0.00000000000E+00 -0.45593999997E+02  0.45594000000E+02  0.51100000000E-03 0. -1.
    9900012    2    1    2    0    0 -0.19987788551E+02  0.20323186000E+02  0.32727358647E+02  0.47787267467E+02  0.19999983691E+02 0.  0.
         12    1    1    2    0    0  0.19987788551E+02 -0.20323186000E+02 -0.32727358647E+02  0.43400732533E+02  0.00000000000E+00 0. -1.
         11    1    3    3    0    0 -0.63862022180E+01  0.59799510150E+01  0.69921195529E+01  0.11199693255E+02  0.51100000000E-03 0. -1.
        -11    1    3    3    0    0 -0.13565246005E+02  0.15119418915E+02  0.27771899611E+02  0.34407719131E+02  0.51100000000E-03 0.  1.
         12    1    3    3    0    0 -0.36340327384E-01 -0.77618393002E+00 -0.20366605170E+01  0.21798550810E+01  0.00000000000E+00 0. -1.
</event>
<event>
 7    1  0.2599124E-010  0.4778727E+02  0.7816164E-02  0.1312668E+00
        -11   -1    0    0    0    0  0.00000000000E+00  0.00000000000E+00  0.45593999997E+02  0.45594000000E+02  0.51100000000E-03 0. -1.
         11   -1    0    0    0    0 -0.00000000000E+00 -0.00000000000E+00 -0.45593999997E+02  0.45594000000E+02  0.51100000000E-03 0.  1.
    9900012    2    1    2    0    0  0.42147979101E+02  0.97172197882E+01 -0.35702521335E+01  0.47787271861E+02  0.20000003723E+02 0.  0.
         12    1    1    2    0    0 -0.42147979101E+02 -0.97172197882E+01  0.35702521335E+01  0.43400728139E+02  0.00000000000E+00 0. -1.
         11    1    3    3    0    0  0.54784008428E+00 -0.12049151740E+01 -0.24226862775E+01  0.27606807847E+01  0.51100000000E-03 0. -1.
        -11    1    3    3    0    0  0.14760539476E+02 -0.70508263536E+00  0.40413080026E+01  0.15320014288E+02  0.51100000000E-03 0.  1.
        -12    1    3    3    0    0  0.26839599541E+02  0.11627217598E+02 -0.51888738586E+01  0.29706576788E+02  0.00000000000E+00 0.  1.
</event>
<event>
 7    1  0.2599124E-010  0.4778727E+02  0.7816164E-02  0.1312668E+00
        -11   -1    0    0    0    0  0.00000000000E+00  0.00000000000E+00  0.45593999997E+02  0.45594000000E+02  0.51100000000E-03 0.  1.
         11   -1    0    0    0    0 -0.00000000000E+00 -0.00000000000E+00 -0.45593999997E+02  0.45594000000E+02  0.51100000000E-03 0. -1.
    9900012    2    1    2    0    0  0.36409715078E+02  0.21916400867E+02  0.88106241984E+01  0.47787273303E+02  0.20000010299E+02 0.  0.
         12    1    1    2    0    0 -0.36409715078E+02 -0.21916400867E+02 -0.88106241984E+01  0.43400726697E+02  0.00000000000E+00 0. -1.
         11    1    3    3    0    0  0.23249577819E+02  0.17774908689E+02 -0.16193758224E+01  0.29310623091E+02  0.51100000000E-03 0. -1.
        -11    1    3    3    0    0  0.16763955417E+01 -0.95272325714E-01 -0.80477373608E+00  0.18619988871E+01  0.51100000000E-03 0.  1.
        -12    1    3    3    0    0  0.11483741718E+02  0.42367645036E+01  0.11234773757E+02  0.16614651326E+02  0.00000000000E+00 0.  1.
</event>
<event>
 7    1  0.2599124E-010  0.4778727E+02  0.7816164E-02  0.1312668E+00
        -11   -1    0    0    0    0  0.00000000000E+00  0.00000000000E+00  0.45593999997E+02  0.45594000000E+02  0.51100000000E-03 0.  1.
         11   -1    0    0    0    0 -0.00000000000E+00 -0.00000000000E+00 -0.45593999997E+02  0.45594000000E+02  0.51100000000E-03 0. -1.
    9900012    2    1    2    0    0  0.45306628929E+01 -0.33416025057E+02  0.27321523609E+02  0.47787270868E+02  0.19999999197E+02 0.  0.
         12    1    1    2    0    0 -0.45306628929E+01  0.33416025057E+02 -0.27321523609E+02  0.43400729132E+02  0.00000000000E+00 0. -1.
         11    1    3    3    0    0  0.68346378264E+01 -0.58796839924E+01  0.39096130635E+01  0.98269035122E+01  0.51100000000E-03 0. -1.
        -11    1    3    3    0    0  0.22385593658E+01 -0.13451266050E+02  0.54453380304E+01  0.14683303883E+02  0.51100000000E-03 0.  1.
         12    1    3    3    0    0 -0.45425342993E+01 -0.14085075014E+02  0.17966572515E+02  0.23277063474E+02  0.00000000000E+00 0. -1.
</event>
<event>
 7    1  0.2599124E-010  0.4778727E+02  0.7816164E-02  0.1312668E+00
        -11   -1    0    0    0    0  0.00000000000E+00  0.00000000000E+00  0.45593999997E+02  0.45594000000E+02  0.51100000000E-03 0.  1.
         11   -1    0    0    0    0 -0.00000000000E+00 -0.00000000000E+00 -0.45593999997E+02  0.45594000000E+02  0.51100000000E-03 0. -1.
    9900012    2    1    2    0    0  0.24397242866E+02 -0.38562798673E+01  0.35686512389E+02  0.47787268205E+02  0.19999987055E+02 0.  0.
         12    1    1    2    0    0 -0.24397242866E+02  0.38562798673E+01 -0.35686512389E+02  0.43400731795E+02  0.00000000000E+00 0. -1.
         11    1    3    3    0    0  0.12245686870E+02 -0.54631634626E+01  0.12277170234E+02  0.18180536602E+02  0.51100000000E-03 0. -1.
        -11    1    3    3    0    0  0.14270699066E+02  0.27557481452E+00  0.23002734031E+02  0.27071286753E+02  0.51100000000E-03 0.  1.
         12    1    3    3    0    0 -0.21191430701E+01  0.13313087808E+01  0.40660812418E+00  0.25354448501E+01  0.00000000000E+00 0. -1.
</event>
<event>
 7    1  0.2599124E-010  0.4778726E+02  0.7816164E-02  0.1312668E+00
        -11   -1    0    0    0    0  0.00000000000E+00  0.00000000000E+00  0.45593999997E+02  0.45594000000E+02  0.51100000000E-03 0. -1.
         11   -1    0    0    0    0 -0.00000000000E+00 -0.00000000000E+00 -0.45593999997E+02  0.45594000000E+02  0.51100000000E-03 0.  1.
    9900012    2    1    2    0    0 -0.41246559866E+02 -0.82075778134E+01 -0.10722924625E+02  0.47787260987E+02  0.19999954144E+02 0.  0.
         12    1    1    2    0    0  0.41246559866E+02  0.82075778134E+01  0.10722924625E+02  0.43400739013E+02  0.00000000000E+00 0. -1.
         11    1    3    3    0    0 -0.13231865016E+02 -0.67675596779E+01 -0.43430805293E+01  0.15483683816E+02  0.51100000000E-03 0. -1.
        -11    1    3    3    0    0 -0.22401783526E+02 -0.36529224760E+01  0.10629157902E+01  0.22722533706E+02  0.51100000000E-03 0.  1.
        -12    1    3    3    0    0 -0.56129113248E+01  0.22129043405E+01 -0.74427598856E+01  0.95810434649E+01  0.00000000000E+00 0.  1.
</event>
<event>
 7    1  0.2599124E-010  0.4778727E+02  0.7816164E-02  0.1312668E+00
        -11   -1    0    0    0    0  0.00000000000E+00  0.00000000000E+00  0.45593999997E+02  0.45594000000E+02  0.51100000000E-03 0.  1.
         11   -1    0    0    0    0 -0.00000000000E+00 -0.00000000000E+00 -0.45593999997E+02  0.45594000000E+02  0.51100000000E-03 0. -1.
    9900012    2    1    2    0    0  0.32739506682E+02 -0.18941366813E+02  0.21283154230E+02  0.47787270415E+02  0.19999997128E+02 0.  0.
         12    1    1    2    0    0 -0.32739506682E+02  0.18941366813E+02 -0.21283154230E+02  0.43400729585E+02  0.00000000000E+00 0. -1.
         11    1    3    3    0    0  0.61706409510E+01 -0.47153078470E+01  0.74699857846E+00  0.78018552265E+01  0.51100000000E-03 0. -1.
        -11    1    3    3    0    0  0.18824101655E+02 -0.15255190038E+02  0.21131706125E+02  0.32149908713E+02  0.51100000000E-03 0.  1.
         12    1    3    3    0    0  0.77447640764E+01  0.10291310718E+01 -0.59555047316E+00  0.78355064756E+01  0.00000000000E+00 0. -1.
</event>
<event>
 7    1  0.2599124E-010  0.4778727E+02  0.7816164E-02  0.1312668E+00
        -11   -1    0    0    0    0  0.00000000000E+00  0.00000000000E+00  0.45593999997E+02  0.45594000000E+02  0.51100000000E-03 0.  1.
         11   -1    0    0    0    0 -0.00000000000E+00 -0.00000000000E+00 -0.45593999997E+02  0.45594000000E+02  0.51100000000E-03 0. -1.
    9900012    2    1    2    0    0 -0.33294023796E+02  0.17475991414E+02  0.21673049885E+02  0.47787269733E+02  0.19999994020E+02 0.  0.
         12    1    1    2    0    0  0.33294023796E+02 -0.17475991414E+02 -0.21673049885E+02  0.43400730267E+02  0.00000000000E+00 0. -1.
         11    1    3    3    0    0 -0.87349543759E+01  0.32134339689E+01  0.35217735715E+01  0.99513051994E+01  0.51100000000E-03 0. -1.
        -11    1    3    3    0    0 -0.81317849778E+01  0.11302162797E+01  0.14250109357E+02  0.16445939703E+02  0.51100000000E-03 0.  1.
         12    1    3    3    0    0 -0.16427284442E+02  0.13132341165E+02  0.39011669560E+01  0.21390024830E+02  0.00000000000E+00 0. -1.
</event>
<event>
 7    1  0.2599124E-010  0.4778727E+02  0.7816164E-02  0.1312668E+00
        -11   -1    0    0    0    0  0.00000000000E+00  0.00000000000E+00  0.45593999997E+02  0.45594000000E+02  0.51100000000E-03 0. -1.
         11   -1    0    0    0    0 -0.00000000000E+00 -0.00000000000E+00 -0.45593999997E+02  0.45594000000E+02  0.51100000000E-03 0.  1.
    9900012    2    1    2    0    0  0.40385343054E+02 -0.15522125069E+02  0.34221140434E+01  0.47787272301E+02  0.20000005731E+02 0.  0.
         12    1    1    2    0    0 -0.40385343054E+02  0.15522125069E+02 -0.34221140434E+01  0.43400727699E+02  0.00000000000E+00 0. -1.
         11    1    3    3    0    0  0.36297711276E+01  0.67363204326E+00 -0.23653495883E+01  0.43845065292E+01  0.51100000000E-03 0. -1.
        -11    1    3    3    0    0  0.35150072265E+02 -0.10849268859E+02  0.23813409160E+01  0.36863328659E+02  0.51100000000E-03 0.  1.
         12    1    3    3    0    0  0.16054996614E+01 -0.53464882532E+01  0.34061227157E+01  0.65394371132E+01  0.00000000000E+00 0. -1.
</event>
<event>
 7    1  0.2599124E-010  0.4778728E+02  0.7816164E-02  0.1312668E+00
        -11   -1    0    0    0    0  0.00000000000E+00  0.00000000000E+00  0.45593999997E+02  0.45594000000E+02  0.51100000000E-03 0.  1.
         11   -1    0    0    0    0 -0.00000000000E+00 -0.00000000000E+00 -0.45593999997E+02  0.45594000000E+02  0.51100000000E-03 0. -1.
    9900012    2    1    2    0    0  0.21800497756E+02  0.12500732891E+02  0.35384922784E+02  0.47787276669E+02  0.20000025645E+02 0.  0.
         12    1    1    2    0    0 -0.21800497756E+02 -0.12500732891E+02 -0.35384922784E+02  0.43400723331E+02  0.00000000000E+00 0. -1.
         11    1    3    3    0    0  0.81958629228E+01  0.22121174847E-01  0.32376217898E+01  0.88121991302E+01  0.51100000000E-03 0. -1.
        -11    1    3    3    0    0  0.21740029250E+01 -0.22280954438E+01  0.71751489402E+01  0.78213464697E+01  0.51100000000E-03 0.  1.
        -12    1    3    3    0    0  0.11430631908E+02  0.14706707160E+02  0.24972152054E+02  0.31153731069E+02  0.00000000000E+00 0.  1.
</event>
<event>
 7    1  0.2599124E-010  0.4778727E+02  0.7816164E-02  0.1312668E+00
        -11   -1    0    0    0    0  0.00000000000E+00  0.00000000000E+00  0.45593999997E+02  0.45594000000E+02  0.51100000000E-03 0.  1.
         11   -1    0    0    0    0 -0.00000000000E+00 -0.00000000000E+00 -0.45593999997E+02  0.45594000000E+02  0.51100000000E-03 0. -1.
    9900012    2    1    2    0    0  0.14597717157E+02  0.40575910880E+02 -0.49117573308E+01  0.47787271319E+02  0.20000001251E+02 0.  0.
         12    1    1    2    0    0 -0.14597717157E+02 -0.40575910880E+02  0.49117573308E+01  0.43400728681E+02  0.00000000000E+00 0. -1.
         11    1    3    3    0    0  0.26821176899E+01  0.98875171188E+01 -0.76666413045E+01  0.12795864145E+02  0.51100000000E-03 0. -1.
        -11    1    3    3    0    0  0.12851830603E+02  0.24928295252E+02 -0.97921894862E+00  0.28063291397E+02  0.51100000000E-03 0.  1.
        -12    1    3    3    0    0 -0.93623113516E+00  0.57600985096E+01  0.37341029224E+01  0.69281157766E+01  0.00000000000E+00 0.  1.
</event>
<event>
 7    1  0.2599124E-010  0.4778728E+02  0.7816164E-02  0.1312668E+00
        -11   -1    0    0    0    0  0.00000000000E+00  0.00000000000E+00  0.45593999997E+02  0.45594000000E+02  0.51100000000E-03 0.  1.
         11   -1    0    0    0    0 -0.00000000000E+00 -0.00000000000E+00 -0.45593999997E+02  0.45594000000E+02  0.51100000000E-03 0. -1.
    9900012    2    1    2    0    0  0.42669902944E+01  0.17471315148E+02  0.39498972193E+02  0.47787275773E+02  0.20000021558E+02 0.  0.
         12    1    1    2    0    0 -0.42669902944E+01 -0.17471315148E+02 -0.39498972193E+02  0.43400724227E+02  0.00000000000E+00 0. -1.
         11    1    3    3    0    0  0.51900908938E+00  0.66555798490E+01  0.27817836667E+01  0.72321804589E+01  0.51100000000E-03 0. -1.
        -11    1    3    3    0    0 -0.41516765520E+01  0.70158185512E+01  0.13932399293E+02  0.16142177005E+02  0.51100000000E-03 0.  1.
        -12    1    3    3    0    0  0.78996577570E+01  0.37999167480E+01  0.22784789233E+02  0.24412918309E+02  0.00000000000E+00 0.  1.
</event>
<event>
 7    1  0.2599124E-010  0.4778727E+02  0.7816164E-02  0.1312668E+00
        -11   -1    0    0    0    0  0.00000000000E+00  0.00000000000E+00  0.45593999997E+02  0.45594000000E+02  0.51100000000E-03 0.  1.
         11   -1    0    0    0    0 -0.00000000000E+00 -0.00000000000E+00 -0.45593999997E+02  0.45594000000E+02  0.51100000000E-03 0. -1.
    9900012    2    1    2    0    0 -0.19713160056E+02 -0.10604367587E+01  0.38650873116E+02  0.47787271917E+02  0.20000003977E+02 0.  0.
         12    1    1    2    0    0  0.19713160056E+02  0.10604367587E+01 -0.38650873116E+02  0.43400728083E+02  0.00000000000E+00 0. -1.
         11    1    3    3    0    0 -0.28507066225E+01 -0.21251398487E+01  0.25418451235E+00  0.35647380901E+01  0.51100000000E-03 0. -1.
        -11    1    3    3    0    0 -0.11315733269E+02 -0.60969327901E+01  0.21435282223E+02  0.24993793891E+02  0.51100000000E-03 0.  1.
        -12    1    3    3    0    0 -0.55467201652E+01  0.71616358801E+01  0.16961406381E+02  0.19228739935E+02  0.00000000000E+00 0.  1.
</event>
<event>
 7    1  0.2599124E-010  0.4778723E+02  0.7816164E-02  0.1312668E+00
        -11   -1    0    0    0    0  0.00000000000E+00  0.00000000000E+00  0.45593999997E+02  0.45594000000E+02  0.51100000000E-03 0.  1.
         11   -1    0    0    0    0 -0.00000000000E+00 -0.00000000000E+00 -0.45593999997E+02  0.45594000000E+02  0.51100000000E-03 0. -1.
    9900012    2    1    2    0    0 -0.14238032258E+02  0.39000954580E+02  0.12642410785E+02  0.47787233058E+02  0.19999826803E+02 0.  0.
         12    1    1    2    0    0  0.14238032258E+02 -0.39000954580E+02 -0.12642410785E+02  0.43400766942E+02  0.00000000000E+00 0. -1.
         11    1    3    3    0    0  0.63533259314E+00 -0.40983225770E-01  0.30900211877E+00  0.70767909339E+00  0.51100000000E-03 0. -1.
        -11    1    3    3    0    0 -0.80102443915E+01  0.32077894807E+02  0.24133165181E+01  0.33150858923E+02  0.51100000000E-03 0.  1.
         12    1    3    3    0    0 -0.68631204597E+01  0.69640429988E+01  0.99200921479E+01  0.13928695041E+02  0.00000000000E+00 0. -1.
</event>
<event>
 7    1  0.2599124E-010  0.4778728E+02  0.7816164E-02  0.1312668E+00
        -11   -1    0    0    0    0  0.00000000000E+00  0.00000000000E+00  0.45593999997E+02  0.45594000000E+02  0.51100000000E-03 0.  1.
         11   -1    0    0    0    0 -0.00000000000E+00 -0.00000000000E+00 -0.45593999997E+02  0.45594000000E+02  0.51100000000E-03 0. -1.
    9900012    2    1    2    0    0  0.90478182686E+01  0.20342741777E+02  0.37254968690E+02  0.47787275922E+02  0.20000022238E+02 0.  0.
         12    1    1    2    0    0 -0.90478182686E+01 -0.20342741777E+02 -0.37254968690E+02  0.43400724078E+02  0.00000000000E+00 0. -1.
         11    1    3    3    0    0  0.39389418762E+01  0.66120583210E+01  0.53270144560E+00  0.77148136359E+01  0.51100000000E-03 0. -1.
        -11    1    3    3    0    0  0.37851790905E+01  0.69599497793E+01  0.11800146252E+02  0.14213090216E+02  0.51100000000E-03 0.  1.
         12    1    3    3    0    0  0.13236973019E+01  0.67707336767E+01  0.24922120993E+02  0.25859372070E+02  0.00000000000E+00 0. -1.
</event>
<event>
 7    1  0.2599124E-010  0.4778727E+02  0.7816164E-02  0.1312668E+00
        -11   -1    0    0    0    0  0.00000000000E+00  0.00000000000E+00  0.45593999997E+02  0.45594000000E+02  0.51100000000E-03 0. -1.
         11   -1    0    0    0    0 -0.00000000000E+00 -0.00000000000E+00 -0.45593999997E+02  0.45594000000E+02  0.51100000000E-03 0.  1.
    9900012    2    1    2    0    0 -0.24850990413E+02 -0.35141657966E+02  0.55781107022E+01  0.47787272263E+02  0.20000005555E+02 0.  0.
         12    1    1    2    0    0  0.24850990413E+02  0.35141657966E+02 -0.55781107022E+01  0.43400727737E+02  0.00000000000E+00 0. -1.
         11    1    3    3    0    0 -0.10079503302E+02 -0.14385253327E+02  0.84009569008E+01  0.19470695344E+02  0.51100000000E-03 0. -1.
        -11    1    3    3    0    0 -0.77717998617E+01 -0.73031980961E+01  0.43782080942E+01  0.11528498684E+02  0.51100000000E-03 0.  1.
         12    1    3    3    0    0 -0.69996872493E+01 -0.13453206544E+02 -0.72010542927E+01  0.16788078235E+02  0.00000000000E+00 0. -1.
</event>
<event>
 7    1  0.2599124E-010  0.4778724E+02  0.7816164E-02  0.1312668E+00
        -11   -1    0    0    0    0  0.00000000000E+00  0.00000000000E+00  0.45593999997E+02  0.45594000000E+02  0.51100000000E-03 0.  1.
         11   -1    0    0    0    0 -0.00000000000E+00 -0.00000000000E+00 -0.45593999997E+02  0.45594000000E+02  0.51100000000E-03 0. -1.
    9900012    2    1    2    0    0  0.10982081132E+02 -0.41673998902E+02 -0.51281335901E+01  0.47787239125E+02  0.19999854464E+02 0.  0.
         12    1    1    2    0    0 -0.10982081132E+02  0.41673998902E+02  0.51281335901E+01  0.43400760875E+02  0.00000000000E+00 0. -1.
         11    1    3    3    0    0  0.15935566408E+01 -0.40648467003E+01 -0.17918719495E+01  0.47194498418E+01  0.51100000000E-03 0. -1.
        -11    1    3    3    0    0  0.14620871182E+02 -0.23593742483E+02 -0.77910081654E-01  0.27756812294E+02  0.51100000000E-03 0.  1.
         12    1    3    3    0    0 -0.52323466911E+01 -0.14015409718E+02 -0.32583515589E+01  0.15310976989E+02  0.00000000000E+00 0. -1.
</event>
<event>
 7    1  0.2599124E-010  0.4778728E+02  0.7816164E-02  0.1312668E+00
        -11   -1    0    0    0    0  0.00000000000E+00  0.00000000000E+00  0.45593999997E+02  0.45594000000E+02  0.51100000000E-03 0. -1.
         11   -1    0    0    0    0 -0.00000000000E+00 -0.00000000000E+00 -0.45593999997E+02  0.45594000000E+02  0.51100000000E-03 0.  1.
    9900012    2    1    2    0    0 -0.58379252679E+01  0.33502030113E+02 -0.26965819234E+02  0.47787276503E+02  0.20000024886E+02 0.  0.
         12    1    1    2    0    0  0.58379252679E+01 -0.33502030113E+02  0.26965819234E+02  0.43400723497E+02  0.00000000000E+00 0. -1.
         11    1    3    3    0    0  0.12338625719E+01  0.59698901834E+01 -0.11121728997E+02  0.12682857004E+02  0.51100000000E-03 0. -1.
        -11    1    3    3    0    0 -0.73390254191E+01  0.20509905779E+02 -0.17432297476E+02  0.27899866034E+02  0.51100000000E-03 0.  1.
         12    1    3    3    0    0  0.26723757925E+00  0.70222341512E+01  0.15882072383E+01  0.72045534650E+01  0.00000000000E+00 0. -1.
</event>
<event>
 7    1  0.2599124E-010  0.4778730E+02  0.7816164E-02  0.1312668E+00
        -11   -1    0    0    0    0  0.00000000000E+00  0.00000000000E+00  0.45593999997E+02  0.45594000000E+02  0.51100000000E-03 0.  1.
         11   -1    0    0    0    0 -0.00000000000E+00 -0.00000000000E+00 -0.45593999997E+02  0.45594000000E+02  0.51100000000E-03 0. -1.
    9900012    2    1    2    0    0  0.21956776809E+02 -0.35898794286E+02  0.10620625366E+02  0.47787295372E+02  0.20000110917E+02 0.  0.
         12    1    1    2    0    0 -0.21956776809E+02  0.35898794286E+02 -0.10620625366E+02  0.43400704628E+02  0.00000000000E+00 0. -1.
         11    1    3    3    0    0  0.57738977145E+01 -0.63227578241E+01  0.30255988359E+00  0.85677712426E+01  0.51100000000E-03 0. -1.
        -11    1    3    3    0    0 -0.24598291532E+01 -0.13431616157E+01  0.38694758705E+01  0.47778328102E+01  0.51100000000E-03 0.  1.
        -12    1    3    3    0    0  0.18642708248E+02 -0.28232874846E+02  0.64485896124E+01  0.34441691319E+02  0.00000000000E+00 0.  1.
</event>
<event>
 7    1  0.2599124E-010  0.4778727E+02  0.7816164E-02  0.1312668E+00
        -11   -1    0    0    0    0  0.00000000000E+00  0.00000000000E+00  0.45593999997E+02  0.45594000000E+02  0.51100000000E-03 0.  1.
         11   -1    0    0    0    0 -0.00000000000E+00 -0.00000000000E+00 -0.45593999997E+02  0.45594000000E+02  0.51100000000E-03 0. -1.
    9900012    2    1    2    0    0  0.38069601704E+02  0.94933452976E+01  0.18552766602E+02  0.47787270428E+02  0.19999997187E+02 0.  0.
         12    1    1    2    0    0 -0.38069601704E+02 -0.94933452976E+01 -0.18552766602E+02  0.43400729572E+02  0.00000000000E+00 0. -1.
         11    1    3    3    0    0  0.16140602820E+02  0.30953940070E+01  0.23027740959E+01  0.16595279216E+02  0.51100000000E-03 0. -1.
        -11    1    3    3    0    0  0.11072665238E+02 -0.38036206229E+01  0.77467861420E+01  0.14038665930E+02  0.51100000000E-03 0.  1.
         12    1    3    3    0    0  0.10856333646E+02  0.10201571914E+02  0.85032063644E+01  0.17153325282E+02  0.00000000000E+00 0. -1.
</event>
<event>
 7    1  0.2599124E-010  0.4778726E+02  0.7816164E-02  0.1312668E+00
        -11   -1    0    0    0    0  0.00000000000E+00  0.00000000000E+00  0.45593999997E+02  0.45594000000E+02  0.51100000000E-03 0.  1.
         11   -1    0    0    0    0 -0.00000000000E+00 -0.00000000000E+00 -0.45593999997E+02  0.45594000000E+02  0.51100000000E-03 0. -1.
    9900012    2    1    2    0    0 -0.11911839879E+02  0.94358866809E+01 -0.40653363207E+02  0.47787264674E+02  0.19999970956E+02 0.  0.
         12    1    1    2    0    0  0.11911839879E+02 -0.94358866809E+01  0.40653363207E+02  0.43400735326E+02  0.00000000000E+00 0. -1.
         11    1    3    3    0    0 -0.31949604661E+01  0.51169537772E+00 -0.88602728002E+01  0.94326050959E+01  0.51100000000E-03 0. -1.
        -11    1    3    3    0    0 -0.99167208446E+01  0.61495970589E+01 -0.74932270595E+01  0.13867492503E+02  0.51100000000E-03 0.  1.
        -12    1    3    3    0    0  0.11998414316E+01  0.27745942443E+01 -0.24299863347E+02  0.24487167075E+02  0.00000000000E+00 0.  1.
</event>
<event>
 7    1  0.2599124E-010  0.4778727E+02  0.7816164E-02  0.1312668E+00
        -11   -1    0    0    0    0  0.00000000000E+00  0.00000000000E+00  0.45593999997E+02  0.45594000000E+02  0.51100000000E-03 0.  1.
         11   -1    0    0    0    0 -0.00000000000E+00 -0.00000000000E+00 -0.45593999997E+02  0.45594000000E+02  0.51100000000E-03 0. -1.
    9900012    2    1    2    0    0 -0.39481933201E+02  0.13846443582E+02  0.11535883458E+02  0.47787266638E+02  0.19999979910E+02 0.  0.
         12    1    1    2    0    0  0.39481933201E+02 -0.13846443582E+02 -0.11535883458E+02  0.43400733362E+02  0.00000000000E+00 0. -1.
         11    1    3    3    0    0 -0.89250397132E+00  0.65570846125E+00  0.21585949926E+01  0.24261182016E+01  0.51100000000E-03 0.  1.
        -11    1    3    3    0    0  0.34058778461E+00  0.11308253124E+00 -0.25666859690E+01  0.25916529132E+01  0.51100000000E-03 0. -1.
        -12    1    3    3    0    0 -0.38930017015E+02  0.13077652590E+02  0.11943974435E+02  0.42769495523E+02  0.00000000000E+00 0.  1.
</event>
<event>
 7    1  0.2599124E-010  0.4778727E+02  0.7816164E-02  0.1312668E+00
        -11   -1    0    0    0    0  0.00000000000E+00  0.00000000000E+00  0.45593999997E+02  0.45594000000E+02  0.51100000000E-03 0. -1.
         11   -1    0    0    0    0 -0.00000000000E+00 -0.00000000000E+00 -0.45593999997E+02  0.45594000000E+02  0.51100000000E-03 0.  1.
    9900012    2    1    2    0    0  0.59964381572E+00 -0.15940113259E+02 -0.40363054875E+02  0.47787274404E+02  0.20000015318E+02 0.  0.
         12    1    1    2    0    0 -0.59964381572E+00  0.15940113259E+02  0.40363054875E+02  0.43400725596E+02  0.00000000000E+00 0. -1.
         11    1    3    3    0    0  0.63923431664E+01 -0.64730025887E+01 -0.11676691051E+02  0.14802260903E+02  0.51100000000E-03 0. -1.
        -11    1    3    3    0    0  0.10987647648E+01 -0.87735920670E+00 -0.16500478593E+02  0.16560278900E+02  0.51100000000E-03 0.  1.
         12    1    3    3    0    0 -0.68914641155E+01 -0.85897514639E+01 -0.12185885231E+02  0.16424734601E+02  0.00000000000E+00 0. -1.
</event>
<event>
 7    1  0.2599124E-010  0.4778727E+02  0.7816164E-02  0.1312668E+00
        -11   -1    0    0    0    0  0.00000000000E+00  0.00000000000E+00  0.45593999997E+02  0.45594000000E+02  0.51100000000E-03 0.  1.
         11   -1    0    0    0    0 -0.00000000000E+00 -0.00000000000E+00 -0.45593999997E+02  0.45594000000E+02  0.51100000000E-03 0. -1.
    9900012    2    1    2    0    0  0.20864932481E+01  0.22285678817E+02  0.37183574197E+02  0.47787272766E+02  0.20000007848E+02 0.  0.
         12    1    1    2    0    0 -0.20864932481E+01 -0.22285678817E+02 -0.37183574197E+02  0.43400727234E+02  0.00000000000E+00 0. -1.
         11    1    3    3    0    0  0.27603140292E+01 -0.17166582572E+01  0.46747982846E+01  0.56938553173E+01  0.51100000000E-03 0. -1.
        -11    1    3    3    0    0  0.30856175472E+01  0.15703441847E+01  0.76638983403E+01  0.84096584079E+01  0.51100000000E-03 0.  1.
        -12    1    3    3    0    0 -0.37594383282E+01  0.22431992890E+02  0.24844877572E+02  0.33683759041E+02  0.00000000000E+00 0.  1.
</event>
<event>
 7    1  0.2599124E-010  0.4778727E+02  0.7816164E-02  0.1312668E+00
        -11   -1    0    0    0    0  0.00000000000E+00  0.00000000000E+00  0.45593999997E+02  0.45594000000E+02  0.51100000000E-03 0.  1.
         11   -1    0    0    0    0 -0.00000000000E+00 -0.00000000000E+00 -0.45593999997E+02  0.45594000000E+02  0.51100000000E-03 0. -1.
    9900012    2    1    2    0    0 -0.21968685382E+02 -0.81297865501E+01  0.36536375907E+02  0.47787270385E+02  0.19999996992E+02 0.  0.
         12    1    1    2    0    0  0.21968685382E+02  0.81297865501E+01 -0.36536375907E+02  0.43400729615E+02  0.00000000000E+00 0. -1.
         11    1    3    3    0    0 -0.44645063341E+01 -0.74715329687E+01  0.23268652667E+02  0.24843224809E+02  0.51100000000E-03 0. -1.
        -11    1    3    3    0    0  0.42823995443E+00 -0.53012533256E+00  0.84318318715E-01  0.68668199830E+00  0.51100000000E-03 0.  1.
        -12    1    3    3    0    0 -0.17932419002E+02 -0.12812824881E+00  0.13183404921E+02  0.22257363578E+02  0.00000000000E+00 0.  1.
</event>
<event>
 7    1  0.2679743E-010  0.4778727E+02  0.7816164E-02  0.1312668E+00
        -11   -1    0    0    0    0  0.00000000000E+00  0.00000000000E+00  0.45593999997E+02  0.45594000000E+02  0.51100000000E-03 0.  1.
         11   -1    0    0    0    0 -0.00000000000E+00 -0.00000000000E+00 -0.45593999997E+02  0.45594000000E+02  0.51100000000E-03 0. -1.
    9900012    2    1    2    0    0 -0.15461852004E+02  0.39213457522E+02  0.10337269741E+02  0.47787271159E+02  0.20000000524E+02 0.  0.
         12    1    1    2    0    0  0.15461852004E+02 -0.39213457522E+02 -0.10337269741E+02  0.43400728841E+02  0.00000000000E+00 0. -1.
         11    1    3    3    0    0 -0.55181791655E+01  0.25233075652E+01  0.13967548066E+01  0.62264200486E+01  0.51100000000E-03 0. -1.
        -11    1    3    3    0    0 -0.12996628999E+02  0.26319775473E+02  0.38274700766E+01  0.29602237648E+02  0.51100000000E-03 0.  1.
        -12    1    3    3    0    0  0.30529561604E+01  0.10370374483E+02  0.51130448582E+01  0.11958613463E+02  0.00000000000E+00 0.  1.
</event>
<event>
 7    1  0.2599124E-010  0.4778727E+02  0.7816164E-02  0.1312668E+00
        -11   -1    0    0    0    0  0.00000000000E+00  0.00000000000E+00  0.45593999997E+02  0.45594000000E+02  0.51100000000E-03 0.  1.
         11   -1    0    0    0    0 -0.00000000000E+00 -0.00000000000E+00 -0.45593999997E+02  0.45594000000E+02  0.51100000000E-03 0. -1.
    9900012    2    1    2    0    0  0.15651019850E+02  0.40731970898E+01  0.40275027515E+02  0.47787271916E+02  0.20000003975E+02 0.  0.
         12    1    1    2    0    0 -0.15651019850E+02 -0.40731970898E+01 -0.40275027515E+02  0.43400728084E+02  0.00000000000E+00 0. -1.
         11    1    3    3    0    0 -0.60887580850E+00  0.45976452162E+00  0.13171470047E+02  0.13193549054E+02  0.51100000000E-03 0. -1.
        -11    1    3    3    0    0  0.13028205425E+01 -0.43490230982E+01  0.52527826196E+01  0.69428429900E+01  0.51100000000E-03 0.  1.
        -12    1    3    3    0    0  0.14957075116E+02  0.79624556663E+01  0.21850774848E+02  0.27650879873E+02  0.00000000000E+00 0.  1.
</event>
<event>
 7    1  0.2599124E-010  0.4778728E+02  0.7816164E-02  0.1312668E+00
        -11   -1    0    0    0    0  0.00000000000E+00  0.00000000000E+00  0.45593999997E+02  0.45594000000E+02  0.51100000000E-03 0. -1.
         11   -1    0    0    0    0 -0.00000000000E+00 -0.00000000000E+00 -0.45593999997E+02  0.45594000000E+02  0.51100000000E-03 0.  1.
    9900012    2    1    2    0    0 -0.26314696912E+02  0.25724393935E+02 -0.23009009845E+02  0.47787282829E+02  0.20000053732E+02 0.  0.
         12    1    1    2    0    0  0.26314696912E+02 -0.25724393935E+02  0.23009009845E+02  0.43400717171E+02  0.00000000000E+00 0. -1.
         11    1    3    3    0    0 -0.32321928004E+01  0.43754492267E+01  0.30581028690E+01  0.62404823254E+01  0.51100000000E-03 0. -1.
        -11    1    3    3    0    0 -0.91681492545E+01  0.10357341288E+02 -0.69779781189E+01  0.15492632384E+02  0.51100000000E-03 0.  1.
         12    1    3    3    0    0 -0.13914354857E+02  0.10991603421E+02 -0.19089134595E+02  0.26054168120E+02  0.00000000000E+00 0. -1.
</event>
<event>
 7    1  0.2599124E-010  0.4778727E+02  0.7816164E-02  0.1312668E+00
        -11   -1    0    0    0    0  0.00000000000E+00  0.00000000000E+00  0.45593999997E+02  0.45594000000E+02  0.51100000000E-03 0. -1.
         11   -1    0    0    0    0 -0.00000000000E+00 -0.00000000000E+00 -0.45593999997E+02  0.45594000000E+02  0.51100000000E-03 0.  1.
    9900012    2    1    2    0    0  0.37521206623E+02  0.32507771383E+01 -0.21568843060E+02  0.47787268561E+02  0.19999988679E+02 0.  0.
         12    1    1    2    0    0 -0.37521206623E+02 -0.32507771383E+01  0.21568843060E+02  0.43400731439E+02  0.00000000000E+00 0. -1.
         11    1    3    3    0    0  0.14627690849E+01 -0.13419813894E+01 -0.45566116521E+01  0.49702431987E+01  0.51100000000E-03 0. -1.
        -11    1    3    3    0    0 -0.52804118270E+00  0.25166660096E+01 -0.18042534098E+01  0.31413000370E+01  0.51100000000E-03 0.  1.
        -12    1    3    3    0    0  0.36586478721E+02  0.20760925180E+01 -0.15207977998E+02  0.39675725326E+02  0.00000000000E+00 0.  1.
</event>
<event>
 7    1  0.2599124E-010  0.4778727E+02  0.7816164E-02  0.1312668E+00
        -11   -1    0    0    0    0  0.00000000000E+00  0.00000000000E+00  0.45593999997E+02  0.45594000000E+02  0.51100000000E-03 0.  1.
         11   -1    0    0    0    0 -0.00000000000E+00 -0.00000000000E+00 -0.45593999997E+02  0.45594000000E+02  0.51100000000E-03 0. -1.
    9900012    2    1    2    0    0  0.13370660959E+02  0.12276934095E+02  0.39422400635E+02  0.47787270086E+02  0.19999995628E+02 0.  0.
         12    1    1    2    0    0 -0.13370660959E+02 -0.12276934095E+02 -0.39422400635E+02  0.43400729914E+02  0.00000000000E+00 0. -1.
         11    1    3    3    0    0  0.82453255337E+00  0.60966918795E+01  0.51794986138E+01  0.80421832829E+01  0.51100000000E-03 0. -1.
        -11    1    3    3    0    0  0.66323336075E+01  0.95799544651E+01  0.28633811737E+02  0.30913727557E+02  0.51100000000E-03 0.  1.
        -12    1    3    3    0    0  0.59137947986E+01 -0.33997122498E+01  0.56090902843E+01  0.88313592453E+01  0.00000000000E+00 0.  1.
</event>
<event>
 7    1  0.2599124E-010  0.4778727E+02  0.7816164E-02  0.1312668E+00
        -11   -1    0    0    0    0  0.00000000000E+00  0.00000000000E+00  0.45593999997E+02  0.45594000000E+02  0.51100000000E-03 0.  1.
         11   -1    0    0    0    0 -0.00000000000E+00 -0.00000000000E+00 -0.45593999997E+02  0.45594000000E+02  0.51100000000E-03 0. -1.
    9900012    2    1    2    0    0 -0.15173219956E+02 -0.35043680633E+02  0.20623710043E+02  0.47787267608E+02  0.19999984334E+02 0.  0.
         12    1    1    2    0    0  0.15173219956E+02  0.35043680633E+02 -0.20623710043E+02  0.43400732392E+02  0.00000000000E+00 0. -1.
         11    1    3    3    0    0 -0.10131796740E+01 -0.64594532794E+01 -0.44963034079E+00  0.65538719415E+01  0.51100000000E-03 0. -1.
        -11    1    3    3    0    0 -0.13077136161E+02 -0.97471222185E+01  0.72797455550E+01  0.17860923193E+02  0.51100000000E-03 0.  1.
         12    1    3    3    0    0 -0.10829041214E+01 -0.18837105135E+02  0.13793594829E+02  0.23372472474E+02  0.00000000000E+00 0. -1.
</event>
<event>
 7    1  0.2599124E-010  0.4778727E+02  0.7816164E-02  0.1312668E+00
        -11   -1    0    0    0    0  0.00000000000E+00  0.00000000000E+00  0.45593999997E+02  0.45594000000E+02  0.51100000000E-03 0.  1.
         11   -1    0    0    0    0 -0.00000000000E+00 -0.00000000000E+00 -0.45593999997E+02  0.45594000000E+02  0.51100000000E-03 0. -1.
    9900012    2    1    2    0    0 -0.37744637216E+02 -0.16419858386E+02 -0.13760583918E+02  0.47787273534E+02  0.20000011353E+02 0.  0.
         12    1    1    2    0    0  0.37744637216E+02  0.16419858386E+02  0.13760583918E+02  0.43400726466E+02  0.00000000000E+00 0. -1.
         11    1    3    3    0    0 -0.16135999384E+02 -0.37564889717E+01 -0.10936191993E+02  0.19851498208E+02  0.51100000000E-03 0. -1.
        -11    1    3    3    0    0 -0.14670493686E+01  0.22532375606E+01  0.16854543919E+00  0.26940158093E+01  0.51100000000E-03 0.  1.
        -12    1    3    3    0    0 -0.20141588463E+02 -0.14916606975E+02 -0.29929373640E+01  0.25241759517E+02  0.00000000000E+00 0.  1.
</event>
<event>
 7    1  0.2599124E-010  0.4778727E+02  0.7816164E-02  0.1312668E+00
        -11   -1    0    0    0    0  0.00000000000E+00  0.00000000000E+00  0.45593999997E+02  0.45594000000E+02  0.51100000000E-03 0.  1.
         11   -1    0    0    0    0 -0.00000000000E+00 -0.00000000000E+00 -0.45593999997E+02  0.45594000000E+02  0.51100000000E-03 0. -1.
    9900012    2    1    2    0    0 -0.65963424175E+01  0.36211534813E+02  0.22996437435E+02  0.47787272800E+02  0.20000008002E+02 0.  0.
         12    1    1    2    0    0  0.65963424175E+01 -0.36211534813E+02 -0.22996437435E+02  0.43400727200E+02  0.00000000000E+00 0. -1.
         11    1    3    3    0    0  0.22917358145E+01  0.70207364497E+01  0.77949396653E+01  0.10737964332E+02  0.51100000000E-03 0. -1.
        -11    1    3    3    0    0  0.16304826820E+01  0.15992893892E+01 -0.18605896324E+01  0.29458435750E+01  0.51100000000E-03 0.  1.
        -12    1    3    3    0    0 -0.10518560914E+02  0.27591508974E+02  0.17062087402E+02  0.34103464893E+02  0.00000000000E+00 0.  1.
</event>
<event>
 7    1  0.2599124E-010  0.4778727E+02  0.7816164E-02  0.1312668E+00
        -11   -1    0    0    0    0  0.00000000000E+00  0.00000000000E+00  0.45593999997E+02  0.45594000000E+02  0.51100000000E-03 0.  1.
         11   -1    0    0    0    0 -0.00000000000E+00 -0.00000000000E+00 -0.45593999997E+02  0.45594000000E+02  0.51100000000E-03 0. -1.
    9900012    2    1    2    0    0 -0.25345541537E+02 -0.30236233999E+02 -0.18083057870E+02  0.47787270695E+02  0.19999998407E+02 0.  0.
         12    1    1    2    0    0  0.25345541537E+02  0.30236233999E+02  0.18083057870E+02  0.43400729305E+02  0.00000000000E+00 0. -1.
         11    1    3    3    0    0 -0.13279761401E+02 -0.21883241194E+01 -0.58657559374E+01  0.14681550269E+02  0.51100000000E-03 0. -1.
        -11    1    3    3    0    0 -0.51156332214E+01 -0.91630201207E+01 -0.57640436586E+01  0.11973088179E+02  0.51100000000E-03 0.  1.
        -12    1    3    3    0    0 -0.69501469153E+01 -0.18884889759E+02 -0.64532582744E+01  0.21132632247E+02  0.00000000000E+00 0.  1.
</event>
<event>
 7    1  0.2599124E-010  0.4778727E+02  0.7816164E-02  0.1312668E+00
        -11   -1    0    0    0    0  0.00000000000E+00  0.00000000000E+00  0.45593999997E+02  0.45594000000E+02  0.51100000000E-03 0. -1.
         11   -1    0    0    0    0 -0.00000000000E+00 -0.00000000000E+00 -0.45593999997E+02  0.45594000000E+02  0.51100000000E-03 0.  1.
    9900012    2    1    2    0    0  0.42737273923E+02 -0.26214258156E+01 -0.70906134860E+01  0.47787271258E+02  0.20000000975E+02 0.  0.
         12    1    1    2    0    0 -0.42737273923E+02  0.26214258156E+01  0.70906134860E+01  0.43400728742E+02  0.00000000000E+00 0. -1.
         11    1    3    3    0    0  0.11874098487E+02 -0.23562828081E+00 -0.27934364225E+01  0.12200533713E+02  0.51100000000E-03 0. -1.
        -11    1    3    3    0    0  0.14874253873E+02 -0.94485642753E+01 -0.41640977591E+01  0.18106863493E+02  0.51100000000E-03 0.  1.
         12    1    3    3    0    0  0.15988921563E+02  0.70627667406E+01 -0.13307930444E+00  0.17479874052E+02  0.00000000000E+00 0. -1.
</event>
<event>
 7    1  0.2599124E-010  0.4778727E+02  0.7816164E-02  0.1312668E+00
        -11   -1    0    0    0    0  0.00000000000E+00  0.00000000000E+00  0.45593999997E+02  0.45594000000E+02  0.51100000000E-03 0.  1.
         11   -1    0    0    0    0 -0.00000000000E+00 -0.00000000000E+00 -0.45593999997E+02  0.45594000000E+02  0.51100000000E-03 0. -1.
    9900012    2    1    2    0    0 -0.38806235501E+02 -0.27404901515E+01  0.19240297010E+02  0.47787271561E+02  0.20000002356E+02 0.  0.
         12    1    1    2    0    0  0.38806235501E+02  0.27404901515E+01 -0.19240297010E+02  0.43400728439E+02  0.00000000000E+00 0. -1.
         11    1    3    3    0    0 -0.84079535738E+01  0.56842003993E+01  0.45290119459E+01  0.11113764751E+02  0.51100000000E-03 0. -1.
        -11    1    3    3    0    0 -0.22064476198E+02 -0.67751114381E+00  0.11273809527E+02  0.24787071484E+02  0.51100000000E-03 0.  1.
        -12    1    3    3    0    0 -0.83338057294E+01 -0.77471794070E+01  0.34374755369E+01  0.11886435326E+02  0.00000000000E+00 0.  1.
</event>
<event>
 7    1  0.2599124E-010  0.4778727E+02  0.7816164E-02  0.1312668E+00
        -11   -1    0    0    0    0  0.00000000000E+00  0.00000000000E+00  0.45593999997E+02  0.45594000000E+02  0.51100000000E-03 0. -1.
         11   -1    0    0    0    0 -0.00000000000E+00 -0.00000000000E+00 -0.45593999997E+02  0.45594000000E+02  0.51100000000E-03 0.  1.
    9900012    2    1    2    0    0 -0.42284559966E+02  0.32311030705E+01 -0.92303578460E+01  0.47787267926E+02  0.19999985782E+02 0.  0.
         12    1    1    2    0    0  0.42284559966E+02 -0.32311030705E+01  0.92303578460E+01  0.43400732074E+02  0.00000000000E+00 0. -1.
         11    1    3    3    0    0 -0.23792102936E+02  0.49279618831E+01 -0.28478678223E+01  0.24463428252E+02  0.51100000000E-03 0.  1.
        -11    1    3    3    0    0 -0.16760131934E+02 -0.49288508909E+01 -0.19609482307E+01  0.17579559488E+02  0.51100000000E-03 0. -1.
        -12    1    3    3    0    0 -0.17323250959E+01  0.32319920783E+01 -0.44215417930E+01  0.57442801864E+01  0.00000000000E+00 0.  1.
</event>
<event>
 7    1  0.2599124E-010  0.4778727E+02  0.7816164E-02  0.1312668E+00
        -11   -1    0    0    0    0  0.00000000000E+00  0.00000000000E+00  0.45593999997E+02  0.45594000000E+02  0.51100000000E-03 0. -1.
         11   -1    0    0    0    0 -0.00000000000E+00 -0.00000000000E+00 -0.45593999997E+02  0.45594000000E+02  0.51100000000E-03 0.  1.
    9900012    2    1    2    0    0  0.97517425951E+01 -0.39040439605E+02 -0.16259475587E+02  0.47787274723E+02  0.20000016772E+02 0.  0.
         12    1    1    2    0    0 -0.97517425951E+01  0.39040439605E+02  0.16259475587E+02  0.43400725277E+02  0.00000000000E+00 0. -1.
         11    1    3    3    0    0 -0.25430344269E+01 -0.34495889730E+01  0.51603986370E+00  0.43165942108E+01  0.51100000000E-03 0. -1.
        -11    1    3    3    0    0  0.10636053728E+02 -0.15529899772E+02 -0.13289673839E+02  0.23041676520E+02  0.51100000000E-03 0.  1.
         12    1    3    3    0    0  0.16587232940E+01 -0.20060950860E+02 -0.34858416120E+01  0.20429003992E+02  0.00000000000E+00 0. -1.
</event>
<event>
 7    1  0.2599124E-010  0.4778728E+02  0.7816164E-02  0.1312668E+00
        -11   -1    0    0    0    0  0.00000000000E+00  0.00000000000E+00  0.45593999997E+02  0.45594000000E+02  0.51100000000E-03 0. -1.
         11   -1    0    0    0    0 -0.00000000000E+00 -0.00000000000E+00 -0.45593999997E+02  0.45594000000E+02  0.51100000000E-03 0.  1.
    9900012    2    1    2    0    0 -0.30469853399E+02  0.19053701535E+02 -0.24334486915E+02  0.47787276944E+02  0.20000026899E+02 0.  0.
         12    1    1    2    0    0  0.30469853399E+02 -0.19053701535E+02  0.24334486915E+02  0.43400723056E+02  0.00000000000E+00 0. -1.
         11    1    3    3    0    0 -0.19155360887E+02  0.48425608844E+01 -0.16013768241E+02  0.25432636909E+02  0.51100000000E-03 0. -1.
        -11    1    3    3    0    0 -0.12417846832E+02  0.10226612893E+02 -0.85423499440E+01  0.18214232732E+02  0.51100000000E-03 0.  1.
         12    1    3    3    0    0  0.11033543198E+01  0.39845277584E+01  0.22163126960E+00  0.41404073027E+01  0.00000000000E+00 0. -1.
</event>
<event>
 7    1  0.2599124E-010  0.4778727E+02  0.7816164E-02  0.1312668E+00
        -11   -1    0    0    0    0  0.00000000000E+00  0.00000000000E+00  0.45593999997E+02  0.45594000000E+02  0.51100000000E-03 0. -1.
         11   -1    0    0    0    0 -0.00000000000E+00 -0.00000000000E+00 -0.45593999997E+02  0.45594000000E+02  0.51100000000E-03 0.  1.
    9900012    2    1    2    0    0 -0.21364364658E+02 -0.96596962370E+01 -0.36522285997E+02  0.47787272090E+02  0.20000004769E+02 0.  0.
         12    1    1    2    0    0  0.21364364658E+02  0.96596962370E+01  0.36522285997E+02  0.43400727910E+02  0.00000000000E+00 0. -1.
         11    1    3    3    0    0 -0.67664768889E+00 -0.33116460816E+01 -0.18044835159E+02  0.18358674464E+02  0.51100000000E-03 0. -1.
        -11    1    3    3    0    0 -0.19034298991E+01 -0.13408184863E+01  0.36342640086E+00  0.23564631556E+01  0.51100000000E-03 0.  1.
        -12    1    3    3    0    0 -0.18784287070E+02 -0.50072316691E+01 -0.18840877238E+02  0.27072134471E+02  0.00000000000E+00 0.  1.
</event>
<event>
 7    1  0.2599124E-010  0.4778727E+02  0.7816164E-02  0.1312668E+00
        -11   -1    0    0    0    0  0.00000000000E+00  0.00000000000E+00  0.45593999997E+02  0.45594000000E+02  0.51100000000E-03 0.  1.
         11   -1    0    0    0    0 -0.00000000000E+00 -0.00000000000E+00 -0.45593999997E+02  0.45594000000E+02  0.51100000000E-03 0. -1.
    9900012    2    1    2    0    0 -0.15954629862E+01  0.70143030602E+00  0.43365722024E+02  0.47787270130E+02  0.19999995829E+02 0.  0.
         12    1    1    2    0    0  0.15954629862E+01 -0.70143030602E+00 -0.43365722024E+02  0.43400729870E+02  0.00000000000E+00 0. -1.
         11    1    3    3    0    0  0.53065749651E+01 -0.18916928996E+01  0.10665942319E+02  0.12062361531E+02  0.51100000000E-03 0. -1.
        -11    1    3    3    0    0  0.22842173493E+00  0.30719399219E+01  0.10137296596E+01  0.32429368567E+01  0.51100000000E-03 0.  1.
        -12    1    3    3    0    0 -0.71304596862E+01 -0.47881671622E+00  0.31686050045E+02  0.32481971742E+02  0.00000000000E+00 0.  1.
</event>
<event>
 7    1  0.2599124E-010  0.4778727E+02  0.7816164E-02  0.1312668E+00
        -11   -1    0    0    0    0  0.00000000000E+00  0.00000000000E+00  0.45593999997E+02  0.45594000000E+02  0.51100000000E-03 0.  1.
         11   -1    0    0    0    0 -0.00000000000E+00 -0.00000000000E+00 -0.45593999997E+02  0.45594000000E+02  0.51100000000E-03 0. -1.
    9900012    2    1    2    0    0 -0.26891138212E+02 -0.13369301316E+02  0.31332918816E+02  0.47787270357E+02  0.19999996867E+02 0.  0.
         12    1    1    2    0    0  0.26891138212E+02  0.13369301316E+02 -0.31332918816E+02  0.43400729643E+02  0.00000000000E+00 0. -1.
         11    1    3    3    0    0 -0.10834020630E+02 -0.98940309661E+00  0.81858242861E+01  0.13614794931E+02  0.51100000000E-03 0. -1.
        -11    1    3    3    0    0 -0.65852204849E+01 -0.71064728375E+01  0.12892783843E+01  0.97739103760E+01  0.51100000000E-03 0.  1.
        -12    1    3    3    0    0 -0.94718970964E+01 -0.52734253819E+01  0.21857816146E+02  0.24398565050E+02  0.00000000000E+00 0.  1.
</event>
<event>
 7    1  0.2599124E-010  0.4778725E+02  0.7816164E-02  0.1312668E+00
        -11   -1    0    0    0    0  0.00000000000E+00  0.00000000000E+00  0.45593999997E+02  0.45594000000E+02  0.51100000000E-03 0.  1.
         11   -1    0    0    0    0 -0.00000000000E+00 -0.00000000000E+00 -0.45593999997E+02  0.45594000000E+02  0.51100000000E-03 0. -1.
    9900012    2    1    2    0    0 -0.10842874626E+02 -0.36863720668E+02  0.20177298342E+02  0.47787248854E+02  0.19999898825E+02 0.  0.
         12    1    1    2    0    0  0.10842874626E+02  0.36863720668E+02 -0.20177298342E+02  0.43400751146E+02  0.00000000000E+00 0. -1.
         11    1    3    3    0    0 -0.17075946218E+01 -0.57922488149E+00  0.60099785234E+01  0.62746492307E+01  0.51100000000E-03 0. -1.
        -11    1    3    3    0    0  0.54330293556E+00 -0.33639191283E+01  0.49017963797E+01  0.59698189245E+01  0.51100000000E-03 0.  1.
        -12    1    3    3    0    0 -0.96785829400E+01 -0.32920576658E+02  0.92655234394E+01  0.35542780699E+02  0.00000000000E+00 0.  1.
</event>
<event>
 7    1  0.2599124E-010  0.4778727E+02  0.7816164E-02  0.1312668E+00
        -11   -1    0    0    0    0  0.00000000000E+00  0.00000000000E+00  0.45593999997E+02  0.45594000000E+02  0.51100000000E-03 0.  1.
         11   -1    0    0    0    0 -0.00000000000E+00 -0.00000000000E+00 -0.45593999997E+02  0.45594000000E+02  0.51100000000E-03 0. -1.
    9900012    2    1    2    0    0  0.18085772913E+02 -0.32836513678E+02  0.21869870169E+02  0.47787273813E+02  0.20000012622E+02 0.  0.
         12    1    1    2    0    0 -0.18085772913E+02  0.32836513678E+02 -0.21869870169E+02  0.43400726187E+02  0.00000000000E+00 0. -1.
         11    1    3    3    0    0  0.74075021800E+00  0.15546630846E+01  0.26297316261E+01  0.31434339310E+01  0.51100000000E-03 0. -1.
        -11    1    3    3    0    0 -0.43631985935E+00 -0.21402059178E+01  0.44496095181E+01  0.49568015408E+01  0.51100000000E-03 0.  1.
        -12    1    3    3    0    0  0.17781342555E+02 -0.32250970845E+02  0.14790529024E+02  0.39687038341E+02  0.00000000000E+00 0.  1.
</event>
<event>
 7    1  0.3033448E-010  0.4778727E+02  0.7816164E-02  0.1312668E+00
        -11   -1    0    0    0    0  0.00000000000E+00  0.00000000000E+00  0.45593999997E+02  0.45594000000E+02  0.51100000000E-03 0.  1.
         11   -1    0    0    0    0 -0.00000000000E+00 -0.00000000000E+00 -0.45593999997E+02  0.45594000000E+02  0.51100000000E-03 0. -1.
    9900012    2    1    2    0    0 -0.37245232801E+02 -0.22280368654E+02 -0.33742341590E-01  0.47787270371E+02  0.19999996930E+02 0.  0.
         12    1    1    2    0    0  0.37245232801E+02  0.22280368654E+02  0.33742341590E-01  0.43400729629E+02  0.00000000000E+00 0. -1.
         11    1    3    3    0    0 -0.91894909105E+00  0.11928084717E+01  0.19168923662E+01  0.24375676579E+01  0.51100000000E-03 0. -1.
        -11    1    3    3    0    0 -0.16091323660E+02 -0.10635363669E+02  0.58370828011E+01  0.20152250331E+02  0.51100000000E-03 0.  1.
        -12    1    3    3    0    0 -0.20234960050E+02 -0.12837813456E+02 -0.77877175089E+01  0.25197452383E+02  0.00000000000E+00 0.  1.
</event>
<event>
 7    1  0.2599124E-010  0.4778727E+02  0.7816164E-02  0.1312668E+00
        -11   -1    0    0    0    0  0.00000000000E+00  0.00000000000E+00  0.45593999997E+02  0.45594000000E+02  0.51100000000E-03 0. -1.
         11   -1    0    0    0    0 -0.00000000000E+00 -0.00000000000E+00 -0.45593999997E+02  0.45594000000E+02  0.51100000000E-03 0.  1.
    9900012    2    1    2    0    0 -0.32559945006E+02 -0.83914611657E+01 -0.27441878117E+02  0.47787270583E+02  0.19999997896E+02 0.  0.
         12    1    1    2    0    0  0.32559945006E+02  0.83914611657E+01  0.27441878117E+02  0.43400729417E+02  0.00000000000E+00 0. -1.
         11    1    3    3    0    0 -0.37403894552E+01 -0.13491724721E+01 -0.49302269261E+00  0.40067257546E+01  0.51100000000E-03 0. -1.
        -11    1    3    3    0    0 -0.21544237488E+02 -0.12097618395E+02 -0.23993933542E+02  0.34441477710E+02  0.51100000000E-03 0.  1.
         12    1    3    3    0    0 -0.72753180632E+01  0.50553297013E+01 -0.29549218827E+01  0.93390671184E+01  0.00000000000E+00 0. -1.
</event>
<event>
 7    1  0.2599124E-010  0.4778728E+02  0.7816164E-02  0.1312668E+00
        -11   -1    0    0    0    0  0.00000000000E+00  0.00000000000E+00  0.45593999997E+02  0.45594000000E+02  0.51100000000E-03 0. -1.
         11   -1    0    0    0    0 -0.00000000000E+00 -0.00000000000E+00 -0.45593999997E+02  0.45594000000E+02  0.51100000000E-03 0.  1.
    9900012    2    1    2    0    0 -0.12846818989E+02  0.40937140728E+02 -0.65369991952E+01  0.47787278721E+02  0.20000034999E+02 0.  0.
         12    1    1    2    0    0  0.12846818989E+02 -0.40937140728E+02  0.65369991952E+01  0.43400721279E+02  0.00000000000E+00 0. -1.
         11    1    3    3    0    0 -0.98668057915E+01  0.10890174713E+02 -0.16881081509E+01  0.14791871795E+02  0.51100000000E-03 0. -1.
        -11    1    3    3    0    0 -0.92032496413E+00  0.18216218260E+02 -0.89352342714E+01  0.20310490331E+02  0.51100000000E-03 0.  1.
         12    1    3    3    0    0 -0.20596882335E+01  0.11830747755E+02  0.40863432270E+01  0.12684916595E+02  0.00000000000E+00 0. -1.
</event>
<event>
 7    1  0.2599124E-010  0.4778728E+02  0.7816164E-02  0.1312668E+00
        -11   -1    0    0    0    0  0.00000000000E+00  0.00000000000E+00  0.45593999997E+02  0.45594000000E+02  0.51100000000E-03 0. -1.
         11   -1    0    0    0    0 -0.00000000000E+00 -0.00000000000E+00 -0.45593999997E+02  0.45594000000E+02  0.51100000000E-03 0.  1.
    9900012    2    1    2    0    0  0.37713476334E+02  0.19007601648E+02 -0.10001379120E+02  0.47787276482E+02  0.20000024791E+02 0.  0.
         12    1    1    2    0    0 -0.37713476334E+02 -0.19007601648E+02  0.10001379120E+02  0.43400723518E+02  0.00000000000E+00 0. -1.
         11    1    3    3    0    0  0.16097554206E+02  0.55254049022E+01 -0.75722112815E+01  0.18627928889E+02  0.51100000000E-03 0. -1.
        -11    1    3    3    0    0  0.18664145510E+01  0.41701915437E+01 -0.54554251154E+01  0.71158741022E+01  0.51100000000E-03 0.  1.
         12    1    3    3    0    0  0.19749507577E+02  0.93120052021E+01  0.30262572766E+01  0.22043473490E+02  0.00000000000E+00 0. -1.
</event>
<event>
 7    1  0.2599124E-010  0.4778727E+02  0.7816164E-02  0.1312668E+00
        -11   -1    0    0    0    0  0.00000000000E+00  0.00000000000E+00  0.45593999997E+02  0.45594000000E+02  0.51100000000E-03 0.  1.
         11   -1    0    0    0    0 -0.00000000000E+00 -0.00000000000E+00 -0.45593999997E+02  0.45594000000E+02  0.51100000000E-03 0. -1.
    9900012    2    1    2    0    0  0.35485447323E+02  0.24463868371E+02 -0.50916923011E+01  0.47787272381E+02  0.20000006093E+02 0.  0.
         12    1    1    2    0    0 -0.35485447323E+02 -0.24463868371E+02  0.50916923011E+01  0.43400727619E+02  0.00000000000E+00 0. -1.
         11    1    3    3    0    0  0.19748426205E+02  0.18248811187E+02 -0.61763529691E+01  0.27589251232E+02  0.51100000000E-03 0. -1.
        -11    1    3    3    0    0  0.41772230273E+01  0.71525541241E+01 -0.12233075252E+01  0.83728552048E+01  0.51100000000E-03 0.  1.
         12    1    3    3    0    0  0.11559798091E+02 -0.93749694011E+00  0.23079681931E+01  0.11825165944E+02  0.00000000000E+00 0. -1.
</event>
<event>
 7    1  0.2599124E-010  0.4778728E+02  0.7816164E-02  0.1312668E+00
        -11   -1    0    0    0    0  0.00000000000E+00  0.00000000000E+00  0.45593999997E+02  0.45594000000E+02  0.51100000000E-03 0.  1.
         11   -1    0    0    0    0 -0.00000000000E+00 -0.00000000000E+00 -0.45593999997E+02  0.45594000000E+02  0.51100000000E-03 0. -1.
    9900012    2    1    2    0    0  0.42241040668E+02  0.23689019835E+00 -0.99629736539E+01  0.47787280217E+02  0.20000041819E+02 0.  0.
         12    1    1    2    0    0 -0.42241040668E+02 -0.23689019835E+00  0.99629736539E+01  0.43400719783E+02  0.00000000000E+00 0. -1.
         11    1    3    3    0    0  0.81183650869E+01  0.69232093107E+01  0.18567930949E+01  0.10829882719E+02  0.51100000000E-03 0. -1.
        -11    1    3    3    0    0  0.93755946512E+01 -0.14760549801E+01 -0.13515616577E+01  0.95868259891E+01  0.51100000000E-03 0.  1.
         12    1    3    3    0    0  0.24747080930E+02 -0.52102641323E+01 -0.10468205091E+02  0.27370571509E+02  0.00000000000E+00 0. -1.
</event>
<event>
 7    1  0.2599124E-010  0.4778727E+02  0.7816164E-02  0.1312668E+00
        -11   -1    0    0    0    0  0.00000000000E+00  0.00000000000E+00  0.45593999997E+02  0.45594000000E+02  0.51100000000E-03 0.  1.
         11   -1    0    0    0    0 -0.00000000000E+00 -0.00000000000E+00 -0.45593999997E+02  0.45594000000E+02  0.51100000000E-03 0. -1.
    9900012    2    1    2    0    0 -0.33453854691E+02  0.24562355631E+02  0.12694624427E+02  0.47787271928E+02  0.20000004028E+02 0.  0.
         12    1    1    2    0    0  0.33453854691E+02 -0.24562355631E+02 -0.12694624427E+02  0.43400728072E+02  0.00000000000E+00 0. -1.
         11    1    3    3    0    0 -0.10068029117E+02  0.51688502167E+01  0.12036994997E+02  0.16521848313E+02  0.51100000000E-03 0. -1.
        -11    1    3    3    0    0 -0.18191606386E+02  0.11107743087E+02  0.19383872392E+01  0.21402659758E+02  0.51100000000E-03 0.  1.
        -12    1    3    3    0    0 -0.51942191885E+01  0.82857623270E+01 -0.12807578092E+01  0.98627638562E+01  0.00000000000E+00 0.  1.
</event>
<event>
 7    1  0.2599124E-010  0.4778728E+02  0.7816164E-02  0.1312668E+00
        -11   -1    0    0    0    0  0.00000000000E+00  0.00000000000E+00  0.45593999997E+02  0.45594000000E+02  0.51100000000E-03 0.  1.
         11   -1    0    0    0    0 -0.00000000000E+00 -0.00000000000E+00 -0.45593999997E+02  0.45594000000E+02  0.51100000000E-03 0. -1.
    9900012    2    1    2    0    0 -0.78301348243E+01  0.21923282741E+02  0.36628966803E+02  0.47787279423E+02  0.20000038202E+02 0.  0.
         12    1    1    2    0    0  0.78301348243E+01 -0.21923282741E+02 -0.36628966803E+02  0.43400720577E+02  0.00000000000E+00 0. -1.
         11    1    3    3    0    0 -0.27497317691E+01  0.79629779103E+01  0.37824539162E+01  0.92345546666E+01  0.51100000000E-03 0. -1.
        -11    1    3    3    0    0 -0.84682414714E+01  0.46896485308E+01  0.11479261565E+02  0.15015903679E+02  0.51100000000E-03 0.  1.
        -12    1    3    3    0    0  0.33878384162E+01  0.92706563000E+01  0.21367251322E+02  0.23536821078E+02  0.00000000000E+00 0.  1.
</event>
<event>
 7    1  0.2599124E-010  0.4778727E+02  0.7816164E-02  0.1312668E+00
        -11   -1    0    0    0    0  0.00000000000E+00  0.00000000000E+00  0.45593999997E+02  0.45594000000E+02  0.51100000000E-03 0.  1.
         11   -1    0    0    0    0 -0.00000000000E+00 -0.00000000000E+00 -0.45593999997E+02  0.45594000000E+02  0.51100000000E-03 0. -1.
    9900012    2    1    2    0    0  0.36168541021E+02 -0.12798533915E+02  0.20289338821E+02  0.47787273051E+02  0.20000009148E+02 0.  0.
         12    1    1    2    0    0 -0.36168541021E+02  0.12798533915E+02 -0.20289338821E+02  0.43400726949E+02  0.00000000000E+00 0. -1.
         11    1    3    3    0    0  0.66278561649E+01 -0.52416081699E+01  0.69246829326E+00  0.84783516174E+01  0.51100000000E-03 0.  1.
        -11    1    3    3    0    0  0.26802555121E+02 -0.10773326762E+02  0.19894072008E+02  0.35074429887E+02  0.51100000000E-03 0. -1.
         12    1    3    3    0    0  0.27381297342E+01  0.32164010161E+01 -0.29720148101E+00  0.42344915466E+01  0.00000000000E+00 0. -1.
</event>
<event>
 7    1  0.2599124E-010  0.4778725E+02  0.7816164E-02  0.1312668E+00
        -11   -1    0    0    0    0  0.00000000000E+00  0.00000000000E+00  0.45593999997E+02  0.45594000000E+02  0.51100000000E-03 0.  1.
         11   -1    0    0    0    0 -0.00000000000E+00 -0.00000000000E+00 -0.45593999997E+02  0.45594000000E+02  0.51100000000E-03 0. -1.
    9900012    2    1    2    0    0 -0.11805254661E+02 -0.41763507913E+02  0.26585999918E+00  0.47787247560E+02  0.19999892926E+02 0.  0.
         12    1    1    2    0    0  0.11805254661E+02  0.41763507913E+02 -0.26585999918E+00  0.43400752440E+02  0.00000000000E+00 0. -1.
         11    1    3    3    0    0 -0.11629669437E+02 -0.29337987283E+02  0.15667848367E+01  0.31597808849E+02  0.51100000000E-03 0.  1.
        -11    1    3    3    0    0 -0.33470910684E+01 -0.23537950650E+01  0.26947164256E+01  0.48994761663E+01  0.51100000000E-03 0. -1.
         12    1    3    3    0    0  0.31715058447E+01 -0.10071725564E+02 -0.39956412632E+01  0.11289962545E+02  0.00000000000E+00 0. -1.
</event>
<event>
 7    1  0.2599124E-010  0.4778727E+02  0.7816164E-02  0.1312668E+00
        -11   -1    0    0    0    0  0.00000000000E+00  0.00000000000E+00  0.45593999997E+02  0.45594000000E+02  0.51100000000E-03 0.  1.
         11   -1    0    0    0    0 -0.00000000000E+00 -0.00000000000E+00 -0.45593999997E+02  0.45594000000E+02  0.51100000000E-03 0. -1.
    9900012    2    1    2    0    0  0.20154180440E+02  0.37116222136E+02  0.99909345619E+01  0.47787266040E+02  0.19999977181E+02 0.  0.
         12    1    1    2    0    0 -0.20154180440E+02 -0.37116222136E+02 -0.99909345619E+01  0.43400733960E+02  0.00000000000E+00 0. -1.
         11    1    3    3    0    0  0.41319053986E+01  0.75343268681E+01  0.53665894600E+01  0.10131091070E+02  0.51100000000E-03 0. -1.
        -11    1    3    3    0    0  0.65456907253E+01  0.10732302943E+02  0.97922466691E+01  0.15934757250E+02  0.51100000000E-03 0.  1.
        -12    1    3    3    0    0  0.94765843163E+01  0.18849592325E+02 -0.51679015673E+01  0.21721417719E+02  0.00000000000E+00 0.  1.
</event>
<event>
 7    1  0.2599124E-010  0.4778727E+02  0.7816164E-02  0.1312668E+00
        -11   -1    0    0    0    0  0.00000000000E+00  0.00000000000E+00  0.45593999997E+02  0.45594000000E+02  0.51100000000E-03 0.  1.
         11   -1    0    0    0    0 -0.00000000000E+00 -0.00000000000E+00 -0.45593999997E+02  0.45594000000E+02  0.51100000000E-03 0. -1.
    9900012    2    1    2    0    0  0.32296760351E+02  0.28545413583E+02  0.50697113480E+01  0.47787270295E+02  0.19999996582E+02 0.  0.
         12    1    1    2    0    0 -0.32296760351E+02 -0.28545413583E+02 -0.50697113480E+01  0.43400729705E+02  0.00000000000E+00 0. -1.
         11    1    3    3    0    0  0.31524193123E+01  0.91444219559E+01  0.17771547373E+01  0.98344537036E+01  0.51100000000E-03 0. -1.
        -11    1    3    3    0    0  0.15117983653E+02  0.17886869694E+02 -0.19314554247E+00  0.23420735314E+02  0.51100000000E-03 0.  1.
        -12    1    3    3    0    0  0.14026357386E+02  0.15141219330E+01  0.34857021531E+01  0.14532081277E+02  0.00000000000E+00 0.  1.
</event>
<event>
 7    1  0.2599124E-010  0.4778728E+02  0.7816164E-02  0.1312668E+00
        -11   -1    0    0    0    0  0.00000000000E+00  0.00000000000E+00  0.45593999997E+02  0.45594000000E+02  0.51100000000E-03 0. -1.
         11   -1    0    0    0    0 -0.00000000000E+00 -0.00000000000E+00 -0.45593999997E+02  0.45594000000E+02  0.51100000000E-03 0.  1.
    9900012    2    1    2    0    0  0.25265868922E+02  0.29213948992E+02  0.19794024037E+02  0.47787281853E+02  0.20000049282E+02 0.  0.
         12    1    1    2    0    0 -0.25265868922E+02 -0.29213948992E+02 -0.19794024037E+02  0.43400718147E+02  0.00000000000E+00 0. -1.
         11    1    3    3    0    0  0.40214523146E+01  0.74526383858E+00 -0.67427864681E+00  0.41451355662E+01  0.51100000000E-03 0. -1.
        -11    1    3    3    0    0  0.75207784745E+01  0.14199971229E+02  0.13578711851E+01  0.16125914119E+02  0.51100000000E-03 0.  1.
         12    1    3    3    0    0  0.13723638133E+02  0.14268713924E+02  0.19110431499E+02  0.27516232168E+02  0.00000000000E+00 0. -1.
</event>
<event>
 7    1  0.2599124E-010  0.4778727E+02  0.7816164E-02  0.1312668E+00
        -11   -1    0    0    0    0  0.00000000000E+00  0.00000000000E+00  0.45593999997E+02  0.45594000000E+02  0.51100000000E-03 0.  1.
         11   -1    0    0    0    0 -0.00000000000E+00 -0.00000000000E+00 -0.45593999997E+02  0.45594000000E+02  0.51100000000E-03 0. -1.
    9900012    2    1    2    0    0 -0.18282586158E+02  0.36819786703E+02  0.13916656300E+02  0.47787274522E+02  0.20000015855E+02 0.  0.
         12    1    1    2    0    0  0.18282586158E+02 -0.36819786703E+02 -0.13916656300E+02  0.43400725478E+02  0.00000000000E+00 0. -1.
         11    1    3    3    0    0  0.11612196677E+01 -0.16123575887E+01  0.16424493625E+00  0.19937664785E+01  0.51100000000E-03 0. -1.
        -11    1    3    3    0    0 -0.60085297093E+01  0.86043105964E+01  0.52866609696E+00  0.10507905510E+02  0.51100000000E-03 0.  1.
        -12    1    3    3    0    0 -0.13435276116E+02  0.29827833695E+02  0.13223745267E+02  0.35285602533E+02  0.00000000000E+00 0.  1.
</event>
<event>
 7    1  0.2599124E-010  0.4778727E+02  0.7816164E-02  0.1312668E+00
        -11   -1    0    0    0    0  0.00000000000E+00  0.00000000000E+00  0.45593999997E+02  0.45594000000E+02  0.51100000000E-03 0. -1.
         11   -1    0    0    0    0 -0.00000000000E+00 -0.00000000000E+00 -0.45593999997E+02  0.45594000000E+02  0.51100000000E-03 0.  1.
    9900012    2    1    2    0    0  0.28456414567E+02 -0.64737379694E+01  0.32123921195E+02  0.47787272745E+02  0.20000007756E+02 0.  0.
         12    1    1    2    0    0 -0.28456414567E+02  0.64737379694E+01 -0.32123921195E+02  0.43400727255E+02  0.00000000000E+00 0. -1.
         11    1    3    3    0    0  0.43036012786E+01 -0.43152869280E+01  0.12780145859E+02  0.14158912870E+02  0.51100000000E-03 0. -1.
        -11    1    3    3    0    0  0.94447212731E+01 -0.44914221541E+01  0.14677692219E+02  0.18022493780E+02  0.51100000000E-03 0.  1.
         12    1    3    3    0    0  0.14708092015E+02  0.23329711127E+01  0.46660831168E+01  0.15605866096E+02  0.00000000000E+00 0. -1.
</event>
<event>
 7    1  0.2599124E-010  0.4778727E+02  0.7816164E-02  0.1312668E+00
        -11   -1    0    0    0    0  0.00000000000E+00  0.00000000000E+00  0.45593999997E+02  0.45594000000E+02  0.51100000000E-03 0. -1.
         11   -1    0    0    0    0 -0.00000000000E+00 -0.00000000000E+00 -0.45593999997E+02  0.45594000000E+02  0.51100000000E-03 0.  1.
    9900012    2    1    2    0    0 -0.77481637578E+01  0.21476040953E+01 -0.42649464128E+02  0.47787273792E+02  0.20000012527E+02 0.  0.
         12    1    1    2    0    0  0.77481637578E+01 -0.21476040953E+01  0.42649464128E+02  0.43400726208E+02  0.00000000000E+00 0. -1.
         11    1    3    3    0    0  0.10464227839E+01 -0.12313178993E+00  0.52447434765E+00  0.11769603574E+01  0.51100000000E-03 0. -1.
        -11    1    3    3    0    0 -0.59043201092E+01  0.80909316509E+01 -0.17873695655E+02  0.20488854716E+02  0.51100000000E-03 0.  1.
         12    1    3    3    0    0 -0.28902664326E+01 -0.58201957657E+01 -0.25300242821E+02  0.26121458718E+02  0.00000000000E+00 0. -1.
</event>
<event>
 7    1  0.2599124E-010  0.4778727E+02  0.7816164E-02  0.1312668E+00
        -11   -1    0    0    0    0  0.00000000000E+00  0.00000000000E+00  0.45593999997E+02  0.45594000000E+02  0.51100000000E-03 0. -1.
         11   -1    0    0    0    0 -0.00000000000E+00 -0.00000000000E+00 -0.45593999997E+02  0.45594000000E+02  0.51100000000E-03 0.  1.
    9900012    2    1    2    0    0  0.19165601051E+02 -0.28811329202E+02 -0.26195614089E+02  0.47787272454E+02  0.20000006427E+02 0.  0.
         12    1    1    2    0    0 -0.19165601051E+02  0.28811329202E+02  0.26195614089E+02  0.43400727546E+02  0.00000000000E+00 0. -1.
         11    1    3    3    0    0  0.26243465354E+01 -0.18370823489E+00 -0.29226760839E+01  0.39322994807E+01  0.51100000000E-03 0. -1.
        -11    1    3    3    0    0  0.23229361195E+00 -0.10295056901E+02 -0.39225115283E+00  0.10305145227E+02  0.51100000000E-03 0.  1.
        -12    1    3    3    0    0  0.16308960904E+02 -0.18332564066E+02 -0.22880686852E+02  0.33549827746E+02  0.00000000000E+00 0.  1.
</event>
<event>
 7    1  0.2599124E-010  0.4778727E+02  0.7816164E-02  0.1312668E+00
        -11   -1    0    0    0    0  0.00000000000E+00  0.00000000000E+00  0.45593999997E+02  0.45594000000E+02  0.51100000000E-03 0.  1.
         11   -1    0    0    0    0 -0.00000000000E+00 -0.00000000000E+00 -0.45593999997E+02  0.45594000000E+02  0.51100000000E-03 0. -1.
    9900012    2    1    2    0    0 -0.23986423393E+02  0.36162257301E+02 -0.75236809920E+00  0.47787269384E+02  0.19999992428E+02 0.  0.
         12    1    1    2    0    0  0.23986423393E+02 -0.36162257301E+02  0.75236809920E+00  0.43400730616E+02  0.00000000000E+00 0. -1.
         11    1    3    3    0    0 -0.44391604028E+01  0.73179682813E+01 -0.42603720150E+01  0.95608354664E+01  0.51100000000E-03 0. -1.
        -11    1    3    3    0    0 -0.41255125303E+01  0.11945755995E+02 -0.53097732636E+01  0.13708195807E+02  0.51100000000E-03 0.  1.
        -12    1    3    3    0    0 -0.15421750460E+02  0.16898533025E+02  0.88177771795E+01  0.24518238110E+02  0.00000000000E+00 0.  1.
</event>
<event>
 7    1  0.2599124E-010  0.4778727E+02  0.7816164E-02  0.1312668E+00
        -11   -1    0    0    0    0  0.00000000000E+00  0.00000000000E+00  0.45593999997E+02  0.45594000000E+02  0.51100000000E-03 0.  1.
         11   -1    0    0    0    0 -0.00000000000E+00 -0.00000000000E+00 -0.45593999997E+02  0.45594000000E+02  0.51100000000E-03 0. -1.
    9900012    2    1    2    0    0 -0.79631487604E+01 -0.20159284875E+02  0.37600727140E+02  0.47787272053E+02  0.20000004598E+02 0.  0.
         12    1    1    2    0    0  0.79631487604E+01  0.20159284875E+02 -0.37600727140E+02  0.43400727947E+02  0.00000000000E+00 0. -1.
         11    1    3    3    0    0  0.35548500354E+01 -0.32094996085E+01  0.17812563007E+01  0.51098650453E+01  0.51100000000E-03 0. -1.
        -11    1    3    3    0    0  0.16736582848E+01 -0.45308367296E+01  0.10347144510E+02  0.11418976018E+02  0.51100000000E-03 0.  1.
        -12    1    3    3    0    0 -0.13191657081E+02 -0.12418948537E+02  0.25472326330E+02  0.31258430990E+02  0.00000000000E+00 0.  1.
</event>
<event>
 7    1  0.2599124E-010  0.4778727E+02  0.7816164E-02  0.1312668E+00
        -11   -1    0    0    0    0  0.00000000000E+00  0.00000000000E+00  0.45593999997E+02  0.45594000000E+02  0.51100000000E-03 0.  1.
         11   -1    0    0    0    0 -0.00000000000E+00 -0.00000000000E+00 -0.45593999997E+02  0.45594000000E+02  0.51100000000E-03 0. -1.
    9900012    2    1    2    0    0  0.17663118842E+02  0.20487311487E+02  0.33939765563E+02  0.47787269756E+02  0.19999994128E+02 0.  0.
         12    1    1    2    0    0 -0.17663118842E+02 -0.20487311487E+02 -0.33939765563E+02  0.43400730244E+02  0.00000000000E+00 0. -1.
         11    1    3    3    0    0  0.98909434461E+01  0.11150874343E+02  0.89434066283E+01  0.17382671925E+02  0.51100000000E-03 0. -1.
        -11    1    3    3    0    0  0.47699322435E+01  0.10656692392E+01  0.11986404725E+01  0.50323596631E+01  0.51100000000E-03 0.  1.
        -12    1    3    3    0    0  0.30022431526E+01  0.82707679049E+01  0.23797718462E+02  0.25372238169E+02  0.00000000000E+00 0.  1.
</event>
<event>
 7    1  0.2599124E-010  0.4778727E+02  0.7816164E-02  0.1312668E+00
        -11   -1    0    0    0    0  0.00000000000E+00  0.00000000000E+00  0.45593999997E+02  0.45594000000E+02  0.51100000000E-03 0.  1.
         11   -1    0    0    0    0 -0.00000000000E+00 -0.00000000000E+00 -0.45593999997E+02  0.45594000000E+02  0.51100000000E-03 0. -1.
    9900012    2    1    2    0    0  0.12045217080E+02  0.10303865905E+02  0.40402550719E+02  0.47787274065E+02  0.20000013774E+02 0.  0.
         12    1    1    2    0    0 -0.12045217080E+02 -0.10303865905E+02 -0.40402550719E+02  0.43400725935E+02  0.00000000000E+00 0. -1.
         11    1    3    3    0    0  0.75305968932E+01 -0.18024039034E+01  0.14777540479E+02  0.16683352549E+02  0.51100000000E-03 0. -1.
        -11    1    3    3    0    0  0.73039691001E+01  0.32108692436E+01  0.14835033128E+02  0.16844460635E+02  0.51100000000E-03 0.  1.
         12    1    3    3    0    0 -0.27893489135E+01  0.88954005645E+01  0.10789977112E+02  0.14259460882E+02  0.00000000000E+00 0. -1.
</event>
<event>
 7    1  0.2599124E-010  0.4778727E+02  0.7816164E-02  0.1312668E+00
        -11   -1    0    0    0    0  0.00000000000E+00  0.00000000000E+00  0.45593999997E+02  0.45594000000E+02  0.51100000000E-03 0. -1.
         11   -1    0    0    0    0 -0.00000000000E+00 -0.00000000000E+00 -0.45593999997E+02  0.45594000000E+02  0.51100000000E-03 0.  1.
    9900012    2    1    2    0    0  0.33385328744E+02  0.14634660213E+02 -0.23555685441E+02  0.47787265311E+02  0.19999973861E+02 0.  0.
         12    1    1    2    0    0 -0.33385328744E+02 -0.14634660213E+02  0.23555685441E+02  0.43400734689E+02  0.00000000000E+00 0. -1.
         11    1    3    3    0    0  0.86728647239E+01  0.24928113778E+01 -0.21067583546E+01  0.92666672601E+01  0.51100000000E-03 0. -1.
        -11    1    3    3    0    0  0.12034238483E+02  0.11019207294E+01 -0.11131668607E+01  0.12135743318E+02  0.51100000000E-03 0.  1.
         12    1    3    3    0    0  0.12678225538E+02  0.11039928106E+02 -0.20335760225E+02  0.26384854733E+02  0.00000000000E+00 0. -1.
</event>
<event>
 7    1  0.2599124E-010  0.4778727E+02  0.7816164E-02  0.1312668E+00
        -11   -1    0    0    0    0  0.00000000000E+00  0.00000000000E+00  0.45593999997E+02  0.45594000000E+02  0.51100000000E-03 0.  1.
         11   -1    0    0    0    0 -0.00000000000E+00 -0.00000000000E+00 -0.45593999997E+02  0.45594000000E+02  0.51100000000E-03 0. -1.
    9900012    2    1    2    0    0  0.34221391784E+02 -0.58948360658E+00  0.26686551838E+02  0.47787271947E+02  0.20000004113E+02 0.  0.
         12    1    1    2    0    0 -0.34221391784E+02  0.58948360658E+00 -0.26686551838E+02  0.43400728053E+02  0.00000000000E+00 0. -1.
         11    1    3    3    0    0  0.12452865333E+02 -0.27320071902E+01  0.16021271398E+02  0.20474834694E+02  0.51100000000E-03 0. -1.
        -11    1    3    3    0    0  0.24483428167E+00  0.25010959898E+01  0.40963870554E+01  0.48058102485E+01  0.51100000000E-03 0.  1.
        -12    1    3    3    0    0  0.21523692170E+02 -0.35857240617E+00  0.65688933845E+01  0.22506627004E+02  0.00000000000E+00 0.  1.
</event>
<event>
 7    1  0.2599124E-010  0.4778726E+02  0.7816164E-02  0.1312668E+00
        -11   -1    0    0    0    0  0.00000000000E+00  0.00000000000E+00  0.45593999997E+02  0.45594000000E+02  0.51100000000E-03 0. -1.
         11   -1    0    0    0    0 -0.00000000000E+00 -0.00000000000E+00 -0.45593999997E+02  0.45594000000E+02  0.51100000000E-03 0.  1.
    9900012    2    1    2    0    0 -0.14827551292E+01 -0.43174208367E+02 -0.41729101384E+01  0.47787262565E+02  0.19999961338E+02 0.  0.
         12    1    1    2    0    0  0.14827551292E+01  0.43174208367E+02  0.41729101384E+01  0.43400737435E+02  0.00000000000E+00 0. -1.
         11    1    3    3    0    0 -0.42354960537E+01 -0.81647798980E+01  0.64594419548E+00  0.92206454095E+01  0.51100000000E-03 0.  1.
        -11    1    3    3    0    0  0.92110345753E+00 -0.26192572537E+02 -0.10145663761E+02  0.28103981588E+02  0.51100000000E-03 0. -1.
         12    1    3    3    0    0  0.18316374670E+01 -0.88168559323E+01  0.53268094273E+01  0.10462635567E+02  0.00000000000E+00 0. -1.
</event>
<event>
 7    1  0.2599124E-010  0.4778727E+02  0.7816164E-02  0.1312668E+00
        -11   -1    0    0    0    0  0.00000000000E+00  0.00000000000E+00  0.45593999997E+02  0.45594000000E+02  0.51100000000E-03 0.  1.
         11   -1    0    0    0    0 -0.00000000000E+00 -0.00000000000E+00 -0.45593999997E+02  0.45594000000E+02  0.51100000000E-03 0. -1.
    9900012    2    1    2    0    0  0.34612407822E+01  0.43090252782E+02  0.38565546743E+01  0.47787273203E+02  0.20000009840E+02 0.  0.
         12    1    1    2    0    0 -0.34612407822E+01 -0.43090252782E+02 -0.38565546743E+01  0.43400726797E+02  0.00000000000E+00 0. -1.
         11    1    3    3    0    0  0.22649824465E+01  0.48723702174E+01 -0.97473558434E+00  0.54607917685E+01  0.51100000000E-03 0. -1.
        -11    1    3    3    0    0 -0.54574695276E+01  0.40849920089E+01 -0.14985091510E+01  0.69797323225E+01  0.51100000000E-03 0.  1.
        -12    1    3    3    0    0  0.66537278633E+01  0.34132890556E+02  0.63297994096E+01  0.35346749111E+02  0.00000000000E+00 0.  1.
</event>
<event>
 7    1  0.2599124E-010  0.4778727E+02  0.7816164E-02  0.1312668E+00
        -11   -1    0    0    0    0  0.00000000000E+00  0.00000000000E+00  0.45593999997E+02  0.45594000000E+02  0.51100000000E-03 0.  1.
         11   -1    0    0    0    0 -0.00000000000E+00 -0.00000000000E+00 -0.45593999997E+02  0.45594000000E+02  0.51100000000E-03 0. -1.
    9900012    2    1    2    0    0  0.37962694595E+02 -0.15980001819E+02 -0.13678327930E+02  0.47787270812E+02  0.19999998941E+02 0.  0.
         12    1    1    2    0    0 -0.37962694595E+02  0.15980001819E+02  0.13678327930E+02  0.43400729188E+02  0.00000000000E+00 0. -1.
         11    1    3    3    0    0 -0.50754239767E-01 -0.30564586005E+01 -0.28880776315E+01  0.42054141100E+01  0.51100000000E-03 0. -1.
        -11    1    3    3    0    0  0.13868144153E+02 -0.11365509683E+02 -0.31214788517E+01  0.18200106129E+02  0.51100000000E-03 0.  1.
         12    1    3    3    0    0  0.24145304682E+02 -0.15580335355E+01 -0.76687714464E+01  0.25381750574E+02  0.00000000000E+00 0. -1.
</event>
<event>
 7    1  0.2599124E-010  0.4778727E+02  0.7816164E-02  0.1312668E+00
        -11   -1    0    0    0    0  0.00000000000E+00  0.00000000000E+00  0.45593999997E+02  0.45594000000E+02  0.51100000000E-03 0. -1.
         11   -1    0    0    0    0 -0.00000000000E+00 -0.00000000000E+00 -0.45593999997E+02  0.45594000000E+02  0.51100000000E-03 0.  1.
    9900012    2    1    2    0    0 -0.36089849243E+02 -0.40838084767E+00 -0.24103517789E+02  0.47787267712E+02  0.19999984808E+02 0.  0.
         12    1    1    2    0    0  0.36089849243E+02  0.40838084767E+00  0.24103517789E+02  0.43400732288E+02  0.00000000000E+00 0. -1.
         11    1    3    3    0    0 -0.10805102433E+01  0.10108074737E+01  0.23910006075E+01  0.28117820507E+01  0.51100000000E-03 0. -1.
        -11    1    3    3    0    0 -0.69948105852E+01 -0.40297760777E+01 -0.43476894772E+01  0.91689080271E+01  0.51100000000E-03 0.  1.
        -12    1    3    3    0    0 -0.28014528414E+02  0.26105877564E+01 -0.22146828920E+02  0.35806577635E+02  0.00000000000E+00 0.  1.
</event>
<event>
 7    1  0.2599124E-010  0.4778728E+02  0.7816164E-02  0.1312668E+00
        -11   -1    0    0    0    0  0.00000000000E+00  0.00000000000E+00  0.45593999997E+02  0.45594000000E+02  0.51100000000E-03 0.  1.
         11   -1    0    0    0    0 -0.00000000000E+00 -0.00000000000E+00 -0.45593999997E+02  0.45594000000E+02  0.51100000000E-03 0. -1.
    9900012    2    1    2    0    0  0.39186847534E+02 -0.11909138095E+02  0.14359165337E+02  0.47787283197E+02  0.20000055408E+02 0.  0.
         12    1    1    2    0    0 -0.39186847534E+02  0.11909138095E+02 -0.14359165337E+02  0.43400716803E+02  0.00000000000E+00 0. -1.
         11    1    3    3    0    0  0.99366760532E+01 -0.11016506989E+02  0.50415824305E+01  0.15669030311E+02  0.51100000000E-03 0. -1.
        -11    1    3    3    0    0  0.15717126324E+02 -0.48965865348E+01  0.66541437018E+01  0.17756189013E+02  0.51100000000E-03 0.  1.
         12    1    3    3    0    0  0.13533045157E+02  0.40039554289E+01  0.26634392047E+01  0.14362063873E+02  0.00000000000E+00 0. -1.
</event>
<event>
 7    1  0.2599124E-010  0.4778727E+02  0.7816164E-02  0.1312668E+00
        -11   -1    0    0    0    0  0.00000000000E+00  0.00000000000E+00  0.45593999997E+02  0.45594000000E+02  0.51100000000E-03 0.  1.
         11   -1    0    0    0    0 -0.00000000000E+00 -0.00000000000E+00 -0.45593999997E+02  0.45594000000E+02  0.51100000000E-03 0. -1.
    9900012    2    1    2    0    0  0.40581586037E+02 -0.13599836109E+02  0.71973816189E+01  0.47787274549E+02  0.20000015979E+02 0.  0.
         12    1    1    2    0    0 -0.40581586037E+02  0.13599836109E+02 -0.71973816189E+01  0.43400725451E+02  0.00000000000E+00 0. -1.
         11    1    3    3    0    0  0.20007355153E+01 -0.60980750760E+00 -0.69132751301E+00  0.22028939579E+01  0.51100000000E-03 0. -1.
        -11    1    3    3    0    0  0.26834434778E+02  0.71712922086E+00  0.48551929670E+01  0.27279553940E+02  0.51100000000E-03 0.  1.
         12    1    3    3    0    0  0.11746415744E+02 -0.13707157822E+02  0.30335161649E+01  0.18304826651E+02  0.00000000000E+00 0. -1.
</event>
<event>
 7    1  0.2599124E-010  0.4778727E+02  0.7816164E-02  0.1312668E+00
        -11   -1    0    0    0    0  0.00000000000E+00  0.00000000000E+00  0.45593999997E+02  0.45594000000E+02  0.51100000000E-03 0.  1.
         11   -1    0    0    0    0 -0.00000000000E+00 -0.00000000000E+00 -0.45593999997E+02  0.45594000000E+02  0.51100000000E-03 0. -1.
    9900012    2    1    2    0    0  0.32565057821E+02 -0.25488595311E+02  0.13170865751E+02  0.47787272052E+02  0.20000004594E+02 0.  0.
         12    1    1    2    0    0 -0.32565057821E+02  0.25488595311E+02 -0.13170865751E+02  0.43400727948E+02  0.00000000000E+00 0. -1.
         11    1    3    3    0    0  0.99940543704E+01 -0.95275203132E+00  0.10328466052E+01  0.10092355105E+02  0.51100000000E-03 0. -1.
        -11    1    3    3    0    0  0.23797438863E+02 -0.21126772468E+02  0.12174820667E+02  0.34071760592E+02  0.51100000000E-03 0.  1.
         12    1    3    3    0    0 -0.12264354125E+01 -0.34090708116E+01 -0.36801521006E-01  0.36231563548E+01  0.00000000000E+00 0. -1.
</event>
<event>
 7    1  0.2599124E-010  0.4778727E+02  0.7816164E-02  0.1312668E+00
        -11   -1    0    0    0    0  0.00000000000E+00  0.00000000000E+00  0.45593999997E+02  0.45594000000E+02  0.51100000000E-03 0.  1.
         11   -1    0    0    0    0 -0.00000000000E+00 -0.00000000000E+00 -0.45593999997E+02  0.45594000000E+02  0.51100000000E-03 0. -1.
    9900012    2    1    2    0    0  0.35998641048E+02 -0.23831822478E+02  0.44458256258E+01  0.47787270912E+02  0.19999999395E+02 0.  0.
         12    1    1    2    0    0 -0.35998641048E+02  0.23831822478E+02 -0.44458256258E+01  0.43400729088E+02  0.00000000000E+00 0. -1.
         11    1    3    3    0    0  0.13929237166E+02 -0.78916719589E+01 -0.24651055617E+01  0.16198113472E+02  0.51100000000E-03 0. -1.
        -11    1    3    3    0    0  0.78831537313E+01 -0.51018739428E+01 -0.44882540803E+01  0.10407576828E+02  0.51100000000E-03 0.  1.
         12    1    3    3    0    0  0.14186250150E+02 -0.10838276576E+02  0.11399185268E+02  0.21181580612E+02  0.00000000000E+00 0. -1.
</event>
<event>
 7    1  0.2599124E-010  0.4778727E+02  0.7816164E-02  0.1312668E+00
        -11   -1    0    0    0    0  0.00000000000E+00  0.00000000000E+00  0.45593999997E+02  0.45594000000E+02  0.51100000000E-03 0.  1.
         11   -1    0    0    0    0 -0.00000000000E+00 -0.00000000000E+00 -0.45593999997E+02  0.45594000000E+02  0.51100000000E-03 0. -1.
    9900012    2    1    2    0    0 -0.61798266548E+00 -0.15855876198E+02  0.40395943775E+02  0.47787274360E+02  0.20000015116E+02 0.  0.
         12    1    1    2    0    0  0.61798266548E+00  0.15855876198E+02 -0.40395943775E+02  0.43400725640E+02  0.00000000000E+00 0. -1.
         11    1    3    3    0    0 -0.16161875461E+01 -0.32594130922E+01  0.14728162768E+02  0.15170847527E+02  0.51100000000E-03 0. -1.
        -11    1    3    3    0    0 -0.64258702778E+01 -0.10667856638E+02  0.15795284975E+02  0.20114323300E+02  0.51100000000E-03 0.  1.
         12    1    3    3    0    0  0.74240751584E+01 -0.19286064675E+01  0.98724960318E+01  0.12502103534E+02  0.00000000000E+00 0. -1.
</event>
<event>
 7    1  0.2599124E-010  0.4778727E+02  0.7816164E-02  0.1312668E+00
        -11   -1    0    0    0    0  0.00000000000E+00  0.00000000000E+00  0.45593999997E+02  0.45594000000E+02  0.51100000000E-03 0.  1.
         11   -1    0    0    0    0 -0.00000000000E+00 -0.00000000000E+00 -0.45593999997E+02  0.45594000000E+02  0.51100000000E-03 0. -1.
    9900012    2    1    2    0    0 -0.42813550402E+02  0.18123511393E+01  0.68802872542E+01  0.47787273423E+02  0.20000010845E+02 0.  0.
         12    1    1    2    0    0  0.42813550402E+02 -0.18123511393E+01 -0.68802872542E+01  0.43400726577E+02  0.00000000000E+00 0. -1.
         11    1    3    3    0    0 -0.24688030933E+01 -0.77000768931E+00  0.30959067200E+01  0.40339235535E+01  0.51100000000E-03 0. -1.
        -11    1    3    3    0    0 -0.33950752374E+02  0.31332722370E+01  0.92457611003E+01  0.35326407690E+02  0.51100000000E-03 0.  1.
         12    1    3    3    0    0 -0.63939949346E+01 -0.55091340837E+00 -0.54613805661E+01  0.84269421794E+01  0.00000000000E+00 0. -1.
</event>
<event>
 7    1  0.2599124E-010  0.4778727E+02  0.7816164E-02  0.1312668E+00
        -11   -1    0    0    0    0  0.00000000000E+00  0.00000000000E+00  0.45593999997E+02  0.45594000000E+02  0.51100000000E-03 0.  1.
         11   -1    0    0    0    0 -0.00000000000E+00 -0.00000000000E+00 -0.45593999997E+02  0.45594000000E+02  0.51100000000E-03 0. -1.
    9900012    2    1    2    0    0 -0.49923387445E+01  0.21307345021E+02  0.37479286584E+02  0.47787270503E+02  0.19999997532E+02 0.  0.
         12    1    1    2    0    0  0.49923387445E+01 -0.21307345021E+02 -0.37479286584E+02  0.43400729497E+02  0.00000000000E+00 0. -1.
         11    1    3    3    0    0 -0.23767664807E+01  0.40557162050E+01  0.57105826509E+01  0.73965267061E+01  0.51100000000E-03 0.  1.
        -11    1    3    3    0    0  0.48727102116E+01 -0.18869991983E+00  0.24308574992E+01  0.54486678105E+01  0.51100000000E-03 0. -1.
        -12    1    3    3    0    0 -0.74882824754E+01  0.17440328736E+02  0.29337846434E+02  0.34942075987E+02  0.00000000000E+00 0.  1.
</event>
<event>
 7    1  0.2599124E-010  0.4778727E+02  0.7816164E-02  0.1312668E+00
        -11   -1    0    0    0    0  0.00000000000E+00  0.00000000000E+00  0.45593999997E+02  0.45594000000E+02  0.51100000000E-03 0. -1.
         11   -1    0    0    0    0 -0.00000000000E+00 -0.00000000000E+00 -0.45593999997E+02  0.45594000000E+02  0.51100000000E-03 0.  1.
    9900012    2    1    2    0    0  0.19799147082E+02 -0.37636982646E+02 -0.86645694687E+01  0.47787268993E+02  0.19999990645E+02 0.  0.
         12    1    1    2    0    0 -0.19799147082E+02  0.37636982646E+02  0.86645694687E+01  0.43400731007E+02  0.00000000000E+00 0. -1.
         11    1    3    3    0    0  0.29206036671E+01 -0.15675238615E+01  0.12104662641E+01  0.35287796296E+01  0.51100000000E-03 0. -1.
        -11    1    3    3    0    0  0.11771614376E+02 -0.11891136814E+02 -0.10102619167E+02  0.19545663306E+02  0.51100000000E-03 0.  1.
         12    1    3    3    0    0  0.51069290388E+01 -0.24178321971E+02  0.22758343427E+00  0.24712826057E+02  0.00000000000E+00 0. -1.
</event>
<event>
 7    1  0.2599124E-010  0.4778727E+02  0.7816164E-02  0.1312668E+00
        -11   -1    0    0    0    0  0.00000000000E+00  0.00000000000E+00  0.45593999997E+02  0.45594000000E+02  0.51100000000E-03 0.  1.
         11   -1    0    0    0    0 -0.00000000000E+00 -0.00000000000E+00 -0.45593999997E+02  0.45594000000E+02  0.51100000000E-03 0. -1.
    9900012    2    1    2    0    0 -0.17700769770E+02  0.30675322841E+02  0.25086465025E+02  0.47787269484E+02  0.19999992884E+02 0.  0.
         12    1    1    2    0    0  0.17700769770E+02 -0.30675322841E+02 -0.25086465025E+02  0.43400730516E+02  0.00000000000E+00 0. -1.
         11    1    3    3    0    0 -0.12091057151E+01  0.54836348893E+01  0.14020346539E+01  0.57877361431E+01  0.51100000000E-03 0. -1.
        -11    1    3    3    0    0 -0.99001103760E+01  0.26118180321E+02  0.17849534158E+02  0.33147811370E+02  0.51100000000E-03 0.  1.
         12    1    3    3    0    0 -0.65915536791E+01 -0.92649236912E+00  0.58348962136E+01  0.88517219703E+01  0.00000000000E+00 0. -1.
</event>
<event>
 7    1  0.2599124E-010  0.4778727E+02  0.7816164E-02  0.1312668E+00
        -11   -1    0    0    0    0  0.00000000000E+00  0.00000000000E+00  0.45593999997E+02  0.45594000000E+02  0.51100000000E-03 0.  1.
         11   -1    0    0    0    0 -0.00000000000E+00 -0.00000000000E+00 -0.45593999997E+02  0.45594000000E+02  0.51100000000E-03 0. -1.
    9900012    2    1    2    0    0 -0.35367609719E+01 -0.30760973806E+02  0.30411790172E+02  0.47787272251E+02  0.20000005501E+02 0.  0.
         12    1    1    2    0    0  0.35367609719E+01  0.30760973806E+02 -0.30411790172E+02  0.43400727749E+02  0.00000000000E+00 0. -1.
         11    1    3    3    0    0 -0.41904179829E+01 -0.13383356840E+00  0.57496162595E+01  0.71158697070E+01  0.51100000000E-03 0. -1.
        -11    1    3    3    0    0  0.40578035146E+01 -0.16689536012E+02  0.17909451185E+02  0.24814407583E+02  0.51100000000E-03 0.  1.
        -12    1    3    3    0    0 -0.34041465036E+01 -0.13937604226E+02  0.67527227275E+01  0.15856994961E+02  0.00000000000E+00 0.  1.
</event>
<event>
 7    1  0.2599124E-010  0.4778727E+02  0.7816164E-02  0.1312668E+00
        -11   -1    0    0    0    0  0.00000000000E+00  0.00000000000E+00  0.45593999997E+02  0.45594000000E+02  0.51100000000E-03 0. -1.
         11   -1    0    0    0    0 -0.00000000000E+00 -0.00000000000E+00 -0.45593999997E+02  0.45594000000E+02  0.51100000000E-03 0.  1.
    9900012    2    1    2    0    0 -0.30879452275E+02 -0.92435065584E+01 -0.29062690310E+02  0.47787274725E+02  0.20000016782E+02 0.  0.
         12    1    1    2    0    0  0.30879452275E+02  0.92435065584E+01  0.29062690310E+02  0.43400725275E+02  0.00000000000E+00 0. -1.
         11    1    3    3    0    0  0.11647061664E+01 -0.32000838514E+01 -0.62136597367E+01  0.70856647321E+01  0.51100000000E-03 0. -1.
        -11    1    3    3    0    0 -0.46990196460E+01 -0.39905671190E+01 -0.30438634177E+01  0.68753557240E+01  0.51100000000E-03 0.  1.
        -12    1    3    3    0    0 -0.27345138796E+02 -0.20528555881E+01 -0.19805167156E+02  0.33826254269E+02  0.00000000000E+00 0.  1.
</event>
<event>
 7    1  0.2599124E-010  0.4778727E+02  0.7816164E-02  0.1312668E+00
        -11   -1    0    0    0    0  0.00000000000E+00  0.00000000000E+00  0.45593999997E+02  0.45594000000E+02  0.51100000000E-03 0.  1.
         11   -1    0    0    0    0 -0.00000000000E+00 -0.00000000000E+00 -0.45593999997E+02  0.45594000000E+02  0.51100000000E-03 0. -1.
    9900012    2    1    2    0    0 -0.13802223940E+02  0.40717324233E+02  0.59347595586E+01  0.47787271326E+02  0.20000001285E+02 0.  0.
         12    1    1    2    0    0  0.13802223940E+02 -0.40717324233E+02 -0.59347595586E+01  0.43400728674E+02  0.00000000000E+00 0. -1.
         11    1    3    3    0    0 -0.22907352309E+01  0.10999436587E+02  0.21981475741E+01  0.11448446452E+02  0.51100000000E-03 0. -1.
        -11    1    3    3    0    0  0.31282636106E+01  0.16392686728E+00  0.76105097858E+00  0.32236786578E+01  0.51100000000E-03 0.  1.
        -12    1    3    3    0    0 -0.14639752319E+02  0.29553960778E+02  0.29755610059E+01  0.33115146217E+02  0.00000000000E+00 0.  1.
</event>
<event>
 7    1  0.2599124E-010  0.4778728E+02  0.7816164E-02  0.1312668E+00
        -11   -1    0    0    0    0  0.00000000000E+00  0.00000000000E+00  0.45593999997E+02  0.45594000000E+02  0.51100000000E-03 0. -1.
         11   -1    0    0    0    0 -0.00000000000E+00 -0.00000000000E+00 -0.45593999997E+02  0.45594000000E+02  0.51100000000E-03 0.  1.
    9900012    2    1    2    0    0  0.30472899120E+02 -0.29663272723E+02  0.86669228893E+01  0.47787275561E+02  0.20000020594E+02 0.  0.
         12    1    1    2    0    0 -0.30472899120E+02  0.29663272723E+02 -0.86669228893E+01  0.43400724439E+02  0.00000000000E+00 0. -1.
         11    1    3    3    0    0  0.67846742561E+01 -0.20301052364E+00 -0.36498240233E+00  0.67975164913E+01  0.51100000000E-03 0. -1.
        -11    1    3    3    0    0 -0.53657602873E+00  0.89067312493E-01 -0.12985960099E+01  0.14079057777E+01  0.51100000000E-03 0.  1.
        -12    1    3    3    0    0  0.24224800893E+02 -0.29549329512E+02  0.10330501302E+02  0.39581853292E+02  0.00000000000E+00 0.  1.
</event>
<event>
 7    1  0.2599124E-010  0.4778727E+02  0.7816164E-02  0.1312668E+00
        -11   -1    0    0    0    0  0.00000000000E+00  0.00000000000E+00  0.45593999997E+02  0.45594000000E+02  0.51100000000E-03 0.  1.
         11   -1    0    0    0    0 -0.00000000000E+00 -0.00000000000E+00 -0.45593999997E+02  0.45594000000E+02  0.51100000000E-03 0. -1.
    9900012    2    1    2    0    0 -0.69620976118E+01 -0.19421403024E+02  0.38183263409E+02  0.47787270707E+02  0.19999998463E+02 0.  0.
         12    1    1    2    0    0  0.69620976118E+01  0.19421403024E+02 -0.38183263409E+02  0.43400729293E+02  0.00000000000E+00 0. -1.
         11    1    3    3    0    0  0.18534755123E+01 -0.12674577303E+02  0.20175203189E+02  0.23898098361E+02  0.51100000000E-03 0. -1.
        -11    1    3    3    0    0 -0.50008428900E+01 -0.81440012032E+01  0.17301699763E+02  0.19765677326E+02  0.51100000000E-03 0.  1.
         12    1    3    3    0    0 -0.38147302341E+01  0.13971754823E+01  0.70636045672E+00  0.41234950202E+01  0.00000000000E+00 0. -1.
</event>
<event>
 7    1  0.2599124E-010  0.4778728E+02  0.7816164E-02  0.1312668E+00
        -11   -1    0    0    0    0  0.00000000000E+00  0.00000000000E+00  0.45593999997E+02  0.45594000000E+02  0.51100000000E-03 0.  1.
         11   -1    0    0    0    0 -0.00000000000E+00 -0.00000000000E+00 -0.45593999997E+02  0.45594000000E+02  0.51100000000E-03 0. -1.
    9900012    2    1    2    0    0  0.19182070336E+02 -0.12552133770E+02  0.36852611301E+02  0.47787275994E+02  0.20000022568E+02 0.  0.
         12    1    1    2    0    0 -0.19182070336E+02  0.12552133770E+02 -0.36852611301E+02  0.43400724006E+02  0.00000000000E+00 0. -1.
         11    1    3    3    0    0  0.78616583755E+01 -0.12319229041E+02  0.13252244259E+02  0.19727925759E+02  0.51100000000E-03 0. -1.
        -11    1    3    3    0    0  0.51433376714E+01  0.47421935234E+00  0.19287759492E+01  0.55135273028E+01  0.51100000000E-03 0.  1.
        -12    1    3    3    0    0  0.61770742891E+01 -0.70712408157E+00  0.21671591092E+02  0.22545822933E+02  0.00000000000E+00 0.  1.
</event>
<event>
 7    1  0.2599124E-010  0.4778727E+02  0.7816164E-02  0.1312668E+00
        -11   -1    0    0    0    0  0.00000000000E+00  0.00000000000E+00  0.45593999997E+02  0.45594000000E+02  0.51100000000E-03 0. -1.
         11   -1    0    0    0    0 -0.00000000000E+00 -0.00000000000E+00 -0.45593999997E+02  0.45594000000E+02  0.51100000000E-03 0.  1.
    9900012    2    1    2    0    0 -0.25736825276E+02  0.34913757972E+02 -0.15062345197E+01  0.47787269437E+02  0.19999992670E+02 0.  0.
         12    1    1    2    0    0  0.25736825276E+02 -0.34913757972E+02  0.15062345197E+01  0.43400730563E+02  0.00000000000E+00 0. -1.
         11    1    3    3    0    0 -0.10482541484E+01  0.73685817069E+00  0.36761794284E+01  0.38930826057E+01  0.51100000000E-03 0. -1.
        -11    1    3    3    0    0  0.89380385671E+00  0.20803428961E+01  0.83030788408E+00  0.24116640195E+01  0.51100000000E-03 0.  1.
        -12    1    3    3    0    0 -0.25582374984E+02  0.32096556905E+02 -0.60127218322E+01  0.41482522812E+02  0.00000000000E+00 0.  1.
</event>
<event>
 7    1  0.2599124E-010  0.4778728E+02  0.7816164E-02  0.1312668E+00
        -11   -1    0    0    0    0  0.00000000000E+00  0.00000000000E+00  0.45593999997E+02  0.45594000000E+02  0.51100000000E-03 0. -1.
         11   -1    0    0    0    0 -0.00000000000E+00 -0.00000000000E+00 -0.45593999997E+02  0.45594000000E+02  0.51100000000E-03 0.  1.
    9900012    2    1    2    0    0  0.49753138947E+01 -0.41935502420E+02  0.10014127724E+02  0.47787275747E+02  0.20000021442E+02 0.  0.
         12    1    1    2    0    0 -0.49753138947E+01  0.41935502420E+02 -0.10014127724E+02  0.43400724253E+02  0.00000000000E+00 0. -1.
         11    1    3    3    0    0  0.60809153310E+01 -0.28145873960E+02  0.63299977627E+01  0.29482819135E+02  0.51100000000E-03 0. -1.
        -11    1    3    3    0    0  0.53996342630E+00 -0.10993408599E+02 -0.25305569035E+01  0.11293817407E+02  0.51100000000E-03 0.  1.
         12    1    3    3    0    0 -0.16455648626E+01 -0.27962198615E+01  0.62146868651E+01  0.70106392050E+01  0.00000000000E+00 0. -1.
</event>
<event>
 7    1  0.2599124E-010  0.4778723E+02  0.7816164E-02  0.1312668E+00
        -11   -1    0    0    0    0  0.00000000000E+00  0.00000000000E+00  0.45593999997E+02  0.45594000000E+02  0.51100000000E-03 0.  1.
         11   -1    0    0    0    0 -0.00000000000E+00 -0.00000000000E+00 -0.45593999997E+02  0.45594000000E+02  0.51100000000E-03 0. -1.
    9900012    2    1    2    0    0 -0.63532579856E+01 -0.42888465421E+02  0.19602840538E+01  0.47787227349E+02  0.19999800772E+02 0.  0.
         12    1    1    2    0    0  0.63532579856E+01  0.42888465421E+02 -0.19602840538E+01  0.43400772651E+02  0.00000000000E+00 0. -1.
         11    1    3    3    0    0  0.27142123929E+01 -0.11799824826E+01  0.82233814395E+00  0.30717336891E+01  0.51100000000E-03 0. -1.
        -11    1    3    3    0    0 -0.52756230390E+01 -0.98074806436E+01  0.52788165935E+01  0.12324154329E+02  0.51100000000E-03 0.  1.
        -12    1    3    3    0    0 -0.37918473395E+01 -0.31901002294E+02 -0.41408706836E+01  0.32391339331E+02  0.00000000000E+00 0.  1.
</event>
<event>
 7    1  0.2599124E-010  0.4778728E+02  0.7816164E-02  0.1312668E+00
        -11   -1    0    0    0    0  0.00000000000E+00  0.00000000000E+00  0.45593999997E+02  0.45594000000E+02  0.51100000000E-03 0.  1.
         11   -1    0    0    0    0 -0.00000000000E+00 -0.00000000000E+00 -0.45593999997E+02  0.45594000000E+02  0.51100000000E-03 0. -1.
    9900012    2    1    2    0    0 -0.20998457793E+02 -0.26222691553E+02  0.27478312234E+02  0.47787280822E+02  0.20000044579E+02 0.  0.
         12    1    1    2    0    0  0.20998457793E+02  0.26222691553E+02 -0.27478312234E+02  0.43400719178E+02  0.00000000000E+00 0. -1.
         11    1    3    3    0    0 -0.10592605368E+02 -0.81581594523E+01  0.17004815289E+02  0.21631518611E+02  0.51100000000E-03 0. -1.
        -11    1    3    3    0    0 -0.54680991226E+01 -0.13012725860E+02  0.12449166288E+02  0.18820544196E+02  0.51100000000E-03 0.  1.
         12    1    3    3    0    0 -0.49377533024E+01 -0.50518062407E+01 -0.19756693432E+01  0.73352180146E+01  0.00000000000E+00 0. -1.
</event>
<event>
 7    1  0.2599124E-010  0.4778727E+02  0.7816164E-02  0.1312668E+00
        -11   -1    0    0    0    0  0.00000000000E+00  0.00000000000E+00  0.45593999997E+02  0.45594000000E+02  0.51100000000E-03 0.  1.
         11   -1    0    0    0    0 -0.00000000000E+00 -0.00000000000E+00 -0.45593999997E+02  0.45594000000E+02  0.51100000000E-03 0. -1.
    9900012    2    1    2    0    0  0.10755976417E+02 -0.26054791028E+02  0.33001218303E+02  0.47787267590E+02  0.19999984252E+02 0.  0.
         12    1    1    2    0    0 -0.10755976417E+02  0.26054791028E+02 -0.33001218303E+02  0.43400732410E+02  0.00000000000E+00 0. -1.
         11    1    3    3    0    0 -0.65240968965E+00 -0.54660503377E+01  0.85979134677E+01  0.10209185127E+02  0.51100000000E-03 0. -1.
        -11    1    3    3    0    0 -0.37157318523E+01 -0.78764904031E+01  0.90218966481E+01  0.12539552769E+02  0.51100000000E-03 0.  1.
         12    1    3    3    0    0  0.15124117959E+02 -0.12712250287E+02  0.15381408188E+02  0.25038529694E+02  0.00000000000E+00 0. -1.
</event>
<event>
 7    1  0.2599124E-010  0.4778727E+02  0.7816164E-02  0.1312668E+00
        -11   -1    0    0    0    0  0.00000000000E+00  0.00000000000E+00  0.45593999997E+02  0.45594000000E+02  0.51100000000E-03 0.  1.
         11   -1    0    0    0    0 -0.00000000000E+00 -0.00000000000E+00 -0.45593999997E+02  0.45594000000E+02  0.51100000000E-03 0. -1.
    9900012    2    1    2    0    0  0.29313469455E+02  0.29371736744E+02  0.12713971564E+02  0.47787268626E+02  0.19999988972E+02 0.  0.
         12    1    1    2    0    0 -0.29313469455E+02 -0.29371736744E+02 -0.12713971564E+02  0.43400731374E+02  0.00000000000E+00 0. -1.
         11    1    3    3    0    0  0.69466087282E+01  0.13803992764E+02  0.78194051511E+01  0.17319026711E+02  0.51100000000E-03 0.  1.
        -11    1    3    3    0    0  0.13622522196E+02  0.24390151983E+01 -0.35417079838E+00  0.13843675211E+02  0.51100000000E-03 0. -1.
         12    1    3    3    0    0  0.87443385311E+01  0.13128728782E+02  0.52487372113E+01  0.16624566704E+02  0.00000000000E+00 0. -1.
</event>
<event>
 7    1  0.2599124E-010  0.4778727E+02  0.7816164E-02  0.1312668E+00
        -11   -1    0    0    0    0  0.00000000000E+00  0.00000000000E+00  0.45593999997E+02  0.45594000000E+02  0.51100000000E-03 0.  1.
         11   -1    0    0    0    0 -0.00000000000E+00 -0.00000000000E+00 -0.45593999997E+02  0.45594000000E+02  0.51100000000E-03 0. -1.
    9900012    2    1    2    0    0 -0.15927242641E+02 -0.29303613484E+02  0.27771290334E+02  0.47787269727E+02  0.19999993994E+02 0.  0.
         12    1    1    2    0    0  0.15927242641E+02  0.29303613484E+02 -0.27771290334E+02  0.43400730273E+02  0.00000000000E+00 0. -1.
         11    1    3    3    0    0  0.81146042960E+00 -0.12482600611E+01  0.10205950670E+00  0.14923262421E+01  0.51100000000E-03 0. -1.
        -11    1    3    3    0    0 -0.29722979866E+01 -0.87685902069E+01  0.18868279082E+02  0.21017485228E+02  0.51100000000E-03 0.  1.
         12    1    3    3    0    0 -0.13766405084E+02 -0.19286763216E+02  0.88009517457E+01  0.25277458257E+02  0.00000000000E+00 0. -1.
</event>
<event>
 7    1  0.2599124E-010  0.4778732E+02  0.7816164E-02  0.1312668E+00
        -11   -1    0    0    0    0  0.00000000000E+00  0.00000000000E+00  0.45593999997E+02  0.45594000000E+02  0.51100000000E-03 0.  1.
         11   -1    0    0    0    0 -0.00000000000E+00 -0.00000000000E+00 -0.45593999997E+02  0.45594000000E+02  0.51100000000E-03 0. -1.
    9900012    2    1    2    0    0 -0.27005852604E+02  0.27014057058E+02  0.20604447850E+02  0.47787324604E+02  0.20000244198E+02 0.  0.
         12    1    1    2    0    0  0.27005852604E+02 -0.27014057058E+02 -0.20604447850E+02  0.43400675396E+02  0.00000000000E+00 0. -1.
         11    1    3    3    0    0 -0.15369919833E+02  0.99095045533E+01  0.10373528198E+02  0.21024813999E+02  0.51100000000E-03 0. -1.
        -11    1    3    3    0    0 -0.13622477388E+02  0.17016512710E+02  0.11248464204E+02  0.24528790068E+02  0.51100000000E-03 0.  1.
        -12    1    3    3    0    0  0.19865446163E+01  0.88039794267E-01 -0.10175445525E+01  0.22337205363E+01  0.00000000000E+00 0.  1.
</event>
<event>
 7    1  0.2599124E-010  0.4778727E+02  0.7816164E-02  0.1312668E+00
        -11   -1    0    0    0    0  0.00000000000E+00  0.00000000000E+00  0.45593999997E+02  0.45594000000E+02  0.51100000000E-03 0.  1.
         11   -1    0    0    0    0 -0.00000000000E+00 -0.00000000000E+00 -0.45593999997E+02  0.45594000000E+02  0.51100000000E-03 0. -1.
    9900012    2    1    2    0    0  0.10892755832E+01 -0.26508033719E+02  0.34347648297E+02  0.47787270554E+02  0.19999997764E+02 0.  0.
         12    1    1    2    0    0 -0.10892755832E+01  0.26508033719E+02 -0.34347648297E+02  0.43400729446E+02  0.00000000000E+00 0. -1.
         11    1    3    3    0    0  0.26509003163E+01 -0.34954347450E+01  0.11181668693E+00  0.43883755281E+01  0.51100000000E-03 0. -1.
        -11    1    3    3    0    0 -0.46807139483E+01 -0.17730959613E+02  0.16632678201E+02  0.24757665404E+02  0.51100000000E-03 0.  1.
        -12    1    3    3    0    0  0.31190892153E+01 -0.52816393606E+01  0.17603153409E+02  0.18641229622E+02  0.00000000000E+00 0.  1.
</event>
<event>
 7    1  0.2599124E-010  0.4778727E+02  0.7816164E-02  0.1312668E+00
        -11   -1    0    0    0    0  0.00000000000E+00  0.00000000000E+00  0.45593999997E+02  0.45594000000E+02  0.51100000000E-03 0.  1.
         11   -1    0    0    0    0 -0.00000000000E+00 -0.00000000000E+00 -0.45593999997E+02  0.45594000000E+02  0.51100000000E-03 0. -1.
    9900012    2    1    2    0    0  0.85361991006E+01 -0.38366343419E+02  0.18405976869E+02  0.47787274350E+02  0.20000015072E+02 0.  0.
         12    1    1    2    0    0 -0.85361991006E+01  0.38366343419E+02 -0.18405976869E+02  0.43400725650E+02  0.00000000000E+00 0. -1.
         11    1    3    3    0    0 -0.12517323309E+01 -0.52697046604E+00 -0.99127929898E+00  0.16814180354E+01  0.51100000000E-03 0. -1.
        -11    1    3    3    0    0 -0.38609411042E+00 -0.72273791655E+01 -0.18605228940E+01  0.74729929723E+01  0.51100000000E-03 0.  1.
        -12    1    3    3    0    0  0.10174025542E+02 -0.30611993787E+02  0.21257779062E+02  0.38632863342E+02  0.00000000000E+00 0.  1.
</event>
<event>
 7    1  0.2599124E-010  0.4778729E+02  0.7816164E-02  0.1312668E+00
        -11   -1    0    0    0    0  0.00000000000E+00  0.00000000000E+00  0.45593999997E+02  0.45594000000E+02  0.51100000000E-03 0.  1.
         11   -1    0    0    0    0 -0.00000000000E+00 -0.00000000000E+00 -0.45593999997E+02  0.45594000000E+02  0.51100000000E-03 0. -1.
    9900012    2    1    2    0    0  0.38043351020E+01 -0.25987618297E+02  0.34551306324E+02  0.47787285270E+02  0.20000064861E+02 0.  0.
         12    1    1    2    0    0 -0.38043351020E+01  0.25987618297E+02 -0.34551306324E+02  0.43400714730E+02  0.00000000000E+00 0. -1.
         11    1    3    3    0    0 -0.19382876022E+01 -0.50695710129E+01  0.63020082267E+01  0.83170197207E+01  0.51100000000E-03 0. -1.
        -11    1    3    3    0    0 -0.27285915613E+01 -0.17098018161E+02  0.23028450145E+02  0.28811403182E+02  0.51100000000E-03 0.  1.
         12    1    3    3    0    0  0.84712142655E+01 -0.38200291236E+01  0.52208479525E+01  0.10658862368E+02  0.00000000000E+00 0. -1.
</event>
<event>
 7    1  0.2599124E-010  0.4778726E+02  0.7816164E-02  0.1312668E+00
        -11   -1    0    0    0    0  0.00000000000E+00  0.00000000000E+00  0.45593999997E+02  0.45594000000E+02  0.51100000000E-03 0. -1.
         11   -1    0    0    0    0 -0.00000000000E+00 -0.00000000000E+00 -0.45593999997E+02  0.45594000000E+02  0.51100000000E-03 0.  1.
    9900012    2    1    2    0    0  0.23188741654E+02  0.54152995155E+01 -0.36284716228E+02  0.47787264522E+02  0.19999970260E+02 0.  0.
         12    1    1    2    0    0 -0.23188741654E+02 -0.54152995155E+01  0.36284716228E+02  0.43400735478E+02  0.00000000000E+00 0. -1.
         11    1    3    3    0    0  0.10258062676E+02  0.16168083135E+01 -0.53605311427E+01  0.11686625406E+02  0.51100000000E-03 0. -1.
        -11    1    3    3    0    0  0.65484489659E+01 -0.34762890192E+01 -0.66154203917E+01  0.99363250965E+01  0.51100000000E-03 0.  1.
        -12    1    3    3    0    0  0.63822300126E+01  0.72747802212E+01 -0.24308764693E+02  0.26164314020E+02  0.00000000000E+00 0.  1.
</event>
<event>
 7    1  0.2599124E-010  0.4778727E+02  0.7816164E-02  0.1312668E+00
        -11   -1    0    0    0    0  0.00000000000E+00  0.00000000000E+00  0.45593999997E+02  0.45594000000E+02  0.51100000000E-03 0. -1.
         11   -1    0    0    0    0 -0.00000000000E+00 -0.00000000000E+00 -0.45593999997E+02  0.45594000000E+02  0.51100000000E-03 0.  1.
    9900012    2    1    2    0    0 -0.43069078869E+02  0.30280110208E+01  0.44168771383E+01  0.47787271792E+02  0.20000003407E+02 0.  0.
         12    1    1    2    0    0  0.43069078869E+02 -0.30280110208E+01 -0.44168771383E+01  0.43400728208E+02  0.00000000000E+00 0. -1.
         11    1    3    3    0    0 -0.11138689717E+02  0.39228414201E+01 -0.62007409724E+01  0.13338226354E+02  0.51100000000E-03 0. -1.
        -11    1    3    3    0    0 -0.74228640814E+01 -0.15540079861E+01 -0.34862378144E+00  0.75917975996E+01  0.51100000000E-03 0.  1.
        -12    1    3    3    0    0 -0.24507525071E+02  0.65917758691E+00  0.10966241892E+02  0.26857247838E+02  0.00000000000E+00 0.  1.
</event>
<event>
 7    1  0.2599124E-010  0.4778727E+02  0.7816164E-02  0.1312668E+00
        -11   -1    0    0    0    0  0.00000000000E+00  0.00000000000E+00  0.45593999997E+02  0.45594000000E+02  0.51100000000E-03 0. -1.
         11   -1    0    0    0    0 -0.00000000000E+00 -0.00000000000E+00 -0.45593999997E+02  0.45594000000E+02  0.51100000000E-03 0.  1.
    9900012    2    1    2    0    0 -0.15037391123E+02  0.40671376058E+02  0.18273173759E+01  0.47787273612E+02  0.20000011705E+02 0.  0.
         12    1    1    2    0    0  0.15037391123E+02 -0.40671376058E+02 -0.18273173759E+01  0.43400726388E+02  0.00000000000E+00 0. -1.
         11    1    3    3    0    0 -0.29016948447E+01  0.19818436673E+01 -0.20918253202E+01  0.40894095814E+01  0.51100000000E-03 0. -1.
        -11    1    3    3    0    0 -0.98576489909E+01  0.23206418784E+02 -0.49718009540E+01  0.25698831129E+02  0.51100000000E-03 0.  1.
         12    1    3    3    0    0 -0.22780472879E+01  0.15483113607E+02  0.88909436501E+01  0.17999032902E+02  0.00000000000E+00 0. -1.
</event>
<event>
 7    1  0.2599124E-010  0.4778727E+02  0.7816164E-02  0.1312668E+00
        -11   -1    0    0    0    0  0.00000000000E+00  0.00000000000E+00  0.45593999997E+02  0.45594000000E+02  0.51100000000E-03 0.  1.
         11   -1    0    0    0    0 -0.00000000000E+00 -0.00000000000E+00 -0.45593999997E+02  0.45594000000E+02  0.51100000000E-03 0. -1.
    9900012    2    1    2    0    0  0.18069857003E+02 -0.37332168245E+02  0.12783292515E+02  0.47787273214E+02  0.20000009894E+02 0.  0.
         12    1    1    2    0    0 -0.18069857003E+02  0.37332168245E+02 -0.12783292515E+02  0.43400726786E+02  0.00000000000E+00 0. -1.
         11    1    3    3    0    0  0.13352740666E+01 -0.19413599861E+01 -0.33183131922E+01  0.40697712628E+01  0.51100000000E-03 0. -1.
        -11    1    3    3    0    0 -0.87837432576E+00  0.11104490212E+00  0.92428861241E+00  0.12799148904E+01  0.51100000000E-03 0.  1.
        -12    1    3    3    0    0  0.17612957263E+02 -0.35501853161E+02  0.15177317095E+02  0.42437587061E+02  0.00000000000E+00 0.  1.
</event>
<event>
 7    1  0.2599124E-010  0.4778727E+02  0.7816164E-02  0.1312668E+00
        -11   -1    0    0    0    0  0.00000000000E+00  0.00000000000E+00  0.45593999997E+02  0.45594000000E+02  0.51100000000E-03 0. -1.
         11   -1    0    0    0    0 -0.00000000000E+00 -0.00000000000E+00 -0.45593999997E+02  0.45594000000E+02  0.51100000000E-03 0.  1.
    9900012    2    1    2    0    0 -0.25012796689E+02 -0.21815533607E+02 -0.27965437723E+02  0.47787271759E+02  0.20000003259E+02 0.  0.
         12    1    1    2    0    0  0.25012796689E+02  0.21815533607E+02  0.27965437723E+02  0.43400728241E+02  0.00000000000E+00 0. -1.
         11    1    3    3    0    0 -0.65671544044E+01 -0.99071862581E+01 -0.13959564745E+02  0.18334374946E+02  0.51100000000E-03 0. -1.
        -11    1    3    3    0    0 -0.15275321887E+02 -0.12627549535E+02 -0.16143869050E+02  0.25561982986E+02  0.51100000000E-03 0.  1.
        -12    1    3    3    0    0 -0.31703203984E+01  0.71920218689E+00  0.21379960713E+01  0.38909138278E+01  0.00000000000E+00 0.  1.
</event>
<event>
 7    1  0.2599124E-010  0.4778727E+02  0.7816164E-02  0.1312668E+00
        -11   -1    0    0    0    0  0.00000000000E+00  0.00000000000E+00  0.45593999997E+02  0.45594000000E+02  0.51100000000E-03 0.  1.
         11   -1    0    0    0    0 -0.00000000000E+00 -0.00000000000E+00 -0.45593999997E+02  0.45594000000E+02  0.51100000000E-03 0. -1.
    9900012    2    1    2    0    0 -0.52635386865E+01 -0.84919601347E+01  0.42235113682E+02  0.47787273576E+02  0.20000011542E+02 0.  0.
         12    1    1    2    0    0  0.52635386865E+01  0.84919601347E+01 -0.42235113682E+02  0.43400726424E+02  0.00000000000E+00 0. -1.
         11    1    3    3    0    0 -0.23812243632E+01 -0.83278430473E+00  0.64111857941E+01  0.68896344398E+01  0.51100000000E-03 0. -1.
        -11    1    3    3    0    0  0.46333908622E+01 -0.66152095986E+01  0.58352809765E+01  0.99639255944E+01  0.51100000000E-03 0.  1.
        -12    1    3    3    0    0 -0.75157051855E+01 -0.10439662314E+01  0.29988646911E+02  0.30933713542E+02  0.00000000000E+00 0.  1.
</event>
<event>
 7    1  0.2599124E-010  0.4778728E+02  0.7816164E-02  0.1312668E+00
        -11   -1    0    0    0    0  0.00000000000E+00  0.00000000000E+00  0.45593999997E+02  0.45594000000E+02  0.51100000000E-03 0.  1.
         11   -1    0    0    0    0 -0.00000000000E+00 -0.00000000000E+00 -0.45593999997E+02  0.45594000000E+02  0.51100000000E-03 0. -1.
    9900012    2    1    2    0    0  0.27669537741E+02  0.29504610191E+02  0.15732055527E+02  0.47787275208E+02  0.20000018984E+02 0.  0.
         12    1    1    2    0    0 -0.27669537741E+02 -0.29504610191E+02 -0.15732055527E+02  0.43400724792E+02  0.00000000000E+00 0. -1.
         11    1    3    3    0    0  0.62970856591E+01  0.12590575312E+02  0.64390225917E+01  0.15480209516E+02  0.51100000000E-03 0. -1.
        -11    1    3    3    0    0  0.10646047320E+02  0.16430715426E+02  0.28488304637E+01  0.19784402145E+02  0.51100000000E-03 0.  1.
         12    1    3    3    0    0  0.10726404762E+02  0.48331945356E+00  0.64442024717E+01  0.12522663547E+02  0.00000000000E+00 0. -1.
</event>
<event>
 7    1  0.2599124E-010  0.4778727E+02  0.7816164E-02  0.1312668E+00
        -11   -1    0    0    0    0  0.00000000000E+00  0.00000000000E+00  0.45593999997E+02  0.45594000000E+02  0.51100000000E-03 0. -1.
         11   -1    0    0    0    0 -0.00000000000E+00 -0.00000000000E+00 -0.45593999997E+02  0.45594000000E+02  0.51100000000E-03 0.  1.
    9900012    2    1    2    0    0 -0.32642272604E+02  0.27988012698E+02  0.58971631346E+01  0.47787270184E+02  0.19999996076E+02 0.  0.
         12    1    1    2    0    0  0.32642272604E+02 -0.27988012698E+02 -0.58971631346E+01  0.43400729816E+02  0.00000000000E+00 0. -1.
         11    1    3    3    0    0 -0.11493573039E+02  0.30003590357E+01  0.16730000167E+01  0.11995970360E+02  0.51100000000E-03 0. -1.
        -11    1    3    3    0    0  0.50076133587E+00  0.11907465914E+01 -0.26008983056E+01  0.29040164630E+01  0.51100000000E-03 0.  1.
         12    1    3    3    0    0 -0.21649460901E+02  0.23796907071E+02  0.68250614235E+01  0.32887283361E+02  0.00000000000E+00 0. -1.
</event>
<event>
 7    1  0.2599124E-010  0.4778727E+02  0.7816164E-02  0.1312668E+00
        -11   -1    0    0    0    0  0.00000000000E+00  0.00000000000E+00  0.45593999997E+02  0.45594000000E+02  0.51100000000E-03 0.  1.
         11   -1    0    0    0    0 -0.00000000000E+00 -0.00000000000E+00 -0.45593999997E+02  0.45594000000E+02  0.51100000000E-03 0. -1.
    9900012    2    1    2    0    0 -0.33706721374E+02 -0.18929667086E+02  0.19726824478E+02  0.47787274594E+02  0.20000016182E+02 0.  0.
         12    1    1    2    0    0  0.33706721374E+02  0.18929667086E+02 -0.19726824478E+02  0.43400725406E+02  0.00000000000E+00 0. -1.
         11    1    3    3    0    0 -0.27579080421E+01  0.63174001054E+00  0.39132572473E+01  0.48289475824E+01  0.51100000000E-03 0. -1.
        -11    1    3    3    0    0 -0.39067746169E+01  0.18199164234E+01  0.54749243832E+01  0.69677672865E+01  0.51100000000E-03 0.  1.
        -12    1    3    3    0    0 -0.27042038715E+02 -0.21381323520E+02  0.10338642848E+02  0.35990559725E+02  0.00000000000E+00 0.  1.
</event>
<event>
 7    1  0.2599124E-010  0.4778727E+02  0.7816164E-02  0.1312668E+00
        -11   -1    0    0    0    0  0.00000000000E+00  0.00000000000E+00  0.45593999997E+02  0.45594000000E+02  0.51100000000E-03 0.  1.
         11   -1    0    0    0    0 -0.00000000000E+00 -0.00000000000E+00 -0.45593999997E+02  0.45594000000E+02  0.51100000000E-03 0. -1.
    9900012    2    1    2    0    0 -0.26867365747E+01  0.30564956607E+02  0.30695082020E+02  0.47787272056E+02  0.20000004613E+02 0.  0.
         12    1    1    2    0    0  0.26867365747E+01 -0.30564956607E+02 -0.30695082020E+02  0.43400727944E+02  0.00000000000E+00 0. -1.
         11    1    3    3    0    0  0.94551288168E+00  0.29078880919E+01  0.10747461606E+01  0.32411243937E+01  0.51100000000E-03 0. -1.
        -11    1    3    3    0    0 -0.69210417267E+01  0.20583709038E+02  0.10968737791E+02  0.24329058866E+02  0.51100000000E-03 0.  1.
         12    1    3    3    0    0  0.32887922703E+01  0.70733594776E+01  0.18651598068E+02  0.20217088796E+02  0.00000000000E+00 0. -1.
</event>
<event>
 7    1  0.2599124E-010  0.4778727E+02  0.7816164E-02  0.1312668E+00
        -11   -1    0    0    0    0  0.00000000000E+00  0.00000000000E+00  0.45593999997E+02  0.45594000000E+02  0.51100000000E-03 0.  1.
         11   -1    0    0    0    0 -0.00000000000E+00 -0.00000000000E+00 -0.45593999997E+02  0.45594000000E+02  0.51100000000E-03 0. -1.
    9900012    2    1    2    0    0  0.13862128862E+02  0.41109035531E+02  0.12297335420E+01  0.47787266556E+02  0.19999979536E+02 0.  0.
         12    1    1    2    0    0 -0.13862128862E+02 -0.41109035531E+02 -0.12297335420E+01  0.43400733444E+02  0.00000000000E+00 0. -1.
         11    1    3    3    0    0 -0.28390568365E+01  0.52286637874E+01  0.31730731271E+01  0.67429638924E+01  0.51100000000E-03 0.  1.
        -11    1    3    3    0    0  0.50198847383E+00  0.37750838901E+01 -0.33273101429E+01  0.50570983630E+01  0.51100000000E-03 0. -1.
         12    1    3    3    0    0  0.16199197225E+02  0.32105287853E+02  0.13839705579E+01  0.35987204301E+02  0.00000000000E+00 0. -1.
</event>
<event>
 7    1  0.2599124E-010  0.4778727E+02  0.7816164E-02  0.1312668E+00
        -11   -1    0    0    0    0  0.00000000000E+00  0.00000000000E+00  0.45593999997E+02  0.45594000000E+02  0.51100000000E-03 0.  1.
         11   -1    0    0    0    0 -0.00000000000E+00 -0.00000000000E+00 -0.45593999997E+02  0.45594000000E+02  0.51100000000E-03 0. -1.
    9900012    2    1    2    0    0 -0.31604112674E+02  0.13287853067E+02  0.26612716995E+02  0.47787266332E+02  0.19999978516E+02 0.  0.
         12    1    1    2    0    0  0.31604112674E+02 -0.13287853067E+02 -0.26612716995E+02  0.43400733668E+02  0.00000000000E+00 0. -1.
         11    1    3    3    0    0 -0.77351721477E+01 -0.13301171831E+01  0.87386750719E+01  0.11745915977E+02  0.51100000000E-03 0. -1.
        -11    1    3    3    0    0 -0.16333543154E+02  0.66333140238E+01  0.17813787842E+02  0.25062252980E+02  0.51100000000E-03 0.  1.
         12    1    3    3    0    0 -0.75353973719E+01  0.79846562266E+01  0.60254080958E-01  0.10979097375E+02  0.00000000000E+00 0. -1.
</event>
<event>
 7    1  0.2599124E-010  0.4778728E+02  0.7816164E-02  0.1312668E+00
        -11   -1    0    0    0    0  0.00000000000E+00  0.00000000000E+00  0.45593999997E+02  0.45594000000E+02  0.51100000000E-03 0.  1.
         11   -1    0    0    0    0 -0.00000000000E+00 -0.00000000000E+00 -0.45593999997E+02  0.45594000000E+02  0.51100000000E-03 0. -1.
    9900012    2    1    2    0    0 -0.27073833972E+02  0.17733880798E+02  0.28916074573E+02  0.47787281310E+02  0.20000046804E+02 0.  0.
         12    1    1    2    0    0  0.27073833972E+02 -0.17733880798E+02 -0.28916074573E+02  0.43400718690E+02  0.00000000000E+00 0. -1.
         11    1    3    3    0    0 -0.26083818691E+01  0.72012897878E+01  0.74179013023E+01  0.10662433614E+02  0.51100000000E-03 0.  1.
        -11    1    3    3    0    0 -0.45211706753E+01  0.64625198934E+01  0.12699356655E+02  0.14949207583E+02  0.51100000000E-03 0. -1.
         12    1    3    3    0    0 -0.19944281428E+02  0.40700711169E+01  0.87988166156E+01  0.22175640113E+02  0.00000000000E+00 0. -1.
</event>
<event>
 7    1  0.2599124E-010  0.4778730E+02  0.7816164E-02  0.1312668E+00
        -11   -1    0    0    0    0  0.00000000000E+00  0.00000000000E+00  0.45593999997E+02  0.45594000000E+02  0.51100000000E-03 0.  1.
         11   -1    0    0    0    0 -0.00000000000E+00 -0.00000000000E+00 -0.45593999997E+02  0.45594000000E+02  0.51100000000E-03 0. -1.
    9900012    2    1    2    0    0 -0.39225803301E+02 -0.54857540023E+01  0.17744389138E+02  0.47787303145E+02  0.20000146359E+02 0.  0.
         12    1    1    2    0    0  0.39225803301E+02  0.54857540023E+01 -0.17744389138E+02  0.43400696855E+02  0.00000000000E+00 0. -1.
         11    1    3    3    0    0 -0.40535175883E+00 -0.18880681355E+01  0.24228332769E+01  0.30982628490E+01  0.51100000000E-03 0. -1.
        -11    1    3    3    0    0 -0.23318187743E+02 -0.86228108515E+01  0.48838793027E+01  0.25336594560E+02  0.51100000000E-03 0.  1.
         12    1    3    3    0    0 -0.15502263800E+02  0.50251249847E+01  0.10437676559E+02  0.19352445736E+02  0.00000000000E+00 0. -1.
</event>
<event>
 7    1  0.2599124E-010  0.4778727E+02  0.7816164E-02  0.1312668E+00
        -11   -1    0    0    0    0  0.00000000000E+00  0.00000000000E+00  0.45593999997E+02  0.45594000000E+02  0.51100000000E-03 0.  1.
         11   -1    0    0    0    0 -0.00000000000E+00 -0.00000000000E+00 -0.45593999997E+02  0.45594000000E+02  0.51100000000E-03 0. -1.
    9900012    2    1    2    0    0  0.18494470877E+02 -0.36133633803E+02  0.15360294814E+02  0.47787267268E+02  0.19999982784E+02 0.  0.
         12    1    1    2    0    0 -0.18494470877E+02  0.36133633803E+02 -0.15360294814E+02  0.43400732732E+02  0.00000000000E+00 0. -1.
         11    1    3    3    0    0  0.37388381307E+01 -0.43712958737E+01  0.49812662278E+01  0.76092149186E+01  0.51100000000E-03 0.  1.
        -11    1    3    3    0    0  0.13205992735E+02 -0.13055164811E+02 -0.31867738555E+00  0.18572483084E+02  0.51100000000E-03 0. -1.
         12    1    3    3    0    0  0.15496400114E+01 -0.18707173119E+02  0.10697705971E+02  0.21605569266E+02  0.00000000000E+00 0. -1.
</event>
<event>
 7    1  0.2599124E-010  0.4778727E+02  0.7816164E-02  0.1312668E+00
        -11   -1    0    0    0    0  0.00000000000E+00  0.00000000000E+00  0.45593999997E+02  0.45594000000E+02  0.51100000000E-03 0.  1.
         11   -1    0    0    0    0 -0.00000000000E+00 -0.00000000000E+00 -0.45593999997E+02  0.45594000000E+02  0.51100000000E-03 0. -1.
    9900012    2    1    2    0    0 -0.32393346404E+02 -0.25353199740E+02  0.13838705895E+02  0.47787269486E+02  0.19999992892E+02 0.  0.
         12    1    1    2    0    0  0.32393346404E+02  0.25353199740E+02 -0.13838705895E+02  0.43400730514E+02  0.00000000000E+00 0. -1.
         11    1    3    3    0    0 -0.19051414298E+02 -0.12792123638E+02  0.82519721755E+00  0.22962486029E+02  0.51100000000E-03 0. -1.
        -11    1    3    3    0    0 -0.14917741849E+02 -0.11920426951E+02  0.10506083821E+02  0.21794802089E+02  0.51100000000E-03 0.  1.
         12    1    3    3    0    0  0.15758097424E+01 -0.64064915089E+00  0.25074248563E+01  0.30299813677E+01  0.00000000000E+00 0. -1.
</event>
<event>
 7    1  0.2599124E-010  0.4778727E+02  0.7816164E-02  0.1312668E+00
        -11   -1    0    0    0    0  0.00000000000E+00  0.00000000000E+00  0.45593999997E+02  0.45594000000E+02  0.51100000000E-03 0. -1.
         11   -1    0    0    0    0 -0.00000000000E+00 -0.00000000000E+00 -0.45593999997E+02  0.45594000000E+02  0.51100000000E-03 0.  1.
    9900012    2    1    2    0    0  0.34571953935E+01  0.41492100101E+02 -0.12250569040E+02  0.47787274055E+02  0.20000013725E+02 0.  0.
         12    1    1    2    0    0 -0.34571953935E+01 -0.41492100101E+02  0.12250569040E+02  0.43400725945E+02  0.00000000000E+00 0. -1.
         11    1    3    3    0    0 -0.15463245888E+01  0.16302052349E+02 -0.69286032377E+01  0.17780707906E+02  0.51100000000E-03 0. -1.
        -11    1    3    3    0    0 -0.26038491243E+00  0.53534180411E+01 -0.76618419531E+01  0.93504388881E+01  0.51100000000E-03 0.  1.
         12    1    3    3    0    0  0.52639048946E+01  0.19836629711E+02  0.23398761511E+01  0.20656127261E+02  0.00000000000E+00 0. -1.
</event>
<event>
 7    1  0.2599124E-010  0.4778727E+02  0.7816164E-02  0.1312668E+00
        -11   -1    0    0    0    0  0.00000000000E+00  0.00000000000E+00  0.45593999997E+02  0.45594000000E+02  0.51100000000E-03 0.  1.
         11   -1    0    0    0    0 -0.00000000000E+00 -0.00000000000E+00 -0.45593999997E+02  0.45594000000E+02  0.51100000000E-03 0. -1.
    9900012    2    1    2    0    0 -0.74114357682E+01  0.39421564256E+02  0.16572086954E+02  0.47787272189E+02  0.20000005217E+02 0.  0.
         12    1    1    2    0    0  0.74114357682E+01 -0.39421564256E+02 -0.16572086954E+02  0.43400727811E+02  0.00000000000E+00 0. -1.
         11    1    3    3    0    0 -0.37228696299E+01  0.61803674735E+01 -0.20096324622E+01  0.74896811202E+01  0.51100000000E-03 0. -1.
        -11    1    3    3    0    0 -0.68615696299E+01  0.94008202658E+01  0.49025605634E+01  0.12629000744E+02  0.51100000000E-03 0.  1.
        -12    1    3    3    0    0  0.31730034917E+01  0.23840376517E+02  0.13679158852E+02  0.27668590324E+02  0.00000000000E+00 0.  1.
</event>
<event>
 7    1  0.2599124E-010  0.4778727E+02  0.7816164E-02  0.1312668E+00
        -11   -1    0    0    0    0  0.00000000000E+00  0.00000000000E+00  0.45593999997E+02  0.45594000000E+02  0.51100000000E-03 0.  1.
         11   -1    0    0    0    0 -0.00000000000E+00 -0.00000000000E+00 -0.45593999997E+02  0.45594000000E+02  0.51100000000E-03 0. -1.
    9900012    2    1    2    0    0  0.14354615923E+02  0.40816740274E+02  0.34002728338E+01  0.47787272584E+02  0.20000007021E+02 0.  0.
         12    1    1    2    0    0 -0.14354615923E+02 -0.40816740274E+02 -0.34002728338E+01  0.43400727416E+02  0.00000000000E+00 0. -1.
         11    1    3    3    0    0  0.10849213320E+02  0.22321074159E+02  0.97365306576E+01  0.26659628856E+02  0.51100000000E-03 0. -1.
        -11    1    3    3    0    0  0.22819142877E+00  0.48744158579E+01  0.14613715436E+01  0.50938794973E+01  0.51100000000E-03 0.  1.
         12    1    3    3    0    0  0.32772111745E+01  0.13621250257E+02 -0.77976293674E+01  0.16033764231E+02  0.00000000000E+00 0. -1.
</event>
<event>
 7    1  0.3595238E-010  0.4778727E+02  0.7816164E-02  0.1312668E+00
        -11   -1    0    0    0    0  0.00000000000E+00  0.00000000000E+00  0.45593999997E+02  0.45594000000E+02  0.51100000000E-03 0.  1.
         11   -1    0    0    0    0 -0.00000000000E+00 -0.00000000000E+00 -0.45593999997E+02  0.45594000000E+02  0.51100000000E-03 0. -1.
    9900012    2    1    2    0    0 -0.11033557183E+02 -0.34729653425E+02 -0.23574041028E+02  0.47787267040E+02  0.19999981743E+02 0.  0.
         12    1    1    2    0    0  0.11033557183E+02  0.34729653425E+02  0.23574041028E+02  0.43400732960E+02  0.00000000000E+00 0. -1.
         11    1    3    3    0    0  0.23921926486E+01 -0.29412402709E+01  0.33544944213E+00  0.38060486845E+01  0.51100000000E-03 0. -1.
        -11    1    3    3    0    0 -0.72163601464E+01 -0.38825791056E+01 -0.38268160782E+01  0.90440475359E+01  0.51100000000E-03 0.  1.
        -12    1    3    3    0    0 -0.62093896848E+01 -0.27905834048E+02 -0.20082674391E+02  0.34937170820E+02  0.00000000000E+00 0.  1.
</event>
<event>
 7    1  0.2599124E-010  0.4778728E+02  0.7816164E-02  0.1312668E+00
        -11   -1    0    0    0    0  0.00000000000E+00  0.00000000000E+00  0.45593999997E+02  0.45594000000E+02  0.51100000000E-03 0.  1.
         11   -1    0    0    0    0 -0.00000000000E+00 -0.00000000000E+00 -0.45593999997E+02  0.45594000000E+02  0.51100000000E-03 0. -1.
    9900012    2    1    2    0    0 -0.47318456246E+01 -0.35173356874E+02  0.24981336223E+02  0.47787279311E+02  0.20000037690E+02 0.  0.
         12    1    1    2    0    0  0.47318456246E+01  0.35173356874E+02 -0.24981336223E+02  0.43400720689E+02  0.00000000000E+00 0. -1.
         11    1    3    3    0    0  0.31799483254E+01 -0.75761854279E+00  0.86927171771E+00  0.33825568420E+01  0.51100000000E-03 0. -1.
        -11    1    3    3    0    0 -0.22833281267E+00 -0.17568256985E+02  0.61711944471E+01  0.18622014674E+02  0.51100000000E-03 0.  1.
        -12    1    3    3    0    0 -0.76834611374E+01 -0.16847481347E+02  0.17940870058E+02  0.25782707795E+02  0.00000000000E+00 0.  1.
</event>
<event>
 7    1  0.2599124E-010  0.4778727E+02  0.7816164E-02  0.1312668E+00
        -11   -1    0    0    0    0  0.00000000000E+00  0.00000000000E+00  0.45593999997E+02  0.45594000000E+02  0.51100000000E-03 0.  1.
         11   -1    0    0    0    0 -0.00000000000E+00 -0.00000000000E+00 -0.45593999997E+02  0.45594000000E+02  0.51100000000E-03 0. -1.
    9900012    2    1    2    0    0 -0.19765789047E+02  0.46444313905E+01  0.38358389839E+02  0.47787271543E+02  0.20000002271E+02 0.  0.
         12    1    1    2    0    0  0.19765789047E+02 -0.46444313905E+01 -0.38358389839E+02  0.43400728457E+02  0.00000000000E+00 0. -1.
         11    1    3    3    0    0 -0.12194231856E+02  0.15860912739E-01  0.16426875103E+02  0.20458293380E+02  0.51100000000E-03 0.  1.
        -11    1    3    3    0    0 -0.99683129316E+01  0.22965585352E+01  0.79565394140E+01  0.12959473890E+02  0.51100000000E-03 0. -1.
         12    1    3    3    0    0  0.23967557400E+01  0.23320119426E+01  0.13974975322E+02  0.14369504272E+02  0.00000000000E+00 0. -1.
</event>
<event>
 7    1  0.2599124E-010  0.4778727E+02  0.7816164E-02  0.1312668E+00
        -11   -1    0    0    0    0  0.00000000000E+00  0.00000000000E+00  0.45593999997E+02  0.45594000000E+02  0.51100000000E-03 0.  1.
         11   -1    0    0    0    0 -0.00000000000E+00 -0.00000000000E+00 -0.45593999997E+02  0.45594000000E+02  0.51100000000E-03 0. -1.
    9900012    2    1    2    0    0 -0.20009987402E+02 -0.74047714894E+01  0.37794088933E+02  0.47787269650E+02  0.19999993642E+02 0.  0.
         12    1    1    2    0    0  0.20009987402E+02  0.74047714894E+01 -0.37794088933E+02  0.43400730350E+02  0.00000000000E+00 0. -1.
         11    1    3    3    0    0  0.79799753547E+00 -0.15947657038E+01  0.35532337162E+01  0.39756191743E+01  0.51100000000E-03 0. -1.
        -11    1    3    3    0    0 -0.15170217393E+02  0.42876298851E+01  0.20035643992E+02  0.25494044329E+02  0.51100000000E-03 0.  1.
        -12    1    3    3    0    0 -0.56377675441E+01 -0.10097635671E+02  0.14205211225E+02  0.18317606147E+02  0.00000000000E+00 0.  1.
</event>
<event>
 7    1  0.2599124E-010  0.4778727E+02  0.7816164E-02  0.1312668E+00
        -11   -1    0    0    0    0  0.00000000000E+00  0.00000000000E+00  0.45593999997E+02  0.45594000000E+02  0.51100000000E-03 0. -1.
         11   -1    0    0    0    0 -0.00000000000E+00 -0.00000000000E+00 -0.45593999997E+02  0.45594000000E+02  0.51100000000E-03 0.  1.
    9900012    2    1    2    0    0  0.17788024283E+02 -0.20746638491E+02 -0.33716262259E+02  0.47787272387E+02  0.20000006123E+02 0.  0.
         12    1    1    2    0    0 -0.17788024283E+02  0.20746638491E+02  0.33716262259E+02  0.43400727613E+02  0.00000000000E+00 0. -1.
         11    1    3    3    0    0  0.28637056400E+01  0.16494272694E+01 -0.55835575941E+01  0.64882613987E+01  0.51100000000E-03 0. -1.
        -11    1    3    3    0    0  0.11277612870E+02 -0.62879554253E+01 -0.17140410951E+02  0.21459651053E+02  0.51100000000E-03 0.  1.
         12    1    3    3    0    0  0.36467057729E+01 -0.16108110335E+02 -0.10992293714E+02  0.19839359936E+02  0.00000000000E+00 0. -1.
</event>
<event>
 7    1  0.2599124E-010  0.4778728E+02  0.7816164E-02  0.1312668E+00
        -11   -1    0    0    0    0  0.00000000000E+00  0.00000000000E+00  0.45593999997E+02  0.45594000000E+02  0.51100000000E-03 0. -1.
         11   -1    0    0    0    0 -0.00000000000E+00 -0.00000000000E+00 -0.45593999997E+02  0.45594000000E+02  0.51100000000E-03 0.  1.
    9900012    2    1    2    0    0  0.17303339193E+02  0.39288356808E+02 -0.63751261252E+01  0.47787276953E+02  0.20000026939E+02 0.  0.
         12    1    1    2    0    0 -0.17303339193E+02 -0.39288356808E+02  0.63751261252E+01  0.43400723047E+02  0.00000000000E+00 0. -1.
         11    1    3    3    0    0  0.13271683376E+01 -0.13919679081E+01 -0.18832170335E+00  0.19324636551E+01  0.51100000000E-03 0. -1.
        -11    1    3    3    0    0  0.57457309896E+01  0.37839453287E+01  0.82679361622E+00  0.69293040632E+01  0.51100000000E-03 0.  1.
        -12    1    3    3    0    0  0.10230439866E+02  0.36896379387E+02 -0.70135980381E+01  0.38925509235E+02  0.00000000000E+00 0.  1.
</event>
<event>
 7    1  0.2599124E-010  0.4778727E+02  0.7816164E-02  0.1312668E+00
        -11   -1    0    0    0    0  0.00000000000E+00  0.00000000000E+00  0.45593999997E+02  0.45594000000E+02  0.51100000000E-03 0.  1.
         11   -1    0    0    0    0 -0.00000000000E+00 -0.00000000000E+00 -0.45593999997E+02  0.45594000000E+02  0.51100000000E-03 0. -1.
    9900012    2    1    2    0    0  0.32540091595E+02  0.15490337166E+02  0.24182958707E+02  0.47787267306E+02  0.19999982957E+02 0.  0.
         12    1    1    2    0    0 -0.32540091595E+02 -0.15490337166E+02 -0.24182958707E+02  0.43400732694E+02  0.00000000000E+00 0. -1.
         11    1    3    3    0    0  0.22953468777E+02  0.76792860986E+01  0.59061768110E+01  0.24914174453E+02  0.51100000000E-03 0. -1.
        -11    1    3    3    0    0  0.55149060375E+01  0.70844470182E+00  0.70741297343E+01  0.89977438425E+01  0.51100000000E-03 0.  1.
         12    1    3    3    0    0  0.40717167803E+01  0.71026063652E+01  0.11202652162E+02  0.13875349011E+02  0.00000000000E+00 0. -1.
</event>
<event>
 7    1  0.2599124E-010  0.4778727E+02  0.7816164E-02  0.1312668E+00
        -11   -1    0    0    0    0  0.00000000000E+00  0.00000000000E+00  0.45593999997E+02  0.45594000000E+02  0.51100000000E-03 0.  1.
         11   -1    0    0    0    0 -0.00000000000E+00 -0.00000000000E+00 -0.45593999997E+02  0.45594000000E+02  0.51100000000E-03 0. -1.
    9900012    2    1    2    0    0 -0.66212565292E+01 -0.10293314372E+02  0.41639284252E+02  0.47787270146E+02  0.19999995906E+02 0.  0.
         12    1    1    2    0    0  0.66212565292E+01  0.10293314372E+02 -0.41639284252E+02  0.43400729854E+02  0.00000000000E+00 0. -1.
         11    1    3    3    0    0 -0.21726668822E+00 -0.15315568470E+01  0.45566749082E+01  0.48120845451E+01  0.51100000000E-03 0.  1.
        -11    1    3    3    0    0 -0.13134576041E+02 -0.60583107904E+01  0.24418303402E+02  0.28380869590E+02  0.51100000000E-03 0. -1.
         12    1    3    3    0    0  0.67305861998E+01 -0.27034467348E+01  0.12664305942E+02  0.14594316011E+02  0.00000000000E+00 0. -1.
</event>
<event>
 7    1  0.2599124E-010  0.4778727E+02  0.7816164E-02  0.1312668E+00
        -11   -1    0    0    0    0  0.00000000000E+00  0.00000000000E+00  0.45593999997E+02  0.45594000000E+02  0.51100000000E-03 0.  1.
         11   -1    0    0    0    0 -0.00000000000E+00 -0.00000000000E+00 -0.45593999997E+02  0.45594000000E+02  0.51100000000E-03 0. -1.
    9900012    2    1    2    0    0  0.13531247522E+02 -0.33294408728E+02  0.24331278331E+02  0.47787269392E+02  0.19999992466E+02 0.  0.
         12    1    1    2    0    0 -0.13531247522E+02  0.33294408728E+02 -0.24331278331E+02  0.43400730608E+02  0.00000000000E+00 0. -1.
         11    1    3    3    0    0  0.60828927603E+01 -0.44853722887E+01 -0.78127909682E-03  0.75577873596E+01  0.51100000000E-03 0. -1.
        -11    1    3    3    0    0  0.66892015856E+01 -0.72204101594E+01  0.42021478612E+01  0.10702232834E+02  0.51100000000E-03 0.  1.
         12    1    3    3    0    0  0.75915317620E+00 -0.21588626280E+02  0.20129911749E+02  0.29527249199E+02  0.00000000000E+00 0. -1.
</event>
<event>
 7    1  0.2599124E-010  0.4778727E+02  0.7816164E-02  0.1312668E+00
        -11   -1    0    0    0    0  0.00000000000E+00  0.00000000000E+00  0.45593999997E+02  0.45594000000E+02  0.51100000000E-03 0. -1.
         11   -1    0    0    0    0 -0.00000000000E+00 -0.00000000000E+00 -0.45593999997E+02  0.45594000000E+02  0.51100000000E-03 0.  1.
    9900012    2    1    2    0    0 -0.81117720031E+01 -0.41558533172E+02 -0.95242202322E+01  0.47787270796E+02  0.19999998867E+02 0.  0.
         12    1    1    2    0    0  0.81117720031E+01  0.41558533172E+02  0.95242202322E+01  0.43400729204E+02  0.00000000000E+00 0. -1.
         11    1    3    3    0    0  0.18785196139E+01 -0.17296986044E+02 -0.13790139398E+01  0.17453258774E+02  0.51100000000E-03 0. -1.
        -11    1    3    3    0    0 -0.43764299873E+01 -0.19006390026E+02 -0.52895281900E+00  0.19510914705E+02  0.51100000000E-03 0.  1.
         12    1    3    3    0    0 -0.56138616297E+01 -0.52551571017E+01 -0.76162534734E+01  0.10823097317E+02  0.00000000000E+00 0. -1.
</event>
<event>
 7    1  0.2599124E-010  0.4778727E+02  0.7816164E-02  0.1312668E+00
        -11   -1    0    0    0    0  0.00000000000E+00  0.00000000000E+00  0.45593999997E+02  0.45594000000E+02  0.51100000000E-03 0. -1.
         11   -1    0    0    0    0 -0.00000000000E+00 -0.00000000000E+00 -0.45593999997E+02  0.45594000000E+02  0.51100000000E-03 0.  1.
    9900012    2    1    2    0    0  0.23220739983E+02 -0.19344336030E+02 -0.31148311257E+02  0.47787269638E+02  0.19999993587E+02 0.  0.
         12    1    1    2    0    0 -0.23220739983E+02  0.19344336030E+02  0.31148311257E+02  0.43400730362E+02  0.00000000000E+00 0. -1.
         11    1    3    3    0    0  0.91378167065E+01 -0.11021659414E+02 -0.59553660574E+01  0.15506226347E+02  0.51100000000E-03 0. -1.
        -11    1    3    3    0    0  0.33761666565E+01 -0.88042439833E+01 -0.12765248906E+02  0.15870248685E+02  0.51100000000E-03 0.  1.
         12    1    3    3    0    0  0.10706756620E+02  0.48156736679E+00 -0.12427696293E+02  0.16410794606E+02  0.00000000000E+00 0. -1.
</event>
<event>
 7    1  0.2599124E-010  0.4778729E+02  0.7816164E-02  0.1312668E+00
        -11   -1    0    0    0    0  0.00000000000E+00  0.00000000000E+00  0.45593999997E+02  0.45594000000E+02  0.51100000000E-03 0.  1.
         11   -1    0    0    0    0 -0.00000000000E+00 -0.00000000000E+00 -0.45593999997E+02  0.45594000000E+02  0.51100000000E-03 0. -1.
    9900012    2    1    2    0    0  0.29368273017E+02 -0.28647720731E+02  0.14157478419E+02  0.47787290809E+02  0.20000090115E+02 0.  0.
         12    1    1    2    0    0 -0.29368273017E+02  0.28647720731E+02 -0.14157478419E+02  0.43400709191E+02  0.00000000000E+00 0. -1.
         11    1    3    3    0    0  0.57070439359E+01 -0.12156699836E+02  0.23753740437E+01  0.13638112167E+02  0.51100000000E-03 0. -1.
        -11    1    3    3    0    0  0.80215647275E+00 -0.71327359728E+01  0.41759728403E+01  0.83041030153E+01  0.51100000000E-03 0.  1.
         12    1    3    3    0    0  0.22859072608E+02 -0.93582849229E+01  0.76061315346E+01  0.25845075626E+02  0.00000000000E+00 0. -1.
</event>
<event>
 7    1  0.2599124E-010  0.4778728E+02  0.7816164E-02  0.1312668E+00
        -11   -1    0    0    0    0  0.00000000000E+00  0.00000000000E+00  0.45593999997E+02  0.45594000000E+02  0.51100000000E-03 0.  1.
         11   -1    0    0    0    0 -0.00000000000E+00 -0.00000000000E+00 -0.45593999997E+02  0.45594000000E+02  0.51100000000E-03 0. -1.
    9900012    2    1    2    0    0  0.36970900012E+02 -0.77503021327E+00  0.22719476446E+02  0.47787277316E+02  0.20000028594E+02 0.  0.
         12    1    1    2    0    0 -0.36970900012E+02  0.77503021327E+00 -0.22719476446E+02  0.43400722684E+02  0.00000000000E+00 0. -1.
         11    1    3    3    0    0  0.11769146105E+02 -0.33454706423E+01  0.14352560837E+02  0.18860036498E+02  0.51100000000E-03 0. -1.
        -11    1    3    3    0    0  0.18203215139E+02  0.20202463362E+01  0.11074714686E+02  0.21402984424E+02  0.51100000000E-03 0.  1.
         12    1    3    3    0    0  0.69985387684E+01  0.55019409278E+00 -0.27077990772E+01  0.75242563935E+01  0.00000000000E+00 0. -1.
</event>
<event>
 7    1  0.2599124E-010  0.4778727E+02  0.7816164E-02  0.1312668E+00
        -11   -1    0    0    0    0  0.00000000000E+00  0.00000000000E+00  0.45593999997E+02  0.45594000000E+02  0.51100000000E-03 0.  1.
         11   -1    0    0    0    0 -0.00000000000E+00 -0.00000000000E+00 -0.45593999997E+02  0.45594000000E+02  0.51100000000E-03 0. -1.
    9900012    2    1    2    0    0 -0.13167109588E+02  0.17916957679E+02  0.37272417025E+02  0.47787271686E+02  0.20000002923E+02 0.  0.
         12    1    1    2    0    0  0.13167109588E+02 -0.17916957679E+02 -0.37272417025E+02  0.43400728314E+02  0.00000000000E+00 0. -1.
         11    1    3    3    0    0 -0.34846104185E+01  0.10850799185E+02  0.20127029880E+02  0.23129627856E+02  0.51100000000E-03 0. -1.
        -11    1    3    3    0    0 -0.23417213753E+01  0.96169550176E+01  0.10533188154E+02  0.14453979928E+02  0.51100000000E-03 0.  1.
         12    1    3    3    0    0 -0.73407777939E+01 -0.25507965234E+01  0.66121989909E+01  0.10203663902E+02  0.00000000000E+00 0. -1.
</event>
<event>
 7    1  0.2599124E-010  0.4778727E+02  0.7816164E-02  0.1312668E+00
        -11   -1    0    0    0    0  0.00000000000E+00  0.00000000000E+00  0.45593999997E+02  0.45594000000E+02  0.51100000000E-03 0. -1.
         11   -1    0    0    0    0 -0.00000000000E+00 -0.00000000000E+00 -0.45593999997E+02  0.45594000000E+02  0.51100000000E-03 0.  1.
    9900012    2    1    2    0    0  0.30755566931E+02 -0.20895853922E+02 -0.22384856979E+02  0.47787269242E+02  0.19999991781E+02 0.  0.
         12    1    1    2    0    0 -0.30755566931E+02  0.20895853922E+02  0.22384856979E+02  0.43400730758E+02  0.00000000000E+00 0. -1.
         11    1    3    3    0    0 -0.77987762183E+00 -0.39473961213E+01  0.68869760419E+00  0.40822113975E+01  0.51100000000E-03 0. -1.
        -11    1    3    3    0    0  0.12429922598E+02 -0.85825829509E+01 -0.44588418050E+01  0.15749443685E+02  0.51100000000E-03 0.  1.
        -12    1    3    3    0    0  0.19105521955E+02 -0.83658748495E+01 -0.18614712778E+02  0.27955614159E+02  0.00000000000E+00 0.  1.
</event>
<event>
 7    1  0.2599124E-010  0.4778727E+02  0.7816164E-02  0.1312668E+00
        -11   -1    0    0    0    0  0.00000000000E+00  0.00000000000E+00  0.45593999997E+02  0.45594000000E+02  0.51100000000E-03 0. -1.
         11   -1    0    0    0    0 -0.00000000000E+00 -0.00000000000E+00 -0.45593999997E+02  0.45594000000E+02  0.51100000000E-03 0.  1.
    9900012    2    1    2    0    0  0.43059336642E+02 -0.17574249298E+01  0.51408549651E+01  0.47787269542E+02  0.19999993152E+02 0.  0.
         12    1    1    2    0    0 -0.43059336642E+02  0.17574249298E+01 -0.51408549651E+01  0.43400730458E+02  0.00000000000E+00 0. -1.
         11    1    3    3    0    0  0.18346067963E+02  0.33643289362E+01  0.37165727102E+01  0.19018670612E+02  0.51100000000E-03 0. -1.
        -11    1    3    3    0    0  0.23847366192E+02 -0.59015619648E+01  0.49454825286E+01  0.25059591090E+02  0.51100000000E-03 0.  1.
        -12    1    3    3    0    0  0.86590248793E+00  0.77980809877E+00 -0.35212002737E+01  0.37090078400E+01  0.00000000000E+00 0.  1.
</event>
<event>
 7    1  0.2599124E-010  0.4778727E+02  0.7816164E-02  0.1312668E+00
        -11   -1    0    0    0    0  0.00000000000E+00  0.00000000000E+00  0.45593999997E+02  0.45594000000E+02  0.51100000000E-03 0. -1.
         11   -1    0    0    0    0 -0.00000000000E+00 -0.00000000000E+00 -0.45593999997E+02  0.45594000000E+02  0.51100000000E-03 0.  1.
    9900012    2    1    2    0    0 -0.42818828764E+02 -0.23821641613E+01 -0.66705775338E+01  0.47787269505E+02  0.19999992983E+02 0.  0.
         12    1    1    2    0    0  0.42818828764E+02  0.23821641613E+01  0.66705775338E+01  0.43400730495E+02  0.00000000000E+00 0. -1.
         11    1    3    3    0    0 -0.35294183541E+01 -0.38578248511E+01 -0.46722260414E+00  0.52495622410E+01  0.51100000000E-03 0. -1.
        -11    1    3    3    0    0  0.11379506887E+01 -0.27385892170E+00  0.87075352674E+00  0.14588154250E+01  0.51100000000E-03 0.  1.
        -12    1    3    3    0    0 -0.40427361099E+02  0.17495196115E+01 -0.70741084564E+01  0.41078891839E+02  0.00000000000E+00 0.  1.
</event>
<event>
 7    1  0.2599124E-010  0.4778727E+02  0.7816164E-02  0.1312668E+00
        -11   -1    0    0    0    0  0.00000000000E+00  0.00000000000E+00  0.45593999997E+02  0.45594000000E+02  0.51100000000E-03 0. -1.
         11   -1    0    0    0    0 -0.00000000000E+00 -0.00000000000E+00 -0.45593999997E+02  0.45594000000E+02  0.51100000000E-03 0.  1.
    9900012    2    1    2    0    0  0.39420144089E+02  0.83324285311E+01 -0.16132149396E+02  0.47787269944E+02  0.19999994984E+02 0.  0.
         12    1    1    2    0    0 -0.39420144089E+02 -0.83324285311E+01  0.16132149396E+02  0.43400730056E+02  0.00000000000E+00 0. -1.
         11    1    3    3    0    0  0.14896738392E+02  0.14615548027E+01 -0.80856013595E+01  0.17012522058E+02  0.51100000000E-03 0. -1.
        -11    1    3    3    0    0  0.19414189065E+02 -0.13927813385E+01 -0.80398230638E+01  0.21059186406E+02  0.51100000000E-03 0.  1.
         12    1    3    3    0    0  0.51092166317E+01  0.82636550670E+01 -0.67249729346E-02  0.97155614805E+01  0.00000000000E+00 0. -1.
</event>
<event>
 7    1  0.2599124E-010  0.4778727E+02  0.7816164E-02  0.1312668E+00
        -11   -1    0    0    0    0  0.00000000000E+00  0.00000000000E+00  0.45593999997E+02  0.45594000000E+02  0.51100000000E-03 0.  1.
         11   -1    0    0    0    0 -0.00000000000E+00 -0.00000000000E+00 -0.45593999997E+02  0.45594000000E+02  0.51100000000E-03 0. -1.
    9900012    2    1    2    0    0  0.29894787049E+02  0.12665328008E+02  0.28801293312E+02  0.47787270482E+02  0.19999997435E+02 0.  0.
         12    1    1    2    0    0 -0.29894787049E+02 -0.12665328008E+02 -0.28801293312E+02  0.43400729518E+02  0.00000000000E+00 0. -1.
         11    1    3    3    0    0  0.74162477226E+01  0.79364505089E+01  0.64902077703E+01  0.12653488615E+02  0.51100000000E-03 0. -1.
        -11    1    3    3    0    0  0.14681731895E+02  0.99679699100E+01  0.14444326606E+02  0.22881264102E+02  0.51100000000E-03 0.  1.
         12    1    3    3    0    0  0.77968074320E+01 -0.52390924111E+01  0.78667589358E+01  0.12252517765E+02  0.00000000000E+00 0. -1.
</event>
<event>
 7    1  0.2599124E-010  0.4778727E+02  0.7816164E-02  0.1312668E+00
        -11   -1    0    0    0    0  0.00000000000E+00  0.00000000000E+00  0.45593999997E+02  0.45594000000E+02  0.51100000000E-03 0.  1.
         11   -1    0    0    0    0 -0.00000000000E+00 -0.00000000000E+00 -0.45593999997E+02  0.45594000000E+02  0.51100000000E-03 0. -1.
    9900012    2    1    2    0    0  0.30687999310E+02  0.29708495078E+02  0.76990639949E+01  0.47787267658E+02  0.19999984560E+02 0.  0.
         12    1    1    2    0    0 -0.30687999310E+02 -0.29708495078E+02 -0.76990639949E+01  0.43400732342E+02  0.00000000000E+00 0. -1.
         11    1    3    3    0    0  0.64627534362E+01  0.12607517304E+02  0.60070809925E+01  0.15388362384E+02  0.51100000000E-03 0. -1.
        -11    1    3    3    0    0  0.11339767697E+02  0.15327446183E+02 -0.10915242518E+01  0.19097443896E+02  0.51100000000E-03 0.  1.
         12    1    3    3    0    0  0.12885478177E+02  0.17735315902E+01  0.27835072542E+01  0.13301461377E+02  0.00000000000E+00 0. -1.
</event>
<event>
 7    1  0.2599124E-010  0.4778727E+02  0.7816164E-02  0.1312668E+00
        -11   -1    0    0    0    0  0.00000000000E+00  0.00000000000E+00  0.45593999997E+02  0.45594000000E+02  0.51100000000E-03 0. -1.
         11   -1    0    0    0    0 -0.00000000000E+00 -0.00000000000E+00 -0.45593999997E+02  0.45594000000E+02  0.51100000000E-03 0.  1.
    9900012    2    1    2    0    0 -0.14594841908E+02 -0.12383563589E+02 -0.38952038933E+02  0.47787269655E+02  0.19999993663E+02 0.  0.
         12    1    1    2    0    0  0.14594841908E+02  0.12383563589E+02  0.38952038933E+02  0.43400730345E+02  0.00000000000E+00 0. -1.
         11    1    3    3    0    0 -0.98082823682E+01 -0.17937104452E+01 -0.11917084400E+02  0.15538233524E+02  0.51100000000E-03 0. -1.
        -11    1    3    3    0    0 -0.82746065135E+01 -0.89347390567E+01 -0.13531066830E+02  0.18204077696E+02  0.51100000000E-03 0.  1.
        -12    1    3    3    0    0  0.34880469737E+01 -0.16551140868E+01 -0.13503887703E+02  0.14044958435E+02  0.00000000000E+00 0.  1.
</event>
<event>
 7    1  0.2599124E-010  0.4778727E+02  0.7816164E-02  0.1312668E+00
        -11   -1    0    0    0    0  0.00000000000E+00  0.00000000000E+00  0.45593999997E+02  0.45594000000E+02  0.51100000000E-03 0. -1.
         11   -1    0    0    0    0 -0.00000000000E+00 -0.00000000000E+00 -0.45593999997E+02  0.45594000000E+02  0.51100000000E-03 0.  1.
    9900012    2    1    2    0    0 -0.63551017445E+01  0.40775485720E+02 -0.13438603636E+02  0.47787267039E+02  0.19999981738E+02 0.  0.
         12    1    1    2    0    0  0.63551017445E+01 -0.40775485720E+02  0.13438603636E+02  0.43400732961E+02  0.00000000000E+00 0. -1.
         11    1    3    3    0    0  0.29956684269E+01  0.25407013790E+01  0.61136919693E-02  0.39280059139E+01  0.51100000000E-03 0. -1.
        -11    1    3    3    0    0  0.10395980042E+01  0.16603552585E+02 -0.10522854735E+02  0.19684745223E+02  0.51100000000E-03 0.  1.
         12    1    3    3    0    0 -0.10390368176E+02  0.21631231756E+02 -0.29218625924E+01  0.24174515902E+02  0.00000000000E+00 0. -1.
</event>
<event>
 7    1  0.2599124E-010  0.4778727E+02  0.7816164E-02  0.1312668E+00
        -11   -1    0    0    0    0  0.00000000000E+00  0.00000000000E+00  0.45593999997E+02  0.45594000000E+02  0.51100000000E-03 0. -1.
         11   -1    0    0    0    0 -0.00000000000E+00 -0.00000000000E+00 -0.45593999997E+02  0.45594000000E+02  0.51100000000E-03 0.  1.
    9900012    2    1    2    0    0 -0.74071202505E+01 -0.52769697166E+01 -0.42437147788E+02  0.47787270142E+02  0.19999995886E+02 0.  0.
         12    1    1    2    0    0  0.74071202505E+01  0.52769697166E+01  0.42437147788E+02  0.43400729858E+02  0.00000000000E+00 0. -1.
         11    1    3    3    0    0 -0.51227558348E+01 -0.18330823228E+01 -0.12325475009E+02  0.13472941498E+02  0.51100000000E-03 0. -1.
        -11    1    3    3    0    0 -0.80515766684E+00 -0.24486358290E+01  0.12759352264E+01  0.28761271277E+01  0.51100000000E-03 0.  1.
        -12    1    3    3    0    0 -0.14792067488E+01 -0.99525156477E+00 -0.31387608005E+02  0.31438201516E+02  0.00000000000E+00 0.  1.
</event>
<event>
 7    1  0.2599124E-010  0.4778728E+02  0.7816164E-02  0.1312668E+00
        -11   -1    0    0    0    0  0.00000000000E+00  0.00000000000E+00  0.45593999997E+02  0.45594000000E+02  0.51100000000E-03 0.  1.
         11   -1    0    0    0    0 -0.00000000000E+00 -0.00000000000E+00 -0.45593999997E+02  0.45594000000E+02  0.51100000000E-03 0. -1.
    9900012    2    1    2    0    0  0.57182221057E+01  0.83335363936E+01  0.42207546558E+02  0.47787275590E+02  0.20000020726E+02 0.  0.
         12    1    1    2    0    0 -0.57182221057E+01 -0.83335363936E+01 -0.42207546558E+02  0.43400724410E+02  0.00000000000E+00 0. -1.
         11    1    3    3    0    0  0.36646562928E+01  0.25440329366E+00  0.69255772516E+01  0.78395183085E+01  0.51100000000E-03 0. -1.
        -11    1    3    3    0    0 -0.33250070134E+01  0.70554045151E+01  0.33177716825E+02  0.34082184474E+02  0.51100000000E-03 0.  1.
         12    1    3    3    0    0  0.53785728263E+01  0.10237285848E+01  0.21042524808E+01  0.58655728081E+01  0.00000000000E+00 0. -1.
</event>
<event>
 7    1  0.2599124E-010  0.4778727E+02  0.7816164E-02  0.1312668E+00
        -11   -1    0    0    0    0  0.00000000000E+00  0.00000000000E+00  0.45593999997E+02  0.45594000000E+02  0.51100000000E-03 0. -1.
         11   -1    0    0    0    0 -0.00000000000E+00 -0.00000000000E+00 -0.45593999997E+02  0.45594000000E+02  0.51100000000E-03 0.  1.
    9900012    2    1    2    0    0 -0.42347298234E+02  0.77271870308E+01 -0.55335605787E+01  0.47787269824E+02  0.19999994436E+02 0.  0.
         12    1    1    2    0    0  0.42347298234E+02 -0.77271870308E+01  0.55335605787E+01  0.43400730176E+02  0.00000000000E+00 0. -1.
         11    1    3    3    0    0 -0.10553173772E+02 -0.72395975642E+00  0.36074138893E+01  0.11176181353E+02  0.51100000000E-03 0.  1.
        -11    1    3    3    0    0  0.33918318855E+00  0.92352268942E-01 -0.27830216643E+01  0.28051352948E+01  0.51100000000E-03 0. -1.
        -12    1    3    3    0    0 -0.32133307650E+02  0.83587945183E+01 -0.63579528037E+01  0.33805953177E+02  0.00000000000E+00 0.  1.
</event>
<event>
 7    1  0.2599124E-010  0.4778727E+02  0.7816164E-02  0.1312668E+00
        -11   -1    0    0    0    0  0.00000000000E+00  0.00000000000E+00  0.45593999997E+02  0.45594000000E+02  0.51100000000E-03 0.  1.
         11   -1    0    0    0    0 -0.00000000000E+00 -0.00000000000E+00 -0.45593999997E+02  0.45594000000E+02  0.51100000000E-03 0. -1.
    9900012    2    1    2    0    0  0.60982540102E+01  0.38658721646E+01  0.42795903391E+02  0.47787274008E+02  0.20000013513E+02 0.  0.
         12    1    1    2    0    0 -0.60982540102E+01 -0.38658721646E+01 -0.42795903391E+02  0.43400725992E+02  0.00000000000E+00 0. -1.
         11    1    3    3    0    0  0.54460173246E+01  0.29309481922E+01  0.69418055078E+01  0.92972160336E+01  0.51100000000E-03 0. -1.
        -11    1    3    3    0    0  0.13519986926E+01  0.61417503100E+01  0.29879542105E+02  0.30534178129E+02  0.51100000000E-03 0.  1.
         12    1    3    3    0    0 -0.69976200700E+00 -0.52068263376E+01  0.59745557784E+01  0.79558798461E+01  0.00000000000E+00 0. -1.
</event>
<event>
 7    1  0.2599124E-010  0.4778727E+02  0.7816164E-02  0.1312668E+00
        -11   -1    0    0    0    0  0.00000000000E+00  0.00000000000E+00  0.45593999997E+02  0.45594000000E+02  0.51100000000E-03 0. -1.
         11   -1    0    0    0    0 -0.00000000000E+00 -0.00000000000E+00 -0.45593999997E+02  0.45594000000E+02  0.51100000000E-03 0.  1.
    9900012    2    1    2    0    0 -0.40553930148E+01 -0.37997994498E+02 -0.20574975947E+02  0.47787269205E+02  0.19999991612E+02 0.  0.
         12    1    1    2    0    0  0.40553930148E+01  0.37997994498E+02  0.20574975947E+02  0.43400730795E+02  0.00000000000E+00 0. -1.
         11    1    3    3    0    0  0.54753609447E+00 -0.21160451245E+02 -0.76617183294E+01  0.22511473090E+02  0.51100000000E-03 0. -1.
        -11    1    3    3    0    0  0.34574715481E+01 -0.74451402225E+01 -0.13141970372E+01  0.83133228346E+01  0.51100000000E-03 0.  1.
         12    1    3    3    0    0 -0.80604006573E+01 -0.93924030309E+01 -0.11599060580E+02  0.16962473280E+02  0.00000000000E+00 0. -1.
</event>
<event>
 7    1  0.2599124E-010  0.4778727E+02  0.7816164E-02  0.1312668E+00
        -11   -1    0    0    0    0  0.00000000000E+00  0.00000000000E+00  0.45593999997E+02  0.45594000000E+02  0.51100000000E-03 0.  1.
         11   -1    0    0    0    0 -0.00000000000E+00 -0.00000000000E+00 -0.45593999997E+02  0.45594000000E+02  0.51100000000E-03 0. -1.
    9900012    2    1    2    0    0 -0.15888720122E+02 -0.57521583509E+01  0.39976052328E+02  0.47787268295E+02  0.19999987463E+02 0.  0.
         12    1    1    2    0    0  0.15888720122E+02  0.57521583509E+01 -0.39976052328E+02  0.43400731705E+02  0.00000000000E+00 0. -1.
         11    1    3    3    0    0 -0.54579654886E+00 -0.92003485122E+01  0.13502417114E+02  0.16348075569E+02  0.51100000000E-03 0. -1.
        -11    1    3    3    0    0 -0.12429974089E+01  0.24761787923E+01  0.53245922000E+01  0.60023150807E+01  0.51100000000E-03 0.  1.
         12    1    3    3    0    0 -0.14099926164E+02  0.97201136897E+00  0.21149043014E+02  0.25436877645E+02  0.00000000000E+00 0. -1.
</event>
<event>
 7    1  0.2599124E-010  0.4778727E+02  0.7816164E-02  0.1312668E+00
        -11   -1    0    0    0    0  0.00000000000E+00  0.00000000000E+00  0.45593999997E+02  0.45594000000E+02  0.51100000000E-03 0. -1.
         11   -1    0    0    0    0 -0.00000000000E+00 -0.00000000000E+00 -0.45593999997E+02  0.45594000000E+02  0.51100000000E-03 0.  1.
    9900012    2    1    2    0    0  0.40895748047E+01 -0.43179345601E+02 -0.15629059644E+01  0.47787272084E+02  0.20000004741E+02 0.  0.
         12    1    1    2    0    0 -0.40895748047E+01  0.43179345601E+02  0.15629059644E+01  0.43400727916E+02  0.00000000000E+00 0. -1.
         11    1    3    3    0    0  0.17239354106E+01 -0.68675986669E+01 -0.18125460710E+01  0.73089799747E+01  0.51100000000E-03 0. -1.
        -11    1    3    3    0    0  0.31630783498E+00 -0.36491809240E+02 -0.30171683140E+01  0.36617693771E+02  0.51100000000E-03 0.  1.
         12    1    3    3    0    0  0.20493315591E+01  0.18006230590E+00  0.32668084206E+01  0.38605983384E+01  0.00000000000E+00 0. -1.
</event>
<event>
 7    1  0.2599124E-010  0.4778727E+02  0.7816164E-02  0.1312668E+00
        -11   -1    0    0    0    0  0.00000000000E+00  0.00000000000E+00  0.45593999997E+02  0.45594000000E+02  0.51100000000E-03 0.  1.
         11   -1    0    0    0    0 -0.00000000000E+00 -0.00000000000E+00 -0.45593999997E+02  0.45594000000E+02  0.51100000000E-03 0. -1.
    9900012    2    1    2    0    0  0.75513506111E+01  0.20077527651E+02  0.37729208315E+02  0.47787272210E+02  0.20000005313E+02 0.  0.
         12    1    1    2    0    0 -0.75513506111E+01 -0.20077527651E+02 -0.37729208315E+02  0.43400727790E+02  0.00000000000E+00 0. -1.
         11    1    3    3    0    0 -0.22995474733E+01  0.12723549735E+01  0.13876075109E+02  0.14122757041E+02  0.51100000000E-03 0. -1.
        -11    1    3    3    0    0  0.47622687116E+01  0.23532824377E+01  0.10867795497E+02  0.12096533418E+02  0.51100000000E-03 0.  1.
        -12    1    3    3    0    0  0.50886293729E+01  0.16451890240E+02  0.12985337710E+02  0.21567981751E+02  0.00000000000E+00 0.  1.
</event>
<event>
 7    1  0.2599124E-010  0.4778727E+02  0.7816164E-02  0.1312668E+00
        -11   -1    0    0    0    0  0.00000000000E+00  0.00000000000E+00  0.45593999997E+02  0.45594000000E+02  0.51100000000E-03 0.  1.
         11   -1    0    0    0    0 -0.00000000000E+00 -0.00000000000E+00 -0.45593999997E+02  0.45594000000E+02  0.51100000000E-03 0. -1.
    9900012    2    1    2    0    0  0.54115442450E+01 -0.42376638626E+02  0.76523888465E+01  0.47787269966E+02  0.19999995085E+02 0.  0.
         12    1    1    2    0    0 -0.54115442450E+01  0.42376638626E+02 -0.76523888465E+01  0.43400730034E+02  0.00000000000E+00 0. -1.
         11    1    3    3    0    0  0.18807792261E+01 -0.13800016257E+02  0.81258165449E+00  0.13951274795E+02  0.51100000000E-03 0. -1.
        -11    1    3    3    0    0 -0.31903214731E+01 -0.12594411641E+02  0.97653313195E+01  0.16252970551E+02  0.51100000000E-03 0.  1.
         12    1    3    3    0    0  0.67210864919E+01 -0.15982210728E+02 -0.29255241275E+01  0.17583024620E+02  0.00000000000E+00 0. -1.
</event>
<event>
 7    1  0.2599124E-010  0.4778727E+02  0.7816164E-02  0.1312668E+00
        -11   -1    0    0    0    0  0.00000000000E+00  0.00000000000E+00  0.45593999997E+02  0.45594000000E+02  0.51100000000E-03 0. -1.
         11   -1    0    0    0    0 -0.00000000000E+00 -0.00000000000E+00 -0.45593999997E+02  0.45594000000E+02  0.51100000000E-03 0.  1.
    9900012    2    1    2    0    0  0.30232751216E+02  0.26890013117E+02  0.15701322164E+02  0.47787267642E+02  0.19999984486E+02 0.  0.
         12    1    1    2    0    0 -0.30232751216E+02 -0.26890013117E+02 -0.15701322164E+02  0.43400732358E+02  0.00000000000E+00 0. -1.
         11    1    3    3    0    0  0.81232694557E+01  0.23575134145E+01  0.21492118779E+01  0.87272268279E+01  0.51100000000E-03 0. -1.
        -11    1    3    3    0    0  0.67547375899E+01  0.14961439196E+02 -0.63791996379E-01  0.16415700180E+02  0.51100000000E-03 0.  1.
         12    1    3    3    0    0  0.15354744171E+02  0.95710605063E+01  0.13615902283E+02  0.22644340634E+02  0.00000000000E+00 0. -1.
</event>
<event>
 7    1  0.2599124E-010  0.4778727E+02  0.7816164E-02  0.1312668E+00
        -11   -1    0    0    0    0  0.00000000000E+00  0.00000000000E+00  0.45593999997E+02  0.45594000000E+02  0.51100000000E-03 0.  1.
         11   -1    0    0    0    0 -0.00000000000E+00 -0.00000000000E+00 -0.45593999997E+02  0.45594000000E+02  0.51100000000E-03 0. -1.
    9900012    2    1    2    0    0  0.37941817821E+02 -0.11247238122E+02 -0.17819699345E+02  0.47787267406E+02  0.19999983413E+02 0.  0.
         12    1    1    2    0    0 -0.37941817821E+02  0.11247238122E+02  0.17819699345E+02  0.43400732594E+02  0.00000000000E+00 0. -1.
         11    1    3    3    0    0  0.62695760937E+01 -0.30116246286E+01  0.11407629570E+01  0.70483194935E+01  0.51100000000E-03 0. -1.
        -11    1    3    3    0    0  0.30436041606E+01 -0.17023306185E+01  0.25656079315E+01  0.43294110616E+01  0.51100000000E-03 0.  1.
        -12    1    3    3    0    0  0.28628637566E+02 -0.65332828748E+01 -0.21526070234E+02  0.36409536851E+02  0.00000000000E+00 0.  1.
</event>
<event>
 7    1  0.2599124E-010  0.4778727E+02  0.7816164E-02  0.1312668E+00
        -11   -1    0    0    0    0  0.00000000000E+00  0.00000000000E+00  0.45593999997E+02  0.45594000000E+02  0.51100000000E-03 0.  1.
         11   -1    0    0    0    0 -0.00000000000E+00 -0.00000000000E+00 -0.45593999997E+02  0.45594000000E+02  0.51100000000E-03 0. -1.
    9900012    2    1    2    0    0  0.12849870368E+02  0.32198123797E+02  0.26111018196E+02  0.47787267106E+02  0.19999982043E+02 0.  0.
         12    1    1    2    0    0 -0.12849870368E+02 -0.32198123797E+02 -0.26111018196E+02  0.43400732894E+02  0.00000000000E+00 0. -1.
         11    1    3    3    0    0  0.68213034523E+01  0.47298705021E+01  0.54607090525E+01  0.99358542346E+01  0.51100000000E-03 0. -1.
        -11    1    3    3    0    0  0.10895643275E+02  0.17256320455E+02  0.13112553643E+02  0.24257673040E+02  0.51100000000E-03 0.  1.
        -12    1    3    3    0    0 -0.48670763593E+01  0.10211932840E+02  0.75377554997E+01  0.13593739831E+02  0.00000000000E+00 0.  1.
</event>
<event>
 7    1  0.2599124E-010  0.4778727E+02  0.7816164E-02  0.1312668E+00
        -11   -1    0    0    0    0  0.00000000000E+00  0.00000000000E+00  0.45593999997E+02  0.45594000000E+02  0.51100000000E-03 0. -1.
         11   -1    0    0    0    0 -0.00000000000E+00 -0.00000000000E+00 -0.45593999997E+02  0.45594000000E+02  0.51100000000E-03 0.  1.
    9900012    2    1    2    0    0  0.35022152547E+01  0.17129563572E+02 -0.39723243197E+02  0.47787268325E+02  0.19999987600E+02 0.  0.
         12    1    1    2    0    0 -0.35022152547E+01 -0.17129563572E+02  0.39723243197E+02  0.43400731675E+02  0.00000000000E+00 0. -1.
         11    1    3    3    0    0  0.55075556813E+01  0.56163301778E+01 -0.11889260242E+02  0.14255905570E+02  0.51100000000E-03 0. -1.
        -11    1    3    3    0    0  0.17940128335E+01  0.69397218766E+01 -0.26480535941E+02  0.27433501522E+02  0.51100000000E-03 0.  1.
         12    1    3    3    0    0 -0.37993532601E+01  0.45735115171E+01 -0.13534470133E+01  0.60978612325E+01  0.00000000000E+00 0. -1.
</event>
<event>
 7    1  0.2599124E-010  0.4778727E+02  0.7816164E-02  0.1312668E+00
        -11   -1    0    0    0    0  0.00000000000E+00  0.00000000000E+00  0.45593999997E+02  0.45594000000E+02  0.51100000000E-03 0. -1.
         11   -1    0    0    0    0 -0.00000000000E+00 -0.00000000000E+00 -0.45593999997E+02  0.45594000000E+02  0.51100000000E-03 0.  1.
    9900012    2    1    2    0    0  0.27220684712E+01 -0.15782313700E+02 -0.40337727109E+02  0.47787270619E+02  0.19999998059E+02 0.  0.
         12    1    1    2    0    0 -0.27220684712E+01  0.15782313700E+02  0.40337727109E+02  0.43400729381E+02  0.00000000000E+00 0. -1.
         11    1    3    3    0    0 -0.27695766688E+01 -0.57521324087E+01 -0.36468934077E+01  0.73523747157E+01  0.51100000000E-03 0. -1.
        -11    1    3    3    0    0  0.40891012954E+01 -0.71622356825E+01 -0.77460384117E+01  0.11314569400E+02  0.51100000000E-03 0.  1.
         12    1    3    3    0    0  0.14025438445E+01 -0.28679456086E+01 -0.28944795290E+02  0.29120326503E+02  0.00000000000E+00 0. -1.
</event>
<event>
 7    1  0.2599124E-010  0.4778727E+02  0.7816164E-02  0.1312668E+00
        -11   -1    0    0    0    0  0.00000000000E+00  0.00000000000E+00  0.45593999997E+02  0.45594000000E+02  0.51100000000E-03 0.  1.
         11   -1    0    0    0    0 -0.00000000000E+00 -0.00000000000E+00 -0.45593999997E+02  0.45594000000E+02  0.51100000000E-03 0. -1.
    9900012    2    1    2    0    0 -0.42805916163E+02  0.49284412465E+01  0.51949062690E+01  0.47787273706E+02  0.20000012135E+02 0.  0.
         12    1    1    2    0    0  0.42805916163E+02 -0.49284412465E+01 -0.51949062690E+01  0.43400726294E+02  0.00000000000E+00 0. -1.
         11    1    3    3    0    0 -0.21557978338E+02  0.77595935066E+01 -0.11779687775E+01  0.22942217245E+02  0.51100000000E-03 0. -1.
        -11    1    3    3    0    0 -0.20843868323E+02  0.31032475767E+00  0.55728040150E+01  0.21578213387E+02  0.51100000000E-03 0.  1.
         12    1    3    3    0    0 -0.40406950260E+00 -0.31414770178E+01  0.80007103145E+00  0.32668430743E+01  0.00000000000E+00 0. -1.
</event>
<event>
 7    1  0.2599124E-010  0.4778727E+02  0.7816164E-02  0.1312668E+00
        -11   -1    0    0    0    0  0.00000000000E+00  0.00000000000E+00  0.45593999997E+02  0.45594000000E+02  0.51100000000E-03 0.  1.
         11   -1    0    0    0    0 -0.00000000000E+00 -0.00000000000E+00 -0.45593999997E+02  0.45594000000E+02  0.51100000000E-03 0. -1.
    9900012    2    1    2    0    0  0.30391929147E+02  0.29607687207E+02  0.91290067216E+01  0.47787271173E+02  0.20000000585E+02 0.  0.
         12    1    1    2    0    0 -0.30391929147E+02 -0.29607687207E+02 -0.91290067216E+01  0.43400728827E+02  0.00000000000E+00 0. -1.
         11    1    3    3    0    0  0.17796427746E+00 -0.91776247686E+00 -0.19856404142E+01  0.21947043909E+01  0.51100000000E-03 0. -1.
        -11    1    3    3    0    0  0.36752820295E+01  0.89739339135E+01  0.48254160368E+01  0.10831612441E+02  0.51100000000E-03 0.  1.
         12    1    3    3    0    0  0.26538682840E+02  0.21551515771E+02  0.62892310990E+01  0.34760954341E+02  0.00000000000E+00 0. -1.
</event>
<event>
 7    1  0.2599124E-010  0.4778727E+02  0.7816164E-02  0.1312668E+00
        -11   -1    0    0    0    0  0.00000000000E+00  0.00000000000E+00  0.45593999997E+02  0.45594000000E+02  0.51100000000E-03 0. -1.
         11   -1    0    0    0    0 -0.00000000000E+00 -0.00000000000E+00 -0.45593999997E+02  0.45594000000E+02  0.51100000000E-03 0.  1.
    9900012    2    1    2    0    0 -0.22341138936E+02  0.23280167177E+02 -0.29026378894E+02  0.47787270231E+02  0.19999996291E+02 0.  0.
         12    1    1    2    0    0  0.22341138936E+02 -0.23280167177E+02  0.29026378894E+02  0.43400729769E+02  0.00000000000E+00 0. -1.
         11    1    3    3    0    0 -0.52797530390E+01  0.96249853112E+01 -0.40295806906E+01  0.11694171847E+02  0.51100000000E-03 0. -1.
        -11    1    3    3    0    0 -0.18907020762E+02  0.12156882936E+02 -0.18295351833E+02  0.28982497059E+02  0.51100000000E-03 0.  1.
        -12    1    3    3    0    0  0.18456348647E+01  0.14982989300E+01 -0.67014463706E+01  0.71106013244E+01  0.00000000000E+00 0.  1.
</event>
<event>
 7    1  0.2599124E-010  0.4778728E+02  0.7816164E-02  0.1312668E+00
        -11   -1    0    0    0    0  0.00000000000E+00  0.00000000000E+00  0.45593999997E+02  0.45594000000E+02  0.51100000000E-03 0.  1.
         11   -1    0    0    0    0 -0.00000000000E+00 -0.00000000000E+00 -0.45593999997E+02  0.45594000000E+02  0.51100000000E-03 0. -1.
    9900012    2    1    2    0    0 -0.23500821595E+02 -0.43230983103E+01  0.36230442023E+02  0.47787277382E+02  0.20000028894E+02 0.  0.
         12    1    1    2    0    0  0.23500821595E+02  0.43230983103E+01 -0.36230442023E+02  0.43400722618E+02  0.00000000000E+00 0. -1.
         11    1    3    3    0    0  0.20556495893E+01  0.32443991372E+00  0.17620680604E+01  0.27268737782E+01  0.51100000000E-03 0. -1.
        -11    1    3    3    0    0 -0.42271752518E+01  0.23845572793E+01  0.13364758609E+01  0.50340135097E+01  0.51100000000E-03 0.  1.
        -12    1    3    3    0    0 -0.21329295932E+02 -0.70320955033E+01  0.33131898101E+02  0.40026390094E+02  0.00000000000E+00 0.  1.
</event>
<event>
 7    1  0.2599124E-010  0.4778727E+02  0.7816164E-02  0.1312668E+00
        -11   -1    0    0    0    0  0.00000000000E+00  0.00000000000E+00  0.45593999997E+02  0.45594000000E+02  0.51100000000E-03 0.  1.
         11   -1    0    0    0    0 -0.00000000000E+00 -0.00000000000E+00 -0.45593999997E+02  0.45594000000E+02  0.51100000000E-03 0. -1.
    9900012    2    1    2    0    0 -0.87647725983E+01 -0.18010742404E+02  0.38502145582E+02  0.47787270801E+02  0.19999998889E+02 0.  0.
         12    1    1    2    0    0  0.87647725983E+01  0.18010742404E+02 -0.38502145582E+02  0.43400729199E+02  0.00000000000E+00 0. -1.
         11    1    3    3    0    0 -0.44371557241E+01 -0.50676323255E+01  0.47994132618E+01  0.82706478722E+01  0.51100000000E-03 0. -1.
        -11    1    3    3    0    0 -0.65474072397E+01 -0.14693084727E+02  0.32828791909E+02  0.36557965737E+02  0.51100000000E-03 0.  1.
         12    1    3    3    0    0  0.22197903655E+01  0.17499746483E+01  0.87394041060E+00  0.29586571917E+01  0.00000000000E+00 0. -1.
</event>
<event>
 7    1  0.2599124E-010  0.4778727E+02  0.7816164E-02  0.1312668E+00
        -11   -1    0    0    0    0  0.00000000000E+00  0.00000000000E+00  0.45593999997E+02  0.45594000000E+02  0.51100000000E-03 0.  1.
         11   -1    0    0    0    0 -0.00000000000E+00 -0.00000000000E+00 -0.45593999997E+02  0.45594000000E+02  0.51100000000E-03 0. -1.
    9900012    2    1    2    0    0  0.21404088844E+01  0.13895847878E+02  0.41060290331E+02  0.47787269816E+02  0.19999994398E+02 0.  0.
         12    1    1    2    0    0 -0.21404088844E+01 -0.13895847878E+02 -0.41060290331E+02  0.43400730184E+02  0.00000000000E+00 0. -1.
         11    1    3    3    0    0  0.62515038471E+01  0.15937844217E+01  0.13728281994E+02  0.15168624721E+02  0.51100000000E-03 0. -1.
        -11    1    3    3    0    0  0.72287794136E-01  0.73993579305E+01  0.24474446723E+02  0.25568618773E+02  0.51100000000E-03 0.  1.
         12    1    3    3    0    0 -0.41833827569E+01  0.49027055258E+01  0.28575616137E+01  0.70500263219E+01  0.00000000000E+00 0. -1.
</event>
<event>
 7    1  0.2599124E-010  0.4778727E+02  0.7816164E-02  0.1312668E+00
        -11   -1    0    0    0    0  0.00000000000E+00  0.00000000000E+00  0.45593999997E+02  0.45594000000E+02  0.51100000000E-03 0. -1.
         11   -1    0    0    0    0 -0.00000000000E+00 -0.00000000000E+00 -0.45593999997E+02  0.45594000000E+02  0.51100000000E-03 0.  1.
    9900012    2    1    2    0    0  0.65750976954E+01 -0.34084415138E+02 -0.26050793874E+02  0.47787272742E+02  0.20000007741E+02 0.  0.
         12    1    1    2    0    0 -0.65750976954E+01  0.34084415138E+02  0.26050793874E+02  0.43400727258E+02  0.00000000000E+00 0. -1.
         11    1    3    3    0    0  0.41139831514E-01 -0.84909566595E+01 -0.12685375107E+02  0.15264887138E+02  0.51100000000E-03 0. -1.
        -11    1    3    3    0    0  0.67669047277E+01 -0.26533877403E+02 -0.10215107388E+02  0.29226461791E+02  0.51100000000E-03 0.  1.
         12    1    3    3    0    0 -0.23294686386E+00  0.94041892426E+00 -0.31503113791E+01  0.32959238128E+01  0.00000000000E+00 0. -1.
</event>
<event>
 7    1  0.2599124E-010  0.4778727E+02  0.7816164E-02  0.1312668E+00
        -11   -1    0    0    0    0  0.00000000000E+00  0.00000000000E+00  0.45593999997E+02  0.45594000000E+02  0.51100000000E-03 0. -1.
         11   -1    0    0    0    0 -0.00000000000E+00 -0.00000000000E+00 -0.45593999997E+02  0.45594000000E+02  0.51100000000E-03 0.  1.
    9900012    2    1    2    0    0  0.15102346637E+02  0.30678250042E+02 -0.26728027538E+02  0.47787270102E+02  0.19999995705E+02 0.  0.
         12    1    1    2    0    0 -0.15102346637E+02 -0.30678250042E+02  0.26728027538E+02  0.43400729898E+02  0.00000000000E+00 0. -1.
         11    1    3    3    0    0  0.15066122440E+01  0.53885817454E+01 -0.77591377106E+00  0.56487818263E+01  0.51100000000E-03 0. -1.
        -11    1    3    3    0    0  0.11733742203E+01  0.72202604212E+01 -0.16901411711E+02  0.18416478645E+02  0.51100000000E-03 0.  1.
        -12    1    3    3    0    0  0.12422360173E+02  0.18069407875E+02 -0.90507020561E+01  0.23722009631E+02  0.00000000000E+00 0.  1.
</event>
<event>
 7    1  0.2599124E-010  0.4778727E+02  0.7816164E-02  0.1312668E+00
        -11   -1    0    0    0    0  0.00000000000E+00  0.00000000000E+00  0.45593999997E+02  0.45594000000E+02  0.51100000000E-03 0. -1.
         11   -1    0    0    0    0 -0.00000000000E+00 -0.00000000000E+00 -0.45593999997E+02  0.45594000000E+02  0.51100000000E-03 0.  1.
    9900012    2    1    2    0    0 -0.35499602851E+02 -0.22906384407E+01 -0.24862713932E+02  0.47787269924E+02  0.19999994892E+02 0.  0.
         12    1    1    2    0    0  0.35499602851E+02  0.22906384407E+01  0.24862713932E+02  0.43400730076E+02  0.00000000000E+00 0. -1.
         11    1    3    3    0    0 -0.30675212145E+01 -0.40272489212E+00 -0.44789951307E+01  0.54436450456E+01  0.51100000000E-03 0. -1.
        -11    1    3    3    0    0 -0.14429357825E+02  0.29922757514E+00  0.80363487003E+00  0.14454816970E+02  0.51100000000E-03 0.  1.
        -12    1    3    3    0    0 -0.18002723812E+02 -0.21871411238E+01 -0.21187353672E+02  0.27888807908E+02  0.00000000000E+00 0.  1.
</event>
<event>
 7    1  0.2685295E-010  0.4778727E+02  0.7816164E-02  0.1312668E+00
        -11   -1    0    0    0    0  0.00000000000E+00  0.00000000000E+00  0.45593999997E+02  0.45594000000E+02  0.51100000000E-03 0. -1.
         11   -1    0    0    0    0 -0.00000000000E+00 -0.00000000000E+00 -0.45593999997E+02  0.45594000000E+02  0.51100000000E-03 0.  1.
    9900012    2    1    2    0    0 -0.25326746706E+02 -0.19199406951E+00 -0.35244037308E+02  0.47787272746E+02  0.20000007757E+02 0.  0.
         12    1    1    2    0    0  0.25326746706E+02  0.19199406951E+00  0.35244037308E+02  0.43400727254E+02  0.00000000000E+00 0. -1.
         11    1    3    3    0    0 -0.36640124907E+01 -0.16991388844E+01  0.10304330789E+01  0.41681954215E+01  0.51100000000E-03 0. -1.
        -11    1    3    3    0    0 -0.14108539390E+02 -0.24415434357E+01 -0.15179068652E+02  0.20866627506E+02  0.51100000000E-03 0.  1.
         12    1    3    3    0    0 -0.75541948244E+01  0.39486882505E+01 -0.21095401736E+02  0.22752449818E+02  0.00000000000E+00 0. -1.
</event>
<event>
 7    1  0.2599124E-010  0.4778727E+02  0.7816164E-02  0.1312668E+00
        -11   -1    0    0    0    0  0.00000000000E+00  0.00000000000E+00  0.45593999997E+02  0.45594000000E+02  0.51100000000E-03 0. -1.
         11   -1    0    0    0    0 -0.00000000000E+00 -0.00000000000E+00 -0.45593999997E+02  0.45594000000E+02  0.51100000000E-03 0.  1.
    9900012    2    1    2    0    0 -0.15150596731E+02  0.38603743223E+02  0.12799758392E+02  0.47787269740E+02  0.19999994055E+02 0.  0.
         12    1    1    2    0    0  0.15150596731E+02 -0.38603743223E+02 -0.12799758392E+02  0.43400730260E+02  0.00000000000E+00 0. -1.
         11    1    3    3    0    0 -0.35848544601E+01  0.14480410020E+02  0.25215214958E+01  0.15129161469E+02  0.51100000000E-03 0.  1.
        -11    1    3    3    0    0  0.21695675040E+01  0.72661071624E+01  0.76224668376E+01  0.10751992253E+02  0.51100000000E-03 0. -1.
         12    1    3    3    0    0 -0.13735309775E+02  0.16857226041E+02  0.26557700585E+01  0.21906116019E+02  0.00000000000E+00 0. -1.
</event>
<event>
 7    1  0.2599124E-010  0.4778728E+02  0.7816164E-02  0.1312668E+00
        -11   -1    0    0    0    0  0.00000000000E+00  0.00000000000E+00  0.45593999997E+02  0.45594000000E+02  0.51100000000E-03 0.  1.
         11   -1    0    0    0    0 -0.00000000000E+00 -0.00000000000E+00 -0.45593999997E+02  0.45594000000E+02  0.51100000000E-03 0. -1.
    9900012    2    1    2    0    0  0.17461574152E+02  0.27943614158E+02  0.28246604821E+02  0.47787276181E+02  0.20000023421E+02 0.  0.
         12    1    1    2    0    0 -0.17461574152E+02 -0.27943614158E+02 -0.28246604821E+02  0.43400723819E+02  0.00000000000E+00 0. -1.
         11    1    3    3    0    0 -0.19844656719E+01  0.11314962092E+02  0.46748899561E+01  0.12402462155E+02  0.51100000000E-03 0. -1.
        -11    1    3    3    0    0  0.64706877096E+01  0.47060378175E+01  0.36684024610E+01  0.88019184416E+01  0.51100000000E-03 0.  1.
         12    1    3    3    0    0  0.12975352115E+02  0.11922614248E+02  0.19903312404E+02  0.26582895585E+02  0.00000000000E+00 0. -1.
</event>
<event>
 7    1  0.2599124E-010  0.4778727E+02  0.7816164E-02  0.1312668E+00
        -11   -1    0    0    0    0  0.00000000000E+00  0.00000000000E+00  0.45593999997E+02  0.45594000000E+02  0.51100000000E-03 0.  1.
         11   -1    0    0    0    0 -0.00000000000E+00 -0.00000000000E+00 -0.45593999997E+02  0.45594000000E+02  0.51100000000E-03 0. -1.
    9900012    2    1    2    0    0  0.11788958887E+02  0.36281361368E+02  0.20695560312E+02  0.47787274764E+02  0.20000016960E+02 0.  0.
         12    1    1    2    0    0 -0.11788958887E+02 -0.36281361368E+02 -0.20695560312E+02  0.43400725236E+02  0.00000000000E+00 0. -1.
         11    1    3    3    0    0  0.26164064011E+00  0.25381330465E+01 -0.22713056210E+01  0.34160510347E+01  0.51100000000E-03 0. -1.
        -11    1    3    3    0    0 -0.16563509383E+01  0.10952448586E+02  0.34655322144E+01  0.11606443997E+02  0.51100000000E-03 0.  1.
         12    1    3    3    0    0  0.13183669186E+02  0.22790779736E+02  0.19501333718E+02  0.32764779733E+02  0.00000000000E+00 0. -1.
</event>
<event>
 7    1  0.2599124E-010  0.4778727E+02  0.7816164E-02  0.1312668E+00
        -11   -1    0    0    0    0  0.00000000000E+00  0.00000000000E+00  0.45593999997E+02  0.45594000000E+02  0.51100000000E-03 0.  1.
         11   -1    0    0    0    0 -0.00000000000E+00 -0.00000000000E+00 -0.45593999997E+02  0.45594000000E+02  0.51100000000E-03 0. -1.
    9900012    2    1    2    0    0  0.24052876373E+02 -0.17917238419E+02  0.31369654413E+02  0.47787268297E+02  0.19999987472E+02 0.  0.
         12    1    1    2    0    0 -0.24052876373E+02  0.17917238419E+02 -0.31369654413E+02  0.43400731703E+02  0.00000000000E+00 0. -1.
         11    1    3    3    0    0 -0.96465234796E+00  0.18171677312E+00  0.72659955363E+01  0.73320029004E+01  0.51100000000E-03 0. -1.
        -11    1    3    3    0    0  0.10250400752E+01 -0.22862463602E+01  0.59769991334E+01  0.64809064548E+01  0.51100000000E-03 0.  1.
        -12    1    3    3    0    0  0.23992488646E+02 -0.15812708832E+02  0.18126659743E+02  0.33974358942E+02  0.00000000000E+00 0.  1.
</event>
<event>
 7    1  0.2599124E-010  0.4778727E+02  0.7816164E-02  0.1312668E+00
        -11   -1    0    0    0    0  0.00000000000E+00  0.00000000000E+00  0.45593999997E+02  0.45594000000E+02  0.51100000000E-03 0.  1.
         11   -1    0    0    0    0 -0.00000000000E+00 -0.00000000000E+00 -0.45593999997E+02  0.45594000000E+02  0.51100000000E-03 0. -1.
    9900012    2    1    2    0    0  0.28308445312E+02  0.23096194051E+02  0.23426927338E+02  0.47787272124E+02  0.20000004923E+02 0.  0.
         12    1    1    2    0    0 -0.28308445312E+02 -0.23096194051E+02 -0.23426927338E+02  0.43400727876E+02  0.00000000000E+00 0. -1.
         11    1    3    3    0    0  0.11136326937E+02  0.12861719991E+02  0.10336582509E+02  0.19906947456E+02  0.51100000000E-03 0. -1.
        -11    1    3    3    0    0  0.17841342434E+02  0.10412330155E+02  0.70901980034E+01  0.21840353181E+02  0.51100000000E-03 0.  1.
         12    1    3    3    0    0 -0.66922405943E+00 -0.17785609465E+00  0.60001468257E+01  0.60399714868E+01  0.00000000000E+00 0. -1.
</event>
<event>
 7    1  0.2599124E-010  0.4778727E+02  0.7816164E-02  0.1312668E+00
        -11   -1    0    0    0    0  0.00000000000E+00  0.00000000000E+00  0.45593999997E+02  0.45594000000E+02  0.51100000000E-03 0.  1.
         11   -1    0    0    0    0 -0.00000000000E+00 -0.00000000000E+00 -0.45593999997E+02  0.45594000000E+02  0.51100000000E-03 0. -1.
    9900012    2    1    2    0    0 -0.49648318422E+01  0.60978243548E+01  0.42682433300E+02  0.47787272707E+02  0.20000007582E+02 0.  0.
         12    1    1    2    0    0  0.49648318422E+01 -0.60978243548E+01 -0.42682433300E+02  0.43400727293E+02  0.00000000000E+00 0. -1.
         11    1    3    3    0    0 -0.16910707525E+00  0.70902227095E+01  0.17623917228E+02  0.18997429142E+02  0.51100000000E-03 0. -1.
        -11    1    3    3    0    0 -0.49785980975E+01  0.70923163798E+00  0.26235265634E+02  0.26712892238E+02  0.51100000000E-03 0.  1.
         12    1    3    3    0    0  0.18287333057E+00 -0.17016299927E+01 -0.11767495620E+01  0.20769513280E+01  0.00000000000E+00 0. -1.
</event>
<event>
 7    1  0.2599124E-010  0.4778727E+02  0.7816164E-02  0.1312668E+00
        -11   -1    0    0    0    0  0.00000000000E+00  0.00000000000E+00  0.45593999997E+02  0.45594000000E+02  0.51100000000E-03 0. -1.
         11   -1    0    0    0    0 -0.00000000000E+00 -0.00000000000E+00 -0.45593999997E+02  0.45594000000E+02  0.51100000000E-03 0.  1.
    9900012    2    1    2    0    0  0.30440150079E+02  0.65201963791E+01 -0.30240829464E+02  0.47787268850E+02  0.19999989996E+02 0.  0.
         12    1    1    2    0    0 -0.30440150079E+02 -0.65201963791E+01  0.30240829464E+02  0.43400731150E+02  0.00000000000E+00 0. -1.
         11    1    3    3    0    0 -0.53339476881E+00 -0.34243485436E+00  0.20693281748E+00  0.66677811973E+00  0.51100000000E-03 0. -1.
        -11    1    3    3    0    0  0.39673677966E+01 -0.24020505771E+01 -0.12657206706E+02  0.13480160832E+02  0.51100000000E-03 0.  1.
         12    1    3    3    0    0  0.27006177052E+02  0.92646818106E+01 -0.17790555575E+02  0.33640329898E+02  0.00000000000E+00 0. -1.
</event>
<event>
 7    1  0.2599124E-010  0.4778727E+02  0.7816164E-02  0.1312668E+00
        -11   -1    0    0    0    0  0.00000000000E+00  0.00000000000E+00  0.45593999997E+02  0.45594000000E+02  0.51100000000E-03 0.  1.
         11   -1    0    0    0    0 -0.00000000000E+00 -0.00000000000E+00 -0.45593999997E+02  0.45594000000E+02  0.51100000000E-03 0. -1.
    9900012    2    1    2    0    0 -0.78492932347E+01 -0.15319824749E+02  0.39841124217E+02  0.47787267132E+02  0.19999982161E+02 0.  0.
         12    1    1    2    0    0  0.78492932347E+01  0.15319824749E+02 -0.39841124217E+02  0.43400732868E+02  0.00000000000E+00 0. -1.
         11    1    3    3    0    0 -0.61853937691E+01 -0.81822826001E+00  0.42417598806E+01  0.75446087182E+01  0.51100000000E-03 0. -1.
        -11    1    3    3    0    0  0.18323330011E+01  0.14619061850E+01  0.33436910098E+01  0.40834891638E+01  0.51100000000E-03 0.  1.
        -12    1    3    3    0    0 -0.34962324667E+01 -0.15963502674E+02  0.32255673327E+02  0.36159169250E+02  0.00000000000E+00 0.  1.
</event>
<event>
 7    1  0.2599124E-010  0.4778727E+02  0.7816164E-02  0.1312668E+00
        -11   -1    0    0    0    0  0.00000000000E+00  0.00000000000E+00  0.45593999997E+02  0.45594000000E+02  0.51100000000E-03 0.  1.
         11   -1    0    0    0    0 -0.00000000000E+00 -0.00000000000E+00 -0.45593999997E+02  0.45594000000E+02  0.51100000000E-03 0. -1.
    9900012    2    1    2    0    0 -0.25633067145E+02  0.20771376721E+02  0.28197856841E+02  0.47787270138E+02  0.19999995866E+02 0.  0.
         12    1    1    2    0    0  0.25633067145E+02 -0.20771376721E+02 -0.28197856841E+02  0.43400729862E+02  0.00000000000E+00 0. -1.
         11    1    3    3    0    0 -0.21773430594E+02  0.19533877531E+02  0.21764595022E+02  0.36460283158E+02  0.51100000000E-03 0. -1.
        -11    1    3    3    0    0 -0.56544073173E+01 -0.15968962531E+01  0.33122533651E+01  0.67448811976E+01  0.51100000000E-03 0.  1.
        -12    1    3    3    0    0  0.17947707662E+01  0.28343954431E+01  0.31210084545E+01  0.45821057828E+01  0.00000000000E+00 0.  1.
</event>
<event>
 7    1  0.2599124E-010  0.4778728E+02  0.7816164E-02  0.1312668E+00
        -11   -1    0    0    0    0  0.00000000000E+00  0.00000000000E+00  0.45593999997E+02  0.45594000000E+02  0.51100000000E-03 0. -1.
         11   -1    0    0    0    0 -0.00000000000E+00 -0.00000000000E+00 -0.45593999997E+02  0.45594000000E+02  0.51100000000E-03 0.  1.
    9900012    2    1    2    0    0  0.36620823184E+02 -0.20639875246E+02 -0.10795071669E+02  0.47787277503E+02  0.20000029449E+02 0.  0.
         12    1    1    2    0    0 -0.36620823184E+02  0.20639875246E+02  0.10795071669E+02  0.43400722497E+02  0.00000000000E+00 0. -1.
         11    1    3    3    0    0  0.24280042329E+01 -0.87328021738E+01 -0.42331515226E+01  0.10003829788E+02  0.51100000000E-03 0. -1.
        -11    1    3    3    0    0  0.77109440260E+01 -0.17807299161E+01 -0.50569065043E+01  0.93915898793E+01  0.51100000000E-03 0.  1.
        -12    1    3    3    0    0  0.26481874925E+02 -0.10126343156E+02 -0.15050136422E+01  0.28391857836E+02  0.00000000000E+00 0.  1.
</event>
<event>
 7    1  0.2599124E-010  0.4778724E+02  0.7816164E-02  0.1312668E+00
        -11   -1    0    0    0    0  0.00000000000E+00  0.00000000000E+00  0.45593999997E+02  0.45594000000E+02  0.51100000000E-03 0. -1.
         11   -1    0    0    0    0 -0.00000000000E+00 -0.00000000000E+00 -0.45593999997E+02  0.45594000000E+02  0.51100000000E-03 0.  1.
    9900012    2    1    2    0    0  0.37572082110E+02  0.20861743164E+02 -0.60623335173E+01  0.47787244596E+02  0.19999879411E+02 0.  0.
         12    1    1    2    0    0 -0.37572082110E+02 -0.20861743164E+02  0.60623335173E+01  0.43400755404E+02  0.00000000000E+00 0. -1.
         11    1    3    3    0    0  0.36295127018E+01  0.31613616838E+01 -0.54958894343E+01  0.73056396766E+01  0.51100000000E-03 0. -1.
        -11    1    3    3    0    0  0.28837307282E+02  0.98610427703E+01  0.26433026341E+01  0.30591134416E+02  0.51100000000E-03 0.  1.
         12    1    3    3    0    0  0.51052621270E+01  0.78393387101E+01 -0.32097467170E+01  0.98904705036E+01  0.00000000000E+00 0. -1.
</event>
<event>
 7    1  0.2599124E-010  0.4778726E+02  0.7816164E-02  0.1312668E+00
        -11   -1    0    0    0    0  0.00000000000E+00  0.00000000000E+00  0.45593999997E+02  0.45594000000E+02  0.51100000000E-03 0. -1.
         11   -1    0    0    0    0 -0.00000000000E+00 -0.00000000000E+00 -0.45593999997E+02  0.45594000000E+02  0.51100000000E-03 0.  1.
    9900012    2    1    2    0    0  0.22311137103E+01  0.41702598266E+02 -0.11812686083E+02  0.47787261262E+02  0.19999955399E+02 0.  0.
         12    1    1    2    0    0 -0.22311137103E+01 -0.41702598266E+02  0.11812686083E+02  0.43400738738E+02  0.00000000000E+00 0. -1.
         11    1    3    3    0    0  0.43141692843E+01  0.60388710620E+01 -0.15697829408E+01  0.75857919204E+01  0.51100000000E-03 0. -1.
        -11    1    3    3    0    0  0.45579076122E+01  0.27086930122E+02 -0.10351767501E+02  0.29353626623E+02  0.51100000000E-03 0.  1.
         12    1    3    3    0    0 -0.66409631863E+01  0.85767970812E+01  0.10886435853E+00  0.10847842719E+02  0.00000000000E+00 0. -1.
</event>
<event>
 7    1  0.2599124E-010  0.4778727E+02  0.7816164E-02  0.1312668E+00
        -11   -1    0    0    0    0  0.00000000000E+00  0.00000000000E+00  0.45593999997E+02  0.45594000000E+02  0.51100000000E-03 0.  1.
         11   -1    0    0    0    0 -0.00000000000E+00 -0.00000000000E+00 -0.45593999997E+02  0.45594000000E+02  0.51100000000E-03 0. -1.
    9900012    2    1    2    0    0 -0.10226886881E+02 -0.13540815230E+02  0.39945964660E+02  0.47787274373E+02  0.20000015175E+02 0.  0.
         12    1    1    2    0    0  0.10226886881E+02  0.13540815230E+02 -0.39945964660E+02  0.43400725627E+02  0.00000000000E+00 0. -1.
         11    1    3    3    0    0  0.33998160366E+00 -0.13507760140E+02  0.24144861145E+02  0.27668565042E+02  0.51100000000E-03 0. -1.
        -11    1    3    3    0    0 -0.18224886509E+00  0.17730780270E+01  0.34350838584E+01  0.38699898855E+01  0.51100000000E-03 0.  1.
         12    1    3    3    0    0 -0.10384619620E+02 -0.18061331173E+01  0.12366019656E+02  0.16248719445E+02  0.00000000000E+00 0. -1.
</event>
<event>
 7    1  0.2599124E-010  0.4778727E+02  0.7816164E-02  0.1312668E+00
        -11   -1    0    0    0    0  0.00000000000E+00  0.00000000000E+00  0.45593999997E+02  0.45594000000E+02  0.51100000000E-03 0.  1.
         11   -1    0    0    0    0 -0.00000000000E+00 -0.00000000000E+00 -0.45593999997E+02  0.45594000000E+02  0.51100000000E-03 0. -1.
    9900012    2    1    2    0    0 -0.88949627926E+01 -0.42126268271E+02  0.54662699590E+01  0.47787274790E+02  0.20000017076E+02 0.  0.
         12    1    1    2    0    0  0.88949627926E+01  0.42126268271E+02 -0.54662699590E+01  0.43400725210E+02  0.00000000000E+00 0. -1.
         11    1    3    3    0    0  0.51916273575E+01 -0.14051949596E+02 -0.25894176960E+01  0.15202478954E+02  0.51100000000E-03 0. -1.
        -11    1    3    3    0    0 -0.67083707331E+01 -0.11643200349E+02  0.48748920089E+01  0.14294436841E+02  0.51100000000E-03 0.  1.
        -12    1    3    3    0    0 -0.73782194170E+01 -0.16431118326E+02  0.31807956461E+01  0.18290358995E+02  0.00000000000E+00 0.  1.
</event>
<event>
 7    1  0.2599124E-010  0.4778727E+02  0.7816164E-02  0.1312668E+00
        -11   -1    0    0    0    0  0.00000000000E+00  0.00000000000E+00  0.45593999997E+02  0.45594000000E+02  0.51100000000E-03 0.  1.
         11   -1    0    0    0    0 -0.00000000000E+00 -0.00000000000E+00 -0.45593999997E+02  0.45594000000E+02  0.51100000000E-03 0. -1.
    9900012    2    1    2    0    0  0.28304129258E+02  0.12774134788E+02  0.30320301701E+02  0.47787274800E+02  0.20000017121E+02 0.  0.
         12    1    1    2    0    0 -0.28304129258E+02 -0.12774134788E+02 -0.30320301701E+02  0.43400725200E+02  0.00000000000E+00 0. -1.
         11    1    3    3    0    0  0.46492971670E+01 -0.17023010437E+01  0.10030645667E+02  0.11186046922E+02  0.51100000000E-03 0. -1.
        -11    1    3    3    0    0  0.11199616158E+01 -0.90170695926E+00 -0.11994345969E+01  0.18724404061E+01  0.51100000000E-03 0.  1.
        -12    1    3    3    0    0  0.22534870476E+02  0.15378142791E+02  0.21489090631E+02  0.34728787471E+02  0.00000000000E+00 0.  1.
</event>
<event>
 7    1  0.2599124E-010  0.4778727E+02  0.7816164E-02  0.1312668E+00
        -11   -1    0    0    0    0  0.00000000000E+00  0.00000000000E+00  0.45593999997E+02  0.45594000000E+02  0.51100000000E-03 0. -1.
         11   -1    0    0    0    0 -0.00000000000E+00 -0.00000000000E+00 -0.45593999997E+02  0.45594000000E+02  0.51100000000E-03 0.  1.
    9900012    2    1    2    0    0  0.14984339496E+02 -0.35504430971E+02 -0.19963177792E+02  0.47787268252E+02  0.19999987270E+02 0.  0.
         12    1    1    2    0    0 -0.14984339496E+02  0.35504430971E+02  0.19963177792E+02  0.43400731748E+02  0.00000000000E+00 0. -1.
         11    1    3    3    0    0  0.13312732354E+02 -0.11023167840E+02 -0.81870016330E+01  0.19125011580E+02  0.51100000000E-03 0. -1.
        -11    1    3    3    0    0  0.13248804405E+01 -0.64885305558E+00  0.83652341547E+00  0.16959039345E+01  0.51100000000E-03 0.  1.
        -12    1    3    3    0    0  0.34672670114E+00 -0.23832410076E+02 -0.12612699574E+02  0.26966352738E+02  0.00000000000E+00 0.  1.
</event>
<event>
 7    1  0.2599124E-010  0.4778726E+02  0.7816164E-02  0.1312668E+00
        -11   -1    0    0    0    0  0.00000000000E+00  0.00000000000E+00  0.45593999997E+02  0.45594000000E+02  0.51100000000E-03 0.  1.
         11   -1    0    0    0    0 -0.00000000000E+00 -0.00000000000E+00 -0.45593999997E+02  0.45594000000E+02  0.51100000000E-03 0. -1.
    9900012    2    1    2    0    0 -0.12723986177E+02  0.35933917943E+02  0.20747953664E+02  0.47787264243E+02  0.19999968991E+02 0.  0.
         12    1    1    2    0    0  0.12723986177E+02 -0.35933917943E+02 -0.20747953664E+02  0.43400735757E+02  0.00000000000E+00 0. -1.
         11    1    3    3    0    0 -0.57283058616E+01  0.17590157149E+01  0.38332201629E+01  0.71134521442E+01  0.51100000000E-03 0. -1.
        -11    1    3    3    0    0 -0.45390140432E+00  0.49828363918E+01  0.80388824017E+01  0.94688075026E+01  0.51100000000E-03 0.  1.
         12    1    3    3    0    0 -0.65417789109E+01  0.29192065837E+02  0.88758510993E+01  0.31205004596E+02  0.00000000000E+00 0. -1.
</event>
<event>
 7    1  0.2599124E-010  0.4778727E+02  0.7816164E-02  0.1312668E+00
        -11   -1    0    0    0    0  0.00000000000E+00  0.00000000000E+00  0.45593999997E+02  0.45594000000E+02  0.51100000000E-03 0.  1.
         11   -1    0    0    0    0 -0.00000000000E+00 -0.00000000000E+00 -0.45593999997E+02  0.45594000000E+02  0.51100000000E-03 0. -1.
    9900012    2    1    2    0    0  0.14960034688E+02  0.36997158635E+02  0.17059619012E+02  0.47787274364E+02  0.20000015133E+02 0.  0.
         12    1    1    2    0    0 -0.14960034688E+02 -0.36997158635E+02 -0.17059619012E+02  0.43400725636E+02  0.00000000000E+00 0. -1.
         11    1    3    3    0    0  0.83481217144E+01  0.11077262334E+02  0.37102993164E+01  0.14358384249E+02  0.51100000000E-03 0. -1.
        -11    1    3    3    0    0  0.10328250957E+02  0.12082328832E+02  0.97805970531E+01  0.18663212928E+02  0.51100000000E-03 0.  1.
        -12    1    3    3    0    0 -0.37163379832E+01  0.13837567469E+02  0.35687226428E+01  0.14765677186E+02  0.00000000000E+00 0.  1.
</event>
<event>
 7    1  0.2599124E-010  0.4778727E+02  0.7816164E-02  0.1312668E+00
        -11   -1    0    0    0    0  0.00000000000E+00  0.00000000000E+00  0.45593999997E+02  0.45594000000E+02  0.51100000000E-03 0.  1.
         11   -1    0    0    0    0 -0.00000000000E+00 -0.00000000000E+00 -0.45593999997E+02  0.45594000000E+02  0.51100000000E-03 0. -1.
    9900012    2    1    2    0    0 -0.35830330753E+02  0.19448892387E+02  0.14884595707E+02  0.47787271822E+02  0.20000003547E+02 0.  0.
         12    1    1    2    0    0  0.35830330753E+02 -0.19448892387E+02 -0.14884595707E+02  0.43400728178E+02  0.00000000000E+00 0. -1.
         11    1    3    3    0    0 -0.80620496893E+00 -0.18898306888E+01  0.29127553201E+01  0.35644873825E+01  0.51100000000E-03 0. -1.
        -11    1    3    3    0    0  0.60739858102E+00  0.50688097512E+00  0.14127888081E+01  0.16192077805E+01  0.51100000000E-03 0.  1.
        -12    1    3    3    0    0 -0.35631524365E+02  0.20831842101E+02  0.10559051579E+02  0.42603576659E+02  0.00000000000E+00 0.  1.
</event>
<event>
 7    1  0.2599124E-010  0.4778728E+02  0.7816164E-02  0.1312668E+00
        -11   -1    0    0    0    0  0.00000000000E+00  0.00000000000E+00  0.45593999997E+02  0.45594000000E+02  0.51100000000E-03 0. -1.
         11   -1    0    0    0    0 -0.00000000000E+00 -0.00000000000E+00 -0.45593999997E+02  0.45594000000E+02  0.51100000000E-03 0.  1.
    9900012    2    1    2    0    0  0.10630848315E+02 -0.13614226919E+02 -0.39815327752E+02  0.47787280715E+02  0.20000044093E+02 0.  0.
         12    1    1    2    0    0 -0.10630848315E+02  0.13614226919E+02  0.39815327752E+02  0.43400719285E+02  0.00000000000E+00 0. -1.
         11    1    3    3    0    0  0.10553308990E+02  0.20910849113E-01 -0.20498377240E+02  0.23055503413E+02  0.51100000000E-03 0. -1.
        -11    1    3    3    0    0  0.23418948972E+01 -0.90038091393E+00 -0.30687724511E+01  0.39639023850E+01  0.51100000000E-03 0.  1.
         12    1    3    3    0    0 -0.22643555725E+01 -0.12734756854E+02 -0.16248178060E+02  0.20767874917E+02  0.00000000000E+00 0. -1.
</event>
<event>
 7    1  0.2599124E-010  0.4778728E+02  0.7816164E-02  0.1312668E+00
        -11   -1    0    0    0    0  0.00000000000E+00  0.00000000000E+00  0.45593999997E+02  0.45594000000E+02  0.51100000000E-03 0.  1.
         11   -1    0    0    0    0 -0.00000000000E+00 -0.00000000000E+00 -0.45593999997E+02  0.45594000000E+02  0.51100000000E-03 0. -1.
    9900012    2    1    2    0    0 -0.28838643152E+01 -0.41098123186E+02  0.13647361627E+02  0.47787275557E+02  0.20000020577E+02 0.  0.
         12    1    1    2    0    0  0.28838643152E+01  0.41098123186E+02 -0.13647361627E+02  0.43400724443E+02  0.00000000000E+00 0. -1.
         11    1    3    3    0    0 -0.12399791708E+01  0.51683840003E+00 -0.95143025756E+00  0.16461743747E+01  0.51100000000E-03 0. -1.
        -11    1    3    3    0    0  0.22161241945E+01 -0.19832334891E+02  0.60565063374E+00  0.19964957466E+02  0.51100000000E-03 0.  1.
         12    1    3    3    0    0 -0.38600093389E+01 -0.21782626695E+02  0.13993141251E+02  0.26176143717E+02  0.00000000000E+00 0. -1.
</event>
<event>
 7    1  0.2599124E-010  0.4778728E+02  0.7816164E-02  0.1312668E+00
        -11   -1    0    0    0    0  0.00000000000E+00  0.00000000000E+00  0.45593999997E+02  0.45594000000E+02  0.51100000000E-03 0.  1.
         11   -1    0    0    0    0 -0.00000000000E+00 -0.00000000000E+00 -0.45593999997E+02  0.45594000000E+02  0.51100000000E-03 0. -1.
    9900012    2    1    2    0    0 -0.31524073337E+02  0.28009594766E+02  0.10262434769E+02  0.47787283807E+02  0.20000058189E+02 0.  0.
         12    1    1    2    0    0  0.31524073337E+02 -0.28009594766E+02 -0.10262434769E+02  0.43400716193E+02  0.00000000000E+00 0. -1.
         11    1    3    3    0    0 -0.30159579633E+01  0.92225136551E+01  0.91110527362E+01  0.13310223243E+02  0.51100000000E-03 0. -1.
        -11    1    3    3    0    0 -0.33994258913E+01  0.42575548643E+01  0.21091130380E+00  0.54522796748E+01  0.51100000000E-03 0.  1.
         12    1    3    3    0    0 -0.25108689482E+02  0.14529526246E+02  0.94047072853E+00  0.29024780889E+02  0.00000000000E+00 0. -1.
</event>
<event>
 7    1  0.2599124E-010  0.4778727E+02  0.7816164E-02  0.1312668E+00
        -11   -1    0    0    0    0  0.00000000000E+00  0.00000000000E+00  0.45593999997E+02  0.45594000000E+02  0.51100000000E-03 0.  1.
         11   -1    0    0    0    0 -0.00000000000E+00 -0.00000000000E+00 -0.45593999997E+02  0.45594000000E+02  0.51100000000E-03 0. -1.
    9900012    2    1    2    0    0  0.25278299801E+02  0.32598349269E+02  0.13489932356E+02  0.47787273153E+02  0.20000009613E+02 0.  0.
         12    1    1    2    0    0 -0.25278299801E+02 -0.32598349269E+02 -0.13489932356E+02  0.43400726847E+02  0.00000000000E+00 0. -1.
         11    1    3    3    0    0  0.11629840936E+02  0.11682418169E+02  0.79079793454E+01  0.18283003912E+02  0.51100000000E-03 0. -1.
        -11    1    3    3    0    0  0.14278057863E+02  0.13347245583E+02 -0.83288654270E+00  0.19562862808E+02  0.51100000000E-03 0.  1.
        -12    1    3    3    0    0 -0.62959899803E+00  0.75686855168E+01  0.64148395538E+01  0.99414064323E+01  0.00000000000E+00 0.  1.
</event>
<event>
 7    1  0.3333059E-010  0.4778726E+02  0.7816164E-02  0.1312668E+00
        -11   -1    0    0    0    0  0.00000000000E+00  0.00000000000E+00  0.45593999997E+02  0.45594000000E+02  0.51100000000E-03 0. -1.
         11   -1    0    0    0    0 -0.00000000000E+00 -0.00000000000E+00 -0.45593999997E+02  0.45594000000E+02  0.51100000000E-03 0.  1.
    9900012    2    1    2    0    0  0.11854850326E+02  0.57671330280E+00 -0.41746312017E+02  0.47787255289E+02  0.19999928164E+02 0.  0.
         12    1    1    2    0    0 -0.11854850326E+02 -0.57671330280E+00  0.41746312017E+02  0.43400744711E+02  0.00000000000E+00 0. -1.
         11    1    3    3    0    0 -0.13760794124E+01  0.54941504027E+01 -0.95513061948E+01  0.11104356509E+02  0.51100000000E-03 0. -1.
        -11    1    3    3    0    0  0.69936763533E+01  0.88941636147E+00 -0.23389604769E+02  0.24429002884E+02  0.51100000000E-03 0.  1.
        -12    1    3    3    0    0  0.62372533854E+01 -0.58068534614E+01 -0.88054010525E+01  0.12253895895E+02  0.00000000000E+00 0.  1.
</event>
<event>
 7    1  0.2599124E-010  0.4778727E+02  0.7816164E-02  0.1312668E+00
        -11   -1    0    0    0    0  0.00000000000E+00  0.00000000000E+00  0.45593999997E+02  0.45594000000E+02  0.51100000000E-03 0.  1.
         11   -1    0    0    0    0 -0.00000000000E+00 -0.00000000000E+00 -0.45593999997E+02  0.45594000000E+02  0.51100000000E-03 0. -1.
    9900012    2    1    2    0    0  0.35672170521E+02 -0.16667175355E+02  0.18257182269E+02  0.47787272029E+02  0.20000004490E+02 0.  0.
         12    1    1    2    0    0 -0.35672170521E+02  0.16667175355E+02 -0.18257182269E+02  0.43400727971E+02  0.00000000000E+00 0. -1.
         11    1    3    3    0    0  0.98280101732E+01 -0.63362874992E+01  0.94043106263E+01  0.15005978204E+02  0.51100000000E-03 0. -1.
        -11    1    3    3    0    0  0.19469705463E+02 -0.34505983467E+00  0.74596455881E+01  0.20852693104E+02  0.51100000000E-03 0.  1.
         12    1    3    3    0    0  0.63744548844E+01 -0.99858280210E+01  0.13932260548E+01  0.11928600722E+02  0.00000000000E+00 0. -1.
</event>
<event>
 7    1  0.2599124E-010  0.4778727E+02  0.7816164E-02  0.1312668E+00
        -11   -1    0    0    0    0  0.00000000000E+00  0.00000000000E+00  0.45593999997E+02  0.45594000000E+02  0.51100000000E-03 0.  1.
         11   -1    0    0    0    0 -0.00000000000E+00 -0.00000000000E+00 -0.45593999997E+02  0.45594000000E+02  0.51100000000E-03 0. -1.
    9900012    2    1    2    0    0 -0.40247133834E+02 -0.45877446945E+01 -0.15580258391E+02  0.47787266887E+02  0.19999981046E+02 0.  0.
         12    1    1    2    0    0  0.40247133834E+02  0.45877446945E+01  0.15580258391E+02  0.43400733113E+02  0.00000000000E+00 0. -1.
         11    1    3    3    0    0 -0.55527791836E+01  0.34277324117E+01 -0.45660124653E+01  0.79643691679E+01  0.51100000000E-03 0. -1.
        -11    1    3    3    0    0 -0.30624676317E+01 -0.57438799802E+01 -0.26253339816E+01  0.70187779562E+01  0.51100000000E-03 0.  1.
        -12    1    3    3    0    0 -0.31631887018E+02 -0.22715971260E+01 -0.83889119437E+01  0.32804119763E+02  0.00000000000E+00 0.  1.
</event>
<event>
 7    1  0.2599124E-010  0.4778729E+02  0.7816164E-02  0.1312668E+00
        -11   -1    0    0    0    0  0.00000000000E+00  0.00000000000E+00  0.45593999997E+02  0.45594000000E+02  0.51100000000E-03 0.  1.
         11   -1    0    0    0    0 -0.00000000000E+00 -0.00000000000E+00 -0.45593999997E+02  0.45594000000E+02  0.51100000000E-03 0. -1.
    9900012    2    1    2    0    0 -0.17182033234E+02 -0.36091432354E+02  0.16905853711E+02  0.47787289809E+02  0.20000085555E+02 0.  0.
         12    1    1    2    0    0  0.17182033234E+02  0.36091432354E+02 -0.16905853711E+02  0.43400710191E+02  0.00000000000E+00 0. -1.
         11    1    3    3    0    0  0.39923786645E+00 -0.77836700835E+01  0.63516465290E+01  0.10054268981E+02  0.51100000000E-03 0. -1.
        -11    1    3    3    0    0 -0.79760396262E+01 -0.24712197819E+02  0.73363507649E+01  0.26983920619E+02  0.51100000000E-03 0.  1.
        -12    1    3    3    0    0 -0.96052314740E+01 -0.35955644509E+01  0.32178564168E+01  0.10749100209E+02  0.00000000000E+00 0.  1.
</event>
<event>
 7    1  0.2599124E-010  0.4778728E+02  0.7816164E-02  0.1312668E+00
        -11   -1    0    0    0    0  0.00000000000E+00  0.00000000000E+00  0.45593999997E+02  0.45594000000E+02  0.51100000000E-03 0. -1.
         11   -1    0    0    0    0 -0.00000000000E+00 -0.00000000000E+00 -0.45593999997E+02  0.45594000000E+02  0.51100000000E-03 0.  1.
    9900012    2    1    2    0    0 -0.12773099458E+02  0.37530617956E+02 -0.17661343058E+02  0.47787281198E+02  0.20000046294E+02 0.  0.
         12    1    1    2    0    0  0.12773099458E+02 -0.37530617956E+02  0.17661343058E+02  0.43400718802E+02  0.00000000000E+00 0. -1.
         11    1    3    3    0    0 -0.61822639012E+01  0.30566212623E+02 -0.73128535762E+01  0.32031103146E+02  0.51100000000E-03 0. -1.
        -11    1    3    3    0    0 -0.18922801320E+01 -0.10647556227E+01 -0.53949433350E+00  0.22372936846E+01  0.51100000000E-03 0.  1.
        -12    1    3    3    0    0 -0.46985554244E+01  0.80291609561E+01 -0.98089951480E+01  0.13518884368E+02  0.00000000000E+00 0.  1.
</event>
<event>
 7    1  0.2599124E-010  0.4778727E+02  0.7816164E-02  0.1312668E+00
        -11   -1    0    0    0    0  0.00000000000E+00  0.00000000000E+00  0.45593999997E+02  0.45594000000E+02  0.51100000000E-03 0.  1.
         11   -1    0    0    0    0 -0.00000000000E+00 -0.00000000000E+00 -0.45593999997E+02  0.45594000000E+02  0.51100000000E-03 0. -1.
    9900012    2    1    2    0    0  0.66644641801E+01 -0.42769513496E+02  0.31586231236E+01  0.47787271117E+02  0.20000000333E+02 0.  0.
         12    1    1    2    0    0 -0.66644641801E+01  0.42769513496E+02 -0.31586231236E+01  0.43400728883E+02  0.00000000000E+00 0. -1.
         11    1    3    3    0    0  0.85149899766E+01 -0.12668129105E+02  0.12702942103E+01  0.15316664029E+02  0.51100000000E-03 0. -1.
        -11    1    3    3    0    0 -0.55654240413E+00 -0.95668387260E+01  0.62461486350E+01  0.11438903605E+02  0.51100000000E-03 0.  1.
        -12    1    3    3    0    0 -0.12939833924E+01 -0.20534545665E+02 -0.43578197218E+01  0.21031703483E+02  0.00000000000E+00 0.  1.
</event>
<event>
 7    1  0.2599124E-010  0.4778728E+02  0.7816164E-02  0.1312668E+00
        -11   -1    0    0    0    0  0.00000000000E+00  0.00000000000E+00  0.45593999997E+02  0.45594000000E+02  0.51100000000E-03 0.  1.
         11   -1    0    0    0    0 -0.00000000000E+00 -0.00000000000E+00 -0.45593999997E+02  0.45594000000E+02  0.51100000000E-03 0. -1.
    9900012    2    1    2    0    0 -0.34225639819E+02  0.13659776941E+02  0.22926816927E+02  0.47787275796E+02  0.20000021663E+02 0.  0.
         12    1    1    2    0    0  0.34225639819E+02 -0.13659776941E+02 -0.22926816927E+02  0.43400724204E+02  0.00000000000E+00 0. -1.
         11    1    3    3    0    0 -0.50440742555E+01 -0.90860636890E+00  0.19402199462E-01  0.51252929023E+01  0.51100000000E-03 0. -1.
        -11    1    3    3    0    0 -0.26377663241E+02  0.68971438996E+01  0.14265129172E+02  0.30770856709E+02  0.51100000000E-03 0.  1.
         12    1    3    3    0    0 -0.28039023217E+01  0.76712394102E+01  0.86422855549E+01  0.11891126184E+02  0.00000000000E+00 0. -1.
</event>
<event>
 7    1  0.2599124E-010  0.4778727E+02  0.7816164E-02  0.1312668E+00
        -11   -1    0    0    0    0  0.00000000000E+00  0.00000000000E+00  0.45593999997E+02  0.45594000000E+02  0.51100000000E-03 0.  1.
         11   -1    0    0    0    0 -0.00000000000E+00 -0.00000000000E+00 -0.45593999997E+02  0.45594000000E+02  0.51100000000E-03 0. -1.
    9900012    2    1    2    0    0 -0.77964754773E+01 -0.28699998170E+02  0.31609308823E+02  0.47787270408E+02  0.19999997097E+02 0.  0.
         12    1    1    2    0    0  0.77964754773E+01  0.28699998170E+02 -0.31609308823E+02  0.43400729592E+02  0.00000000000E+00 0. -1.
         11    1    3    3    0    0 -0.55025301942E+00 -0.24680582089E+01  0.62777430182E+01  0.67678761345E+01  0.51100000000E-03 0. -1.
        -11    1    3    3    0    0 -0.44977672492E+01 -0.28223582334E+02  0.20752355152E+02  0.35319410450E+02  0.51100000000E-03 0.  1.
         12    1    3    3    0    0 -0.27484552087E+01  0.19916423721E+01  0.45792106534E+01  0.56999838228E+01  0.00000000000E+00 0. -1.
</event>
<event>
 7    1  0.2599124E-010  0.4778727E+02  0.7816164E-02  0.1312668E+00
        -11   -1    0    0    0    0  0.00000000000E+00  0.00000000000E+00  0.45593999997E+02  0.45594000000E+02  0.51100000000E-03 0. -1.
         11   -1    0    0    0    0 -0.00000000000E+00 -0.00000000000E+00 -0.45593999997E+02  0.45594000000E+02  0.51100000000E-03 0.  1.
    9900012    2    1    2    0    0 -0.95572302551E+01  0.41841852881E+02  0.64452965577E+01  0.47787272467E+02  0.20000006487E+02 0.  0.
         12    1    1    2    0    0  0.95572302551E+01 -0.41841852881E+02 -0.64452965577E+01  0.43400727533E+02  0.00000000000E+00 0. -1.
         11    1    3    3    0    0 -0.11979168060E+02  0.13901825095E+02 -0.11493701882E+01  0.18387013364E+02  0.51100000000E-03 0. -1.
        -11    1    3    3    0    0 -0.57358173868E+00  0.11211000074E+02  0.14056913234E+01  0.11313332269E+02  0.51100000000E-03 0.  1.
         12    1    3    3    0    0  0.29955195431E+01  0.16729027712E+02  0.61889754225E+01  0.18086926834E+02  0.00000000000E+00 0. -1.
</event>
<event>
 7    1  0.2599124E-010  0.4778728E+02  0.7816164E-02  0.1312668E+00
        -11   -1    0    0    0    0  0.00000000000E+00  0.00000000000E+00  0.45593999997E+02  0.45594000000E+02  0.51100000000E-03 0. -1.
         11   -1    0    0    0    0 -0.00000000000E+00 -0.00000000000E+00 -0.45593999997E+02  0.45594000000E+02  0.51100000000E-03 0.  1.
    9900012    2    1    2    0    0 -0.24706777593E+02 -0.57755996738E+01 -0.35211365788E+02  0.47787277757E+02  0.20000030603E+02 0.  0.
         12    1    1    2    0    0  0.24706777593E+02  0.57755996738E+01  0.35211365788E+02  0.43400722243E+02  0.00000000000E+00 0. -1.
         11    1    3    3    0    0 -0.16191870050E+02  0.24843281063E+01 -0.17161981422E+02  0.23725137479E+02  0.51100000000E-03 0. -1.
        -11    1    3    3    0    0 -0.70995362087E+01 -0.62281646069E+01 -0.48201641613E+01  0.10603180257E+02  0.51100000000E-03 0.  1.
         12    1    3    3    0    0 -0.14153713345E+01 -0.20317631732E+01 -0.13229220205E+02  0.13458960021E+02  0.00000000000E+00 0. -1.
</event>
<event>
 7    1  0.2599124E-010  0.4778725E+02  0.7816164E-02  0.1312668E+00
        -11   -1    0    0    0    0  0.00000000000E+00  0.00000000000E+00  0.45593999997E+02  0.45594000000E+02  0.51100000000E-03 0.  1.
         11   -1    0    0    0    0 -0.00000000000E+00 -0.00000000000E+00 -0.45593999997E+02  0.45594000000E+02  0.51100000000E-03 0. -1.
    9900012    2    1    2    0    0  0.14025928576E+02  0.24833219111E+01  0.40996727439E+02  0.47787248615E+02  0.19999897733E+02 0.  0.
         12    1    1    2    0    0 -0.14025928576E+02 -0.24833219111E+01 -0.40996727439E+02  0.43400751385E+02  0.00000000000E+00 0. -1.
         11    1    3    3    0    0  0.12652282360E+01 -0.35751076223E+01  0.12428789533E+02  0.12994499087E+02  0.51100000000E-03 0.  1.
        -11    1    3    3    0    0 -0.52881081583E+00 -0.32822632201E+01  0.73831949092E+01  0.80971884042E+01  0.51100000000E-03 0. -1.
        -12    1    3    3    0    0  0.13289511156E+02  0.93406927535E+01  0.21184742997E+02  0.26695561124E+02  0.00000000000E+00 0.  1.
</event>
<event>
 7    1  0.2599124E-010  0.4778727E+02  0.7816164E-02  0.1312668E+00
        -11   -1    0    0    0    0  0.00000000000E+00  0.00000000000E+00  0.45593999997E+02  0.45594000000E+02  0.51100000000E-03 0.  1.
         11   -1    0    0    0    0 -0.00000000000E+00 -0.00000000000E+00 -0.45593999997E+02  0.45594000000E+02  0.51100000000E-03 0. -1.
    9900012    2    1    2    0    0  0.19012242593E+02 -0.64093583950E+01  0.38484776257E+02  0.47787271354E+02  0.20000001412E+02 0.  0.
         12    1    1    2    0    0 -0.19012242593E+02  0.64093583950E+01 -0.38484776257E+02  0.43400728646E+02  0.00000000000E+00 0. -1.
         11    1    3    3    0    0 -0.18370698427E+01 -0.10334244365E+01  0.41058888342E+01  0.46153131045E+01  0.51100000000E-03 0. -1.
        -11    1    3    3    0    0  0.22443681294E+02 -0.72839111263E+01  0.31686655362E+02  0.39507193264E+02  0.51100000000E-03 0.  1.
        -12    1    3    3    0    0 -0.15943688581E+01  0.19079771678E+01  0.26922320605E+01  0.36647649851E+01  0.00000000000E+00 0.  1.
</event>
<event>
 7    1  0.2599124E-010  0.4778727E+02  0.7816164E-02  0.1312668E+00
        -11   -1    0    0    0    0  0.00000000000E+00  0.00000000000E+00  0.45593999997E+02  0.45594000000E+02  0.51100000000E-03 0.  1.
         11   -1    0    0    0    0 -0.00000000000E+00 -0.00000000000E+00 -0.45593999997E+02  0.45594000000E+02  0.51100000000E-03 0. -1.
    9900012    2    1    2    0    0  0.30279610573E+02  0.27093559395E+02  0.15254765267E+02  0.47787266821E+02  0.19999980742E+02 0.  0.
         12    1    1    2    0    0 -0.30279610573E+02 -0.27093559395E+02 -0.15254765267E+02  0.43400733179E+02  0.00000000000E+00 0. -1.
         11    1    3    3    0    0  0.42732467775E+01  0.55299315530E+01  0.46376430209E+01  0.83874021039E+01  0.51100000000E-03 0. -1.
        -11    1    3    3    0    0  0.15081472794E+02  0.12276337449E+02 -0.29391320158E+01  0.19667175192E+02  0.51100000000E-03 0.  1.
        -12    1    3    3    0    0  0.10924891002E+02  0.92872903936E+01  0.13556254262E+02  0.19732689524E+02  0.00000000000E+00 0.  1.
</event>
<event>
 7    1  0.2599124E-010  0.4778727E+02  0.7816164E-02  0.1312668E+00
        -11   -1    0    0    0    0  0.00000000000E+00  0.00000000000E+00  0.45593999997E+02  0.45594000000E+02  0.51100000000E-03 0.  1.
         11   -1    0    0    0    0 -0.00000000000E+00 -0.00000000000E+00 -0.45593999997E+02  0.45594000000E+02  0.51100000000E-03 0. -1.
    9900012    2    1    2    0    0 -0.31629826618E+02  0.16537109722E+02 -0.24692136198E+02  0.47787268210E+02  0.19999987079E+02 0.  0.
         12    1    1    2    0    0  0.31629826618E+02 -0.16537109722E+02  0.24692136198E+02  0.43400731790E+02  0.00000000000E+00 0. -1.
         11    1    3    3    0    0 -0.16648133698E+02  0.92761982468E+01 -0.13955657302E+02  0.23621358567E+02  0.51100000000E-03 0. -1.
        -11    1    3    3    0    0 -0.17167594786E+02  0.48925785046E+01 -0.10939715462E+02  0.20936594991E+02  0.51100000000E-03 0.  1.
         12    1    3    3    0    0  0.21859018655E+01  0.23683329709E+01  0.20323656671E+00  0.32293146531E+01  0.00000000000E+00 0. -1.
</event>
<event>
 7    1  0.2599124E-010  0.4778727E+02  0.7816164E-02  0.1312668E+00
        -11   -1    0    0    0    0  0.00000000000E+00  0.00000000000E+00  0.45593999997E+02  0.45594000000E+02  0.51100000000E-03 0. -1.
         11   -1    0    0    0    0 -0.00000000000E+00 -0.00000000000E+00 -0.45593999997E+02  0.45594000000E+02  0.51100000000E-03 0.  1.
    9900012    2    1    2    0    0  0.21995994735E+02 -0.44658467796E+01 -0.37146407777E+02  0.47787272096E+02  0.20000004794E+02 0.  0.
         12    1    1    2    0    0 -0.21995994735E+02  0.44658467796E+01  0.37146407777E+02  0.43400727904E+02  0.00000000000E+00 0. -1.
         11    1    3    3    0    0  0.83060295727E+01  0.16075469848E+01 -0.14167307015E+02  0.16501118838E+02  0.51100000000E-03 0. -1.
        -11    1    3    3    0    0  0.16557508721E+02 -0.47606643622E+01 -0.22081282634E+02  0.28007107370E+02  0.51100000000E-03 0.  1.
         12    1    3    3    0    0 -0.28675435590E+01 -0.13127294022E+01 -0.89781812847E+00  0.32790458884E+01  0.00000000000E+00 0. -1.
</event>
<event>
 7    1  0.2599124E-010  0.4778726E+02  0.7816164E-02  0.1312668E+00
        -11   -1    0    0    0    0  0.00000000000E+00  0.00000000000E+00  0.45593999997E+02  0.45594000000E+02  0.51100000000E-03 0.  1.
         11   -1    0    0    0    0 -0.00000000000E+00 -0.00000000000E+00 -0.45593999997E+02  0.45594000000E+02  0.51100000000E-03 0. -1.
    9900012    2    1    2    0    0  0.31016779440E+02 -0.29841807084E+02  0.55722404710E+01  0.47787263592E+02  0.19999966020E+02 0.  0.
         12    1    1    2    0    0 -0.31016779440E+02  0.29841807084E+02 -0.55722404710E+01  0.43400736408E+02  0.00000000000E+00 0. -1.
         11    1    3    3    0    0  0.25207656659E+00 -0.37584870680E+01 -0.10626146433E+01  0.39139389082E+01  0.51100000000E-03 0. -1.
        -11    1    3    3    0    0  0.14143720347E+02 -0.21477783813E+02  0.68923766311E+01  0.26624140900E+02  0.51100000000E-03 0.  1.
         12    1    3    3    0    0  0.16620982526E+02 -0.46055362038E+01 -0.25752151673E+00  0.17249183784E+02  0.00000000000E+00 0. -1.
</event>
<event>
 7    1  0.2599124E-010  0.4778727E+02  0.7816164E-02  0.1312668E+00
        -11   -1    0    0    0    0  0.00000000000E+00  0.00000000000E+00  0.45593999997E+02  0.45594000000E+02  0.51100000000E-03 0.  1.
         11   -1    0    0    0    0 -0.00000000000E+00 -0.00000000000E+00 -0.45593999997E+02  0.45594000000E+02  0.51100000000E-03 0. -1.
    9900012    2    1    2    0    0 -0.34551156584E+02 -0.12883557000E+02  0.22887872973E+02  0.47787271994E+02  0.20000004329E+02 0.  0.
         12    1    1    2    0    0  0.34551156584E+02  0.12883557000E+02 -0.22887872973E+02  0.43400728006E+02  0.00000000000E+00 0. -1.
         11    1    3    3    0    0  0.17509685350E+01 -0.32452464555E+01  0.32670093514E+01  0.49265470393E+01  0.51100000000E-03 0. -1.
        -11    1    3    3    0    0 -0.11121318769E+02 -0.57608177761E+01  0.50000002801E+01  0.13485946599E+02  0.51100000000E-03 0.  1.
         12    1    3    3    0    0 -0.25180806350E+02 -0.38774927684E+01  0.14620863341E+02  0.29374778355E+02  0.00000000000E+00 0. -1.
</event>
<event>
 7    1  0.2599124E-010  0.4778726E+02  0.7816164E-02  0.1312668E+00
        -11   -1    0    0    0    0  0.00000000000E+00  0.00000000000E+00  0.45593999997E+02  0.45594000000E+02  0.51100000000E-03 0.  1.
         11   -1    0    0    0    0 -0.00000000000E+00 -0.00000000000E+00 -0.45593999997E+02  0.45594000000E+02  0.51100000000E-03 0. -1.
    9900012    2    1    2    0    0  0.25742074860E+02  0.25136809511E+02  0.24271595030E+02  0.47787263419E+02  0.19999965231E+02 0.  0.
         12    1    1    2    0    0 -0.25742074860E+02 -0.25136809511E+02 -0.24271595030E+02  0.43400736581E+02  0.00000000000E+00 0. -1.
         11    1    3    3    0    0  0.19181401680E+01  0.67009165699E+01 -0.28815622984E+00  0.69760002047E+01  0.51100000000E-03 0. -1.
        -11    1    3    3    0    0  0.44025879941E+01  0.68638861766E+00 -0.49078599827E+00  0.44827203278E+01  0.51100000000E-03 0.  1.
        -12    1    3    3    0    0  0.19421346698E+02  0.17749504324E+02  0.25050537259E+02  0.36328542886E+02  0.00000000000E+00 0.  1.
</event>
<event>
 7    1  0.2599124E-010  0.4778727E+02  0.7816164E-02  0.1312668E+00
        -11   -1    0    0    0    0  0.00000000000E+00  0.00000000000E+00  0.45593999997E+02  0.45594000000E+02  0.51100000000E-03 0.  1.
         11   -1    0    0    0    0 -0.00000000000E+00 -0.00000000000E+00 -0.45593999997E+02  0.45594000000E+02  0.51100000000E-03 0. -1.
    9900012    2    1    2    0    0 -0.14193554545E+02 -0.38198931685E+02  0.14933446987E+02  0.47787271764E+02  0.20000003281E+02 0.  0.
         12    1    1    2    0    0  0.14193554545E+02  0.38198931685E+02 -0.14933446987E+02  0.43400728236E+02  0.00000000000E+00 0. -1.
         11    1    3    3    0    0 -0.21032446862E+01 -0.44040013294E+01  0.47867936301E+01  0.68360997241E+01  0.51100000000E-03 0. -1.
        -11    1    3    3    0    0 -0.41644643105E+01 -0.23709782116E+02  0.13624877252E+02  0.27661052246E+02  0.51100000000E-03 0.  1.
         12    1    3    3    0    0 -0.79258455483E+01 -0.10085148239E+02 -0.34782238949E+01  0.13290119794E+02  0.00000000000E+00 0. -1.
</event>
<event>
 7    1  0.2599124E-010  0.4778727E+02  0.7816164E-02  0.1312668E+00
        -11   -1    0    0    0    0  0.00000000000E+00  0.00000000000E+00  0.45593999997E+02  0.45594000000E+02  0.51100000000E-03 0.  1.
         11   -1    0    0    0    0 -0.00000000000E+00 -0.00000000000E+00 -0.45593999997E+02  0.45594000000E+02  0.51100000000E-03 0. -1.
    9900012    2    1    2    0    0 -0.53189758746E+01 -0.13106956630E+02  0.41030956706E+02  0.47787271611E+02  0.20000002584E+02 0.  0.
         12    1    1    2    0    0  0.53189758746E+01  0.13106956630E+02 -0.41030956706E+02  0.43400728389E+02  0.00000000000E+00 0. -1.
         11    1    3    3    0    0 -0.40346380271E+00 -0.11374834521E+02  0.11574066558E+02  0.16232949835E+02  0.51100000000E-03 0. -1.
        -11    1    3    3    0    0 -0.30460754313E+01 -0.50120120290E+01  0.89344344246E+01  0.10687514157E+02  0.51100000000E-03 0.  1.
         12    1    3    3    0    0 -0.18694366406E+01  0.32798899200E+01  0.20522455724E+02  0.20866807619E+02  0.00000000000E+00 0. -1.
</event>
<event>
 7    1  0.2599124E-010  0.4778727E+02  0.7816164E-02  0.1312668E+00
        -11   -1    0    0    0    0  0.00000000000E+00  0.00000000000E+00  0.45593999997E+02  0.45594000000E+02  0.51100000000E-03 0.  1.
         11   -1    0    0    0    0 -0.00000000000E+00 -0.00000000000E+00 -0.45593999997E+02  0.45594000000E+02  0.51100000000E-03 0. -1.
    9900012    2    1    2    0    0  0.76931298912E+01 -0.20441515134E+02  0.37504447684E+02  0.47787269769E+02  0.19999994184E+02 0.  0.
         12    1    1    2    0    0 -0.76931298912E+01  0.20441515134E+02 -0.37504447684E+02  0.43400730231E+02  0.00000000000E+00 0. -1.
         11    1    3    3    0    0 -0.23814596367E+01 -0.53303149132E+01  0.10866688986E+02  0.12335661185E+02  0.51100000000E-03 0. -1.
        -11    1    3    3    0    0  0.44110413603E+01 -0.77751521686E+01  0.24301953418E+02  0.25893922401E+02  0.51100000000E-03 0.  1.
        -12    1    3    3    0    0  0.56635481675E+01 -0.73360480518E+01  0.23358052798E+01  0.95576861828E+01  0.00000000000E+00 0.  1.
</event>
<event>
 7    1  0.2599124E-010  0.4778727E+02  0.7816164E-02  0.1312668E+00
        -11   -1    0    0    0    0  0.00000000000E+00  0.00000000000E+00  0.45593999997E+02  0.45594000000E+02  0.51100000000E-03 0.  1.
         11   -1    0    0    0    0 -0.00000000000E+00 -0.00000000000E+00 -0.45593999997E+02  0.45594000000E+02  0.51100000000E-03 0. -1.
    9900012    2    1    2    0    0  0.70671909942E+01  0.28931348293E+02  0.31569846813E+02  0.47787270393E+02  0.19999997030E+02 0.  0.
         12    1    1    2    0    0 -0.70671909942E+01 -0.28931348293E+02 -0.31569846813E+02  0.43400729607E+02  0.00000000000E+00 0. -1.
         11    1    3    3    0    0 -0.55346980733E+01  0.97850939839E+01  0.61084402819E+01  0.12794295212E+02  0.51100000000E-03 0. -1.
        -11    1    3    3    0    0  0.83492724873E+00  0.68972818738E+01  0.61948537211E+01  0.93083733082E+01  0.51100000000E-03 0.  1.
         12    1    3    3    0    0  0.11766961819E+02  0.12248972436E+02  0.19266552810E+02  0.25684601873E+02  0.00000000000E+00 0. -1.
</event>
<event>
 7    1  0.2599124E-010  0.4778727E+02  0.7816164E-02  0.1312668E+00
        -11   -1    0    0    0    0  0.00000000000E+00  0.00000000000E+00  0.45593999997E+02  0.45594000000E+02  0.51100000000E-03 0.  1.
         11   -1    0    0    0    0 -0.00000000000E+00 -0.00000000000E+00 -0.45593999997E+02  0.45594000000E+02  0.51100000000E-03 0. -1.
    9900012    2    1    2    0    0  0.13609040591E+02  0.27397732030E+02  0.30786064686E+02  0.47787268612E+02  0.19999988908E+02 0.  0.
         12    1    1    2    0    0 -0.13609040591E+02 -0.27397732030E+02 -0.30786064686E+02  0.43400731388E+02  0.00000000000E+00 0. -1.
         11    1    3    3    0    0  0.44744912177E+01  0.68788219177E+01  0.20177157613E+01  0.84504697969E+01  0.51100000000E-03 0. -1.
        -11    1    3    3    0    0  0.67769275113E+01  0.16852975041E+02  0.11435642722E+02  0.21464469222E+02  0.51100000000E-03 0.  1.
        -12    1    3    3    0    0  0.23576218625E+01  0.36659350705E+01  0.17332706202E+02  0.17872329593E+02  0.00000000000E+00 0.  1.
</event>
<event>
 7    1  0.2599124E-010  0.4778727E+02  0.7816164E-02  0.1312668E+00
        -11   -1    0    0    0    0  0.00000000000E+00  0.00000000000E+00  0.45593999997E+02  0.45594000000E+02  0.51100000000E-03 0.  1.
         11   -1    0    0    0    0 -0.00000000000E+00 -0.00000000000E+00 -0.45593999997E+02  0.45594000000E+02  0.51100000000E-03 0. -1.
    9900012    2    1    2    0    0 -0.23170280380E+02  0.69967882813E+01  0.36025077174E+02  0.47787272765E+02  0.20000007844E+02 0.  0.
         12    1    1    2    0    0  0.23170280380E+02 -0.69967882813E+01 -0.36025077174E+02  0.43400727235E+02  0.00000000000E+00 0. -1.
         11    1    3    3    0    0 -0.15874495882E+02  0.29348713213E+01  0.27567287862E+02  0.31946337028E+02  0.51100000000E-03 0. -1.
        -11    1    3    3    0    0 -0.87511362544E+01  0.20548705482E+01  0.95647108521E+01  0.13125874167E+02  0.51100000000E-03 0.  1.
         12    1    3    3    0    0  0.14553517559E+01  0.20070464118E+01 -0.11069215398E+01  0.27150615698E+01  0.00000000000E+00 0. -1.
</event>
<event>
 7    1  0.2599124E-010  0.4778727E+02  0.7816164E-02  0.1312668E+00
        -11   -1    0    0    0    0  0.00000000000E+00  0.00000000000E+00  0.45593999997E+02  0.45594000000E+02  0.51100000000E-03 0. -1.
         11   -1    0    0    0    0 -0.00000000000E+00 -0.00000000000E+00 -0.45593999997E+02  0.45594000000E+02  0.51100000000E-03 0.  1.
    9900012    2    1    2    0    0  0.30387559434E+02 -0.94775610234E+01 -0.29502469684E+02  0.47787266726E+02  0.19999980308E+02 0.  0.
         12    1    1    2    0    0 -0.30387559434E+02  0.94775610234E+01  0.29502469684E+02  0.43400733274E+02  0.00000000000E+00 0. -1.
         11    1    3    3    0    0  0.47544682203E+00 -0.29444922687E+01 -0.16886022129E+01  0.34274570888E+01  0.51100000000E-03 0. -1.
        -11    1    3    3    0    0  0.52653766722E+01 -0.22902961368E+01  0.13930154628E+01  0.59084803660E+01  0.51100000000E-03 0.  1.
        -12    1    3    3    0    0  0.24646735940E+02 -0.42427726179E+01 -0.29206882934E+02  0.38451329271E+02  0.00000000000E+00 0.  1.
</event>
<event>
 7    1  0.2599124E-010  0.4778727E+02  0.7816164E-02  0.1312668E+00
        -11   -1    0    0    0    0  0.00000000000E+00  0.00000000000E+00  0.45593999997E+02  0.45594000000E+02  0.51100000000E-03 0.  1.
         11   -1    0    0    0    0 -0.00000000000E+00 -0.00000000000E+00 -0.45593999997E+02  0.45594000000E+02  0.51100000000E-03 0. -1.
    9900012    2    1    2    0    0 -0.62388878902E+01  0.15509432047E+02  0.40051933230E+02  0.47787267748E+02  0.19999984972E+02 0.  0.
         12    1    1    2    0    0  0.62388878902E+01 -0.15509432047E+02 -0.40051933230E+02  0.43400732252E+02  0.00000000000E+00 0. -1.
         11    1    3    3    0    0 -0.86243897959E+01  0.90894969481E+01  0.26464547737E+02  0.29280904039E+02  0.51100000000E-03 0. -1.
        -11    1    3    3    0    0 -0.24730619040E+00  0.89227955858E+01  0.99078566852E+01  0.13335781408E+02  0.51100000000E-03 0.  1.
         12    1    3    3    0    0  0.26328080962E+01 -0.25028604873E+01  0.36795288075E+01  0.51705823013E+01  0.00000000000E+00 0. -1.
</event>
<event>
 7    1  0.2599124E-010  0.4778727E+02  0.7816164E-02  0.1312668E+00
        -11   -1    0    0    0    0  0.00000000000E+00  0.00000000000E+00  0.45593999997E+02  0.45594000000E+02  0.51100000000E-03 0. -1.
         11   -1    0    0    0    0 -0.00000000000E+00 -0.00000000000E+00 -0.45593999997E+02  0.45594000000E+02  0.51100000000E-03 0.  1.
    9900012    2    1    2    0    0  0.40657896686E+02  0.12436918858E+02 -0.87110050498E+01  0.47787272788E+02  0.20000007947E+02 0.  0.
         12    1    1    2    0    0 -0.40657896686E+02 -0.12436918858E+02  0.87110050498E+01  0.43400727212E+02  0.00000000000E+00 0. -1.
         11    1    3    3    0    0  0.11583453653E+02  0.99180973125E+00 -0.92912260082E+01  0.14882438177E+02  0.51100000000E-03 0. -1.
        -11    1    3    3    0    0  0.69104491565E+01 -0.28118144424E+00 -0.30677493184E+01  0.75660066542E+01  0.51100000000E-03 0.  1.
        -12    1    3    3    0    0  0.22163993876E+02  0.11726290571E+02  0.36479702767E+01  0.25338827957E+02  0.00000000000E+00 0.  1.
</event>
<event>
 7    1  0.2599124E-010  0.4778727E+02  0.7816164E-02  0.1312668E+00
        -11   -1    0    0    0    0  0.00000000000E+00  0.00000000000E+00  0.45593999997E+02  0.45594000000E+02  0.51100000000E-03 0. -1.
         11   -1    0    0    0    0 -0.00000000000E+00 -0.00000000000E+00 -0.45593999997E+02  0.45594000000E+02  0.51100000000E-03 0.  1.
    9900012    2    1    2    0    0  0.38052087748E+02  0.11884000871E+02 -0.17159032332E+02  0.47787271328E+02  0.20000001293E+02 0.  0.
         12    1    1    2    0    0 -0.38052087748E+02 -0.11884000871E+02  0.17159032332E+02  0.43400728672E+02  0.00000000000E+00 0. -1.
         11    1    3    3    0    0  0.47036657715E+01  0.16607909478E+00 -0.77395151071E+01  0.90582640892E+01  0.51100000000E-03 0. -1.
        -11    1    3    3    0    0  0.71660302435E+01  0.74351350218E+01 -0.60956236112E+01  0.11991240541E+02  0.51100000000E-03 0.  1.
         12    1    3    3    0    0  0.26182391733E+02  0.42827867549E+01 -0.33238936140E+01  0.26737766698E+02  0.00000000000E+00 0. -1.
</event>
<event>
 7    1  0.2599124E-010  0.4778727E+02  0.7816164E-02  0.1312668E+00
        -11   -1    0    0    0    0  0.00000000000E+00  0.00000000000E+00  0.45593999997E+02  0.45594000000E+02  0.51100000000E-03 0.  1.
         11   -1    0    0    0    0 -0.00000000000E+00 -0.00000000000E+00 -0.45593999997E+02  0.45594000000E+02  0.51100000000E-03 0. -1.
    9900012    2    1    2    0    0 -0.46289440977E+01  0.31832689811E+02  0.29135481502E+02  0.47787267905E+02  0.19999985684E+02 0.  0.
         12    1    1    2    0    0  0.46289440977E+01 -0.31832689811E+02 -0.29135481502E+02  0.43400732095E+02  0.00000000000E+00 0. -1.
         11    1    3    3    0    0 -0.96756597719E+00  0.64040338667E+01 -0.24102495514E+01  0.69106538654E+01  0.51100000000E-03 0.  1.
        -11    1    3    3    0    0 -0.22956183911E+01  0.47947635336E+01  0.63545684319E+01  0.82849358089E+01  0.51100000000E-03 0. -1.
        -12    1    3    3    0    0 -0.13657597294E+01  0.20633892411E+02  0.25191162621E+02  0.32591678230E+02  0.00000000000E+00 0.  1.
</event>
<event>
 7    1  0.2599124E-010  0.4778727E+02  0.7816164E-02  0.1312668E+00
        -11   -1    0    0    0    0  0.00000000000E+00  0.00000000000E+00  0.45593999997E+02  0.45594000000E+02  0.51100000000E-03 0.  1.
         11   -1    0    0    0    0 -0.00000000000E+00 -0.00000000000E+00 -0.45593999997E+02  0.45594000000E+02  0.51100000000E-03 0. -1.
    9900012    2    1    2    0    0  0.10835560695E+02  0.84544913576E+01  0.41167166709E+02  0.47787269424E+02  0.19999992610E+02 0.  0.
         12    1    1    2    0    0 -0.10835560695E+02 -0.84544913576E+01 -0.41167166709E+02  0.43400730576E+02  0.00000000000E+00 0. -1.
         11    1    3    3    0    0  0.54584933620E+01  0.17776467309E+01  0.12907039491E+02  0.14126105138E+02  0.51100000000E-03 0. -1.
        -11    1    3    3    0    0  0.10616320290E+02  0.59586667481E+01  0.14579655959E+02  0.18994165790E+02  0.51100000000E-03 0.  1.
         12    1    3    3    0    0 -0.52392529561E+01  0.71817787857E+00  0.13680471259E+02  0.14666998496E+02  0.00000000000E+00 0. -1.
</event>
<event>
 7    1  0.2599124E-010  0.4778727E+02  0.7816164E-02  0.1312668E+00
        -11   -1    0    0    0    0  0.00000000000E+00  0.00000000000E+00  0.45593999997E+02  0.45594000000E+02  0.51100000000E-03 0. -1.
         11   -1    0    0    0    0 -0.00000000000E+00 -0.00000000000E+00 -0.45593999997E+02  0.45594000000E+02  0.51100000000E-03 0.  1.
    9900012    2    1    2    0    0 -0.41795885932E+02 -0.36552282480E+01 -0.11107043605E+02  0.47787271988E+02  0.20000004300E+02 0.  0.
         12    1    1    2    0    0  0.41795885932E+02  0.36552282480E+01  0.11107043605E+02  0.43400728012E+02  0.00000000000E+00 0. -1.
         11    1    3    3    0    0 -0.42541171074E+01 -0.11354569692E+01 -0.67908658267E+01  0.80933697450E+01  0.51100000000E-03 0. -1.
        -11    1    3    3    0    0 -0.49167163544E+01 -0.32174802103E+01  0.24518441952E+01  0.63669316654E+01  0.51100000000E-03 0.  1.
        -12    1    3    3    0    0 -0.32625052470E+02  0.69770893157E+00 -0.67680219734E+01  0.33326970577E+02  0.00000000000E+00 0.  1.
</event>
<event>
 7    1  0.2599124E-010  0.4778728E+02  0.7816164E-02  0.1312668E+00
        -11   -1    0    0    0    0  0.00000000000E+00  0.00000000000E+00  0.45593999997E+02  0.45594000000E+02  0.51100000000E-03 0.  1.
         11   -1    0    0    0    0 -0.00000000000E+00 -0.00000000000E+00 -0.45593999997E+02  0.45594000000E+02  0.51100000000E-03 0. -1.
    9900012    2    1    2    0    0  0.17306041216E+02 -0.20981927534E+01  0.39745707377E+02  0.47787277307E+02  0.20000028552E+02 0.  0.
         12    1    1    2    0    0 -0.17306041216E+02  0.20981927534E+01 -0.39745707377E+02  0.43400722693E+02  0.00000000000E+00 0. -1.
         11    1    3    3    0    0 -0.28357762920E+01 -0.27672111278E+01  0.82017973913E+01  0.91087082132E+01  0.51100000000E-03 0. -1.
        -11    1    3    3    0    0  0.93385568664E+00  0.26525164445E+01  0.22920288995E+01  0.36278542789E+01  0.51100000000E-03 0.  1.
        -12    1    3    3    0    0  0.19207961821E+02 -0.19834980701E+01  0.29251881086E+02  0.35050714815E+02  0.00000000000E+00 0.  1.
</event>
<event>
 7    1  0.2599124E-010  0.4778727E+02  0.7816164E-02  0.1312668E+00
        -11   -1    0    0    0    0  0.00000000000E+00  0.00000000000E+00  0.45593999997E+02  0.45594000000E+02  0.51100000000E-03 0.  1.
         11   -1    0    0    0    0 -0.00000000000E+00 -0.00000000000E+00 -0.45593999997E+02  0.45594000000E+02  0.51100000000E-03 0. -1.
    9900012    2    1    2    0    0 -0.96222598292E+01 -0.20183906699E+02  0.37197385094E+02  0.47787269226E+02  0.19999991709E+02 0.  0.
         12    1    1    2    0    0  0.96222598292E+01  0.20183906699E+02 -0.37197385094E+02  0.43400730774E+02  0.00000000000E+00 0. -1.
         11    1    3    3    0    0 -0.10307690958E+00 -0.80895409180E+00  0.95094248837E+01  0.95443278156E+01  0.51100000000E-03 0.  1.
        -11    1    3    3    0    0 -0.75679166760E+01 -0.87152520999E+00  0.99989929839E+01  0.12570313439E+02  0.51100000000E-03 0. -1.
         12    1    3    3    0    0 -0.19512662436E+01 -0.18503427397E+02  0.17688967227E+02  0.25672627971E+02  0.00000000000E+00 0. -1.
</event>
<event>
 7    1  0.2599124E-010  0.4778727E+02  0.7816164E-02  0.1312668E+00
        -11   -1    0    0    0    0  0.00000000000E+00  0.00000000000E+00  0.45593999997E+02  0.45594000000E+02  0.51100000000E-03 0.  1.
         11   -1    0    0    0    0 -0.00000000000E+00 -0.00000000000E+00 -0.45593999997E+02  0.45594000000E+02  0.51100000000E-03 0. -1.
    9900012    2    1    2    0    0  0.19014971342E+02  0.96698549031E+01  0.37796137317E+02  0.47787271607E+02  0.20000002563E+02 0.  0.
         12    1    1    2    0    0 -0.19014971342E+02 -0.96698549031E+01 -0.37796137317E+02  0.43400728393E+02  0.00000000000E+00 0. -1.
         11    1    3    3    0    0  0.43144759065E+00 -0.50648400695E+00  0.35537848265E+00  0.75429914478E+00  0.51100000000E-03 0. -1.
        -11    1    3    3    0    0  0.11346264207E+02 -0.21104234102E+00  0.30613991701E+02  0.32649636115E+02  0.51100000000E-03 0.  1.
        -12    1    3    3    0    0  0.72372595446E+01  0.10387381251E+02  0.68267671336E+01  0.14383336347E+02  0.00000000000E+00 0.  1.
</event>
<event>
 7    1  0.2599124E-010  0.4778726E+02  0.7816164E-02  0.1312668E+00
        -11   -1    0    0    0    0  0.00000000000E+00  0.00000000000E+00  0.45593999997E+02  0.45594000000E+02  0.51100000000E-03 0.  1.
         11   -1    0    0    0    0 -0.00000000000E+00 -0.00000000000E+00 -0.45593999997E+02  0.45594000000E+02  0.51100000000E-03 0. -1.
    9900012    2    1    2    0    0 -0.42792460445E+02  0.14524763616E+00  0.72393793993E+01  0.47787258280E+02  0.19999941800E+02 0.  0.
         12    1    1    2    0    0  0.42792460445E+02 -0.14524763616E+00 -0.72393793993E+01  0.43400741720E+02  0.00000000000E+00 0. -1.
         11    1    3    3    0    0  0.35438314986E+00  0.13283631441E+01  0.29208956509E+01  0.32282762775E+01  0.51100000000E-03 0. -1.
        -11    1    3    3    0    0 -0.13874275640E+02 -0.50714310966E+01  0.24130117657E+01  0.14967884418E+02  0.51100000000E-03 0.  1.
        -12    1    3    3    0    0 -0.29272567954E+02  0.38883155886E+01  0.19054719827E+01  0.29591097584E+02  0.00000000000E+00 0.  1.
</event>
<event>
 7    1  0.2599124E-010  0.4778727E+02  0.7816164E-02  0.1312668E+00
        -11   -1    0    0    0    0  0.00000000000E+00  0.00000000000E+00  0.45593999997E+02  0.45594000000E+02  0.51100000000E-03 0. -1.
         11   -1    0    0    0    0 -0.00000000000E+00 -0.00000000000E+00 -0.45593999997E+02  0.45594000000E+02  0.51100000000E-03 0.  1.
    9900012    2    1    2    0    0 -0.72736251813E+01  0.42770783350E+02  0.11737767934E+01  0.47787270932E+02  0.19999999488E+02 0.  0.
         12    1    1    2    0    0  0.72736251813E+01 -0.42770783350E+02 -0.11737767934E+01  0.43400729068E+02  0.00000000000E+00 0. -1.
         11    1    3    3    0    0 -0.10921096249E+02  0.24148386692E+02 -0.39329316755E+01  0.26793336390E+02  0.51100000000E-03 0. -1.
        -11    1    3    3    0    0  0.20182601232E+01  0.93837182220E+01 -0.12246052575E+01  0.96761149172E+01  0.51100000000E-03 0.  1.
         12    1    3    3    0    0  0.16292109444E+01  0.92386784366E+01  0.63313137264E+01  0.11317819625E+02  0.00000000000E+00 0. -1.
</event>
<event>
 7    1  0.2599124E-010  0.4778727E+02  0.7816164E-02  0.1312668E+00
        -11   -1    0    0    0    0  0.00000000000E+00  0.00000000000E+00  0.45593999997E+02  0.45594000000E+02  0.51100000000E-03 0.  1.
         11   -1    0    0    0    0 -0.00000000000E+00 -0.00000000000E+00 -0.45593999997E+02  0.45594000000E+02  0.51100000000E-03 0. -1.
    9900012    2    1    2    0    0  0.16841938927E+02 -0.39959907364E+02 -0.17827190672E+01  0.47787272003E+02  0.20000004371E+02 0.  0.
         12    1    1    2    0    0 -0.16841938927E+02  0.39959907364E+02  0.17827190672E+01  0.43400727997E+02  0.00000000000E+00 0. -1.
         11    1    3    3    0    0  0.56927703211E+01 -0.88461530324E+01  0.51470869384E+01  0.11711300594E+02  0.51100000000E-03 0. -1.
        -11    1    3    3    0    0  0.73660781531E+01 -0.25908334492E+02 -0.44286679430E+00  0.26938764537E+02  0.51100000000E-03 0.  1.
         12    1    3    3    0    0  0.37830904531E+01 -0.52054198394E+01 -0.64869392113E+01  0.91372068715E+01  0.00000000000E+00 0. -1.
</event>
<event>
 7    1  0.2599124E-010  0.4778727E+02  0.7816164E-02  0.1312668E+00
        -11   -1    0    0    0    0  0.00000000000E+00  0.00000000000E+00  0.45593999997E+02  0.45594000000E+02  0.51100000000E-03 0.  1.
         11   -1    0    0    0    0 -0.00000000000E+00 -0.00000000000E+00 -0.45593999997E+02  0.45594000000E+02  0.51100000000E-03 0. -1.
    9900012    2    1    2    0    0  0.22345540078E+02  0.21162291323E+02  0.30601592621E+02  0.47787271822E+02  0.20000003547E+02 0.  0.
         12    1    1    2    0    0 -0.22345540078E+02 -0.21162291323E+02 -0.30601592621E+02  0.43400728178E+02  0.00000000000E+00 0. -1.
         11    1    3    3    0    0  0.20355051768E+02  0.17511381823E+02  0.18873128748E+02  0.32820292729E+02  0.51100000000E-03 0. -1.
        -11    1    3    3    0    0  0.35542733632E+01  0.36030262744E+01  0.12300618284E+02  0.13301122806E+02  0.51100000000E-03 0.  1.
         12    1    3    3    0    0 -0.15637850539E+01  0.47883225131E-01 -0.57215441069E+00  0.16658562867E+01  0.00000000000E+00 0. -1.
</event>
<event>
 7    1  0.2599124E-010  0.4778727E+02  0.7816164E-02  0.1312668E+00
        -11   -1    0    0    0    0  0.00000000000E+00  0.00000000000E+00  0.45593999997E+02  0.45594000000E+02  0.51100000000E-03 0.  1.
         11   -1    0    0    0    0 -0.00000000000E+00 -0.00000000000E+00 -0.45593999997E+02  0.45594000000E+02  0.51100000000E-03 0. -1.
    9900012    2    1    2    0    0 -0.25188383033E+02 -0.22575113991E+02  0.27194356220E+02  0.47787269341E+02  0.19999992231E+02 0.  0.
         12    1    1    2    0    0  0.25188383033E+02  0.22575113991E+02 -0.27194356220E+02  0.43400730659E+02  0.00000000000E+00 0. -1.
         11    1    3    3    0    0  0.81154926127E+00  0.64680726126E+00  0.21342575170E+01  0.23731892564E+01  0.51100000000E-03 0. -1.
        -11    1    3    3    0    0 -0.12030086513E+02 -0.34162710369E+01  0.14002604569E+02  0.18774099826E+02  0.51100000000E-03 0.  1.
         12    1    3    3    0    0 -0.13969845781E+02 -0.19805650215E+02  0.11057494135E+02  0.26639980258E+02  0.00000000000E+00 0. -1.
</event>
<event>
 7    1  0.2599124E-010  0.4778727E+02  0.7816164E-02  0.1312668E+00
        -11   -1    0    0    0    0  0.00000000000E+00  0.00000000000E+00  0.45593999997E+02  0.45594000000E+02  0.51100000000E-03 0.  1.
         11   -1    0    0    0    0 -0.00000000000E+00 -0.00000000000E+00 -0.45593999997E+02  0.45594000000E+02  0.51100000000E-03 0. -1.
    9900012    2    1    2    0    0  0.11010586228E+02  0.41002723954E+02  0.90092668289E+01  0.47787271094E+02  0.20000000227E+02 0.  0.
         12    1    1    2    0    0 -0.11010586228E+02 -0.41002723954E+02 -0.90092668289E+01  0.43400728906E+02  0.00000000000E+00 0. -1.
         11    1    3    3    0    0  0.35856597214E+01  0.31416639084E+02  0.71384849607E+01  0.32416355976E+02  0.51100000000E-03 0.  1.
        -11    1    3    3    0    0  0.62870913416E+01  0.97208105403E+01  0.45641207013E+01  0.12443989438E+02  0.51100000000E-03 0. -1.
        -12    1    3    3    0    0  0.11378351650E+01 -0.13472566964E+00 -0.26933388331E+01  0.29269256804E+01  0.00000000000E+00 0.  1.
</event>
<event>
 7    1  0.2599124E-010  0.4778727E+02  0.7816164E-02  0.1312668E+00
        -11   -1    0    0    0    0  0.00000000000E+00  0.00000000000E+00  0.45593999997E+02  0.45594000000E+02  0.51100000000E-03 0.  1.
         11   -1    0    0    0    0 -0.00000000000E+00 -0.00000000000E+00 -0.45593999997E+02  0.45594000000E+02  0.51100000000E-03 0. -1.
    9900012    2    1    2    0    0  0.15746784741E+02 -0.63794654778E+01  0.39937012686E+02  0.47787265079E+02  0.19999972799E+02 0.  0.
         12    1    1    2    0    0 -0.15746784741E+02  0.63794654778E+01 -0.39937012686E+02  0.43400734921E+02  0.00000000000E+00 0. -1.
         11    1    3    3    0    0  0.26303385741E+00  0.29929702128E+01  0.51795802066E+01  0.59879135668E+01  0.51100000000E-03 0. -1.
        -11    1    3    3    0    0  0.45411068110E+01  0.31197957345E+00  0.52928385182E+00  0.45824801123E+01  0.51100000000E-03 0.  1.
        -12    1    3    3    0    0  0.10942644073E+02 -0.96844152640E+01  0.34228148627E+02  0.37216871399E+02  0.00000000000E+00 0.  1.
</event>
<event>
 7    1  0.2599124E-010  0.4778727E+02  0.7816164E-02  0.1312668E+00
        -11   -1    0    0    0    0  0.00000000000E+00  0.00000000000E+00  0.45593999997E+02  0.45594000000E+02  0.51100000000E-03 0.  1.
         11   -1    0    0    0    0 -0.00000000000E+00 -0.00000000000E+00 -0.45593999997E+02  0.45594000000E+02  0.51100000000E-03 0. -1.
    9900012    2    1    2    0    0 -0.51747687355E+01  0.16732595181E+02  0.39709765425E+02  0.47787269095E+02  0.19999991113E+02 0.  0.
         12    1    1    2    0    0  0.51747687355E+01 -0.16732595181E+02 -0.39709765425E+02  0.43400730905E+02  0.00000000000E+00 0. -1.
         11    1    3    3    0    0  0.22660919401E+01  0.11660414369E+01  0.74516479497E+01  0.78753973069E+01  0.51100000000E-03 0. -1.
        -11    1    3    3    0    0  0.46597973812E+01  0.26184431461E+01  0.11041832751E+02  0.12267519183E+02  0.51100000000E-03 0.  1.
         12    1    3    3    0    0 -0.12100658057E+02  0.12948110598E+02  0.21216284725E+02  0.27644352606E+02  0.00000000000E+00 0. -1.
</event>
<event>
 7    1  0.2599124E-010  0.4778727E+02  0.7816164E-02  0.1312668E+00
        -11   -1    0    0    0    0  0.00000000000E+00  0.00000000000E+00  0.45593999997E+02  0.45594000000E+02  0.51100000000E-03 0. -1.
         11   -1    0    0    0    0 -0.00000000000E+00 -0.00000000000E+00 -0.45593999997E+02  0.45594000000E+02  0.51100000000E-03 0.  1.
    9900012    2    1    2    0    0 -0.12028504251E+02  0.99390863300E+01 -0.40498801180E+02  0.47787271335E+02  0.20000001326E+02 0.  0.
         12    1    1    2    0    0  0.12028504251E+02 -0.99390863300E+01  0.40498801180E+02  0.43400728665E+02  0.00000000000E+00 0. -1.
         11    1    3    3    0    0  0.27226642308E+01  0.13662432861E+01 -0.19053506084E+01  0.35930324842E+01  0.51100000000E-03 0. -1.
        -11    1    3    3    0    0  0.21435622720E+01  0.77204612773E+00 -0.15998374945E+01  0.27839530720E+01  0.51100000000E-03 0.  1.
        -12    1    3    3    0    0 -0.16894730754E+02  0.78007969162E+01 -0.36993613077E+02  0.41410285779E+02  0.00000000000E+00 0.  1.
</event>
<event>
 7    1  0.2599124E-010  0.4778727E+02  0.7816164E-02  0.1312668E+00
        -11   -1    0    0    0    0  0.00000000000E+00  0.00000000000E+00  0.45593999997E+02  0.45594000000E+02  0.51100000000E-03 0.  1.
         11   -1    0    0    0    0 -0.00000000000E+00 -0.00000000000E+00 -0.45593999997E+02  0.45594000000E+02  0.51100000000E-03 0. -1.
    9900012    2    1    2    0    0 -0.39196125727E+02 -0.14560318043E+02  0.11631169594E+02  0.47787271438E+02  0.20000001796E+02 0.  0.
         12    1    1    2    0    0  0.39196125727E+02  0.14560318043E+02 -0.11631169594E+02  0.43400728562E+02  0.00000000000E+00 0. -1.
         11    1    3    3    0    0 -0.23196286397E+01 -0.11901069623E+01 -0.30609052935E+01  0.40207179813E+01  0.51100000000E-03 0. -1.
        -11    1    3    3    0    0 -0.83862268476E+01 -0.20497373710E+01 -0.19974117924E+01  0.88611442917E+01  0.51100000000E-03 0.  1.
        -12    1    3    3    0    0 -0.28490270240E+02 -0.11320473710E+02  0.16689486680E+02  0.34905409165E+02  0.00000000000E+00 0.  1.
</event>
<event>
 7    1  0.2599124E-010  0.4778726E+02  0.7816164E-02  0.1312668E+00
        -11   -1    0    0    0    0  0.00000000000E+00  0.00000000000E+00  0.45593999997E+02  0.45594000000E+02  0.51100000000E-03 0.  1.
         11   -1    0    0    0    0 -0.00000000000E+00 -0.00000000000E+00 -0.45593999997E+02  0.45594000000E+02  0.51100000000E-03 0. -1.
    9900012    2    1    2    0    0  0.75173244187E+01 -0.32275014055E+02  0.28025660909E+02  0.47787258439E+02  0.19999942527E+02 0.  0.
         12    1    1    2    0    0 -0.75173244187E+01  0.32275014055E+02 -0.28025660909E+02  0.43400741561E+02  0.00000000000E+00 0. -1.
         11    1    3    3    0    0  0.89410997687E-01 -0.66578614748E+01  0.10569773722E+01  0.67418332203E+01  0.51100000000E-03 0. -1.
        -11    1    3    3    0    0  0.55960078503E+01 -0.81450861370E+01  0.13385959521E+01  0.99724405951E+01  0.51100000000E-03 0.  1.
         12    1    3    3    0    0  0.18319055706E+01 -0.17472066443E+02  0.25630087585E+02  0.31072984624E+02  0.00000000000E+00 0. -1.
</event>
<event>
 7    1  0.2599124E-010  0.4778728E+02  0.7816164E-02  0.1312668E+00
        -11   -1    0    0    0    0  0.00000000000E+00  0.00000000000E+00  0.45593999997E+02  0.45594000000E+02  0.51100000000E-03 0. -1.
         11   -1    0    0    0    0 -0.00000000000E+00 -0.00000000000E+00 -0.45593999997E+02  0.45594000000E+02  0.51100000000E-03 0.  1.
    9900012    2    1    2    0    0  0.24185749108E+02  0.10253870365E+02 -0.34547501781E+02  0.47787283455E+02  0.20000056583E+02 0.  0.
         12    1    1    2    0    0 -0.24185749108E+02 -0.10253870365E+02  0.34547501781E+02  0.43400716545E+02  0.00000000000E+00 0. -1.
         11    1    3    3    0    0  0.20108781229E+02  0.70942867988E+01 -0.17338734140E+02  0.27483152831E+02  0.51100000000E-03 0. -1.
        -11    1    3    3    0    0  0.60440002447E+01 -0.65146797261E+00 -0.72512591918E+01  0.94622993825E+01  0.51100000000E-03 0.  1.
        -12    1    3    3    0    0 -0.19670323656E+01  0.38110515390E+01 -0.99575084486E+01  0.10841831241E+02  0.00000000000E+00 0.  1.
</event>
<event>
 7    1  0.2599124E-010  0.4778727E+02  0.7816164E-02  0.1312668E+00
        -11   -1    0    0    0    0  0.00000000000E+00  0.00000000000E+00  0.45593999997E+02  0.45594000000E+02  0.51100000000E-03 0. -1.
         11   -1    0    0    0    0 -0.00000000000E+00 -0.00000000000E+00 -0.45593999997E+02  0.45594000000E+02  0.51100000000E-03 0.  1.
    9900012    2    1    2    0    0 -0.21307807669E+02  0.33018864420E+02 -0.18421599002E+02  0.47787269764E+02  0.19999994161E+02 0.  0.
         12    1    1    2    0    0  0.21307807669E+02 -0.33018864420E+02  0.18421599002E+02  0.43400730236E+02  0.00000000000E+00 0. -1.
         11    1    3    3    0    0 -0.16334717351E+02  0.14685545441E+02 -0.13682826594E+02  0.25878716732E+02  0.51100000000E-03 0. -1.
        -11    1    3    3    0    0 -0.68697962334E+01  0.18228333662E+02 -0.41210907001E+01  0.19911043097E+02  0.51100000000E-03 0.  1.
        -12    1    3    3    0    0  0.18967059158E+01  0.10498531737E+00 -0.61768170846E+00  0.19975099351E+01  0.00000000000E+00 0.  1.
</event>
<event>
 7    1  0.2599124E-010  0.4778727E+02  0.7816164E-02  0.1312668E+00
        -11   -1    0    0    0    0  0.00000000000E+00  0.00000000000E+00  0.45593999997E+02  0.45594000000E+02  0.51100000000E-03 0.  1.
         11   -1    0    0    0    0 -0.00000000000E+00 -0.00000000000E+00 -0.45593999997E+02  0.45594000000E+02  0.51100000000E-03 0. -1.
    9900012    2    1    2    0    0 -0.20466437746E+02 -0.28421280921E+02  0.25631601717E+02  0.47787270861E+02  0.19999999165E+02 0.  0.
         12    1    1    2    0    0  0.20466437746E+02  0.28421280921E+02 -0.25631601717E+02  0.43400729139E+02  0.00000000000E+00 0. -1.
         11    1    3    3    0    0 -0.17261978000E+01 -0.41995844354E+00  0.97846204420E+01  0.99445925706E+01  0.51100000000E-03 0. -1.
        -11    1    3    3    0    0 -0.64559060972E+01 -0.11742794664E+02  0.97515421999E+01  0.16573005931E+02  0.51100000000E-03 0.  1.
        -12    1    3    3    0    0 -0.12284333849E+02 -0.16258527813E+02  0.60954390749E+01  0.21269672360E+02  0.00000000000E+00 0.  1.
</event>
<event>
 7    1  0.2599124E-010  0.4778727E+02  0.7816164E-02  0.1312668E+00
        -11   -1    0    0    0    0  0.00000000000E+00  0.00000000000E+00  0.45593999997E+02  0.45594000000E+02  0.51100000000E-03 0.  1.
         11   -1    0    0    0    0 -0.00000000000E+00 -0.00000000000E+00 -0.45593999997E+02  0.45594000000E+02  0.51100000000E-03 0. -1.
    9900012    2    1    2    0    0 -0.16856500399E+02 -0.29902490559E+01  0.39881576659E+02  0.47787270145E+02  0.19999995901E+02 0.  0.
         12    1    1    2    0    0  0.16856500399E+02  0.29902490559E+01 -0.39881576659E+02  0.43400729855E+02  0.00000000000E+00 0. -1.
         11    1    3    3    0    0 -0.47260969145E+00  0.56375874464E+01  0.15231877815E+02  0.16248564680E+02  0.51100000000E-03 0. -1.
        -11    1    3    3    0    0 -0.41748429295E+01 -0.28256942422E+01  0.12039850527E+02  0.13052657293E+02  0.51100000000E-03 0.  1.
        -12    1    3    3    0    0 -0.12209047778E+02 -0.58021422601E+01  0.12609848318E+02  0.18486048173E+02  0.00000000000E+00 0.  1.
</event>
<event>
 7    1  0.2599124E-010  0.4778727E+02  0.7816164E-02  0.1312668E+00
        -11   -1    0    0    0    0  0.00000000000E+00  0.00000000000E+00  0.45593999997E+02  0.45594000000E+02  0.51100000000E-03 0.  1.
         11   -1    0    0    0    0 -0.00000000000E+00 -0.00000000000E+00 -0.45593999997E+02  0.45594000000E+02  0.51100000000E-03 0. -1.
    9900012    2    1    2    0    0  0.32519602660E+02 -0.28726787071E+02 -0.93297621372E+00  0.47787270776E+02  0.19999998776E+02 0.  0.
         12    1    1    2    0    0 -0.32519602660E+02  0.28726787071E+02  0.93297621372E+00  0.43400729224E+02  0.00000000000E+00 0. -1.
         11    1    3    3    0    0  0.86050208367E+00  0.26284648644E+00  0.92366565758E+00  0.12894613680E+01  0.51100000000E-03 0. -1.
        -11    1    3    3    0    0  0.22916707173E+02 -0.20464423800E+02  0.68778439104E+01  0.31484485803E+02  0.51100000000E-03 0.  1.
         12    1    3    3    0    0  0.87423934027E+01 -0.85252097571E+01 -0.87344857817E+01  0.15013323605E+02  0.00000000000E+00 0. -1.
</event>
<event>
 7    1  0.2599124E-010  0.4778728E+02  0.7816164E-02  0.1312668E+00
        -11   -1    0    0    0    0  0.00000000000E+00  0.00000000000E+00  0.45593999997E+02  0.45594000000E+02  0.51100000000E-03 0.  1.
         11   -1    0    0    0    0 -0.00000000000E+00 -0.00000000000E+00 -0.45593999997E+02  0.45594000000E+02  0.51100000000E-03 0. -1.
    9900012    2    1    2    0    0 -0.10999960698E+01  0.20489009589E+02  0.38244122926E+02  0.47787280609E+02  0.20000043607E+02 0.  0.
         12    1    1    2    0    0  0.10999960698E+01 -0.20489009589E+02 -0.38244122926E+02  0.43400719391E+02  0.00000000000E+00 0. -1.
         11    1    3    3    0    0 -0.17493460715E+01  0.21808576130E+01  0.83358244769E+01  0.87921738823E+01  0.51100000000E-03 0.  1.
        -11    1    3    3    0    0  0.86307976154E+01  0.11927639184E+02  0.19180742936E+02  0.24179746562E+02  0.51100000000E-03 0. -1.
         12    1    3    3    0    0 -0.79814476137E+01  0.63805127922E+01  0.10727555513E+02  0.14815360164E+02  0.00000000000E+00 0. -1.
</event>
<event>
 7    1  0.2599124E-010  0.4778728E+02  0.7816164E-02  0.1312668E+00
        -11   -1    0    0    0    0  0.00000000000E+00  0.00000000000E+00  0.45593999997E+02  0.45594000000E+02  0.51100000000E-03 0.  1.
         11   -1    0    0    0    0 -0.00000000000E+00 -0.00000000000E+00 -0.45593999997E+02  0.45594000000E+02  0.51100000000E-03 0. -1.
    9900012    2    1    2    0    0 -0.98133195389E+01  0.26672046556E+02  0.32801274620E+02  0.47787275069E+02  0.20000018349E+02 0.  0.
         12    1    1    2    0    0  0.98133195389E+01 -0.26672046556E+02 -0.32801274620E+02  0.43400724931E+02  0.00000000000E+00 0. -1.
         11    1    3    3    0    0 -0.36423560412E+01  0.10595396386E+02  0.68263484484E+01  0.13119764308E+02  0.51100000000E-03 0. -1.
        -11    1    3    3    0    0 -0.75192989710E+01  0.16818699940E+02  0.27094294596E+02  0.32764452149E+02  0.51100000000E-03 0.  1.
         12    1    3    3    0    0  0.13483354733E+01 -0.74204977025E+00 -0.11193684245E+01  0.19030586118E+01  0.00000000000E+00 0. -1.
</event>
<event>
 7    1  0.2599124E-010  0.4778727E+02  0.7816164E-02  0.1312668E+00
        -11   -1    0    0    0    0  0.00000000000E+00  0.00000000000E+00  0.45593999997E+02  0.45594000000E+02  0.51100000000E-03 0.  1.
         11   -1    0    0    0    0 -0.00000000000E+00 -0.00000000000E+00 -0.45593999997E+02  0.45594000000E+02  0.51100000000E-03 0. -1.
    9900012    2    1    2    0    0 -0.25594985299E+02  0.71523711035E+01  0.34312729723E+02  0.47787272980E+02  0.20000008824E+02 0.  0.
         12    1    1    2    0    0  0.25594985299E+02 -0.71523711035E+01 -0.34312729723E+02  0.43400727020E+02  0.00000000000E+00 0. -1.
         11    1    3    3    0    0 -0.48211695403E+01  0.71428392580E+01  0.18846843653E+02  0.20723593905E+02  0.51100000000E-03 0. -1.
        -11    1    3    3    0    0 -0.61888075104E+01  0.36247543704E+01  0.46077019541E+01  0.85247346120E+01  0.51100000000E-03 0.  1.
        -12    1    3    3    0    0 -0.14585008248E+02 -0.36152225248E+01  0.10858184115E+02  0.18538944462E+02  0.00000000000E+00 0.  1.
</event>
<event>
 7    1  0.2599124E-010  0.4778727E+02  0.7816164E-02  0.1312668E+00
        -11   -1    0    0    0    0  0.00000000000E+00  0.00000000000E+00  0.45593999997E+02  0.45594000000E+02  0.51100000000E-03 0. -1.
         11   -1    0    0    0    0 -0.00000000000E+00 -0.00000000000E+00 -0.45593999997E+02  0.45594000000E+02  0.51100000000E-03 0.  1.
    9900012    2    1    2    0    0  0.55379877028E+01 -0.39772100144E+02  0.16466149371E+02  0.47787270366E+02  0.19999996908E+02 0.  0.
         12    1    1    2    0    0 -0.55379877028E+01  0.39772100144E+02 -0.16466149371E+02  0.43400729634E+02  0.00000000000E+00 0. -1.
         11    1    3    3    0    0 -0.17535032366E+01 -0.15422946887E+02  0.11516298918E+02  0.19327886726E+02  0.51100000000E-03 0. -1.
        -11    1    3    3    0    0  0.11089851977E+00  0.13247614279E+01 -0.72059767516E-01  0.13313467594E+01  0.51100000000E-03 0.  1.
        -12    1    3    3    0    0  0.71805924197E+01 -0.25673914685E+02  0.50219102208E+01  0.27128036881E+02  0.00000000000E+00 0.  1.
</event>
<event>
 7    1  0.2599124E-010  0.4778727E+02  0.7816164E-02  0.1312668E+00
        -11   -1    0    0    0    0  0.00000000000E+00  0.00000000000E+00  0.45593999997E+02  0.45594000000E+02  0.51100000000E-03 0.  1.
         11   -1    0    0    0    0 -0.00000000000E+00 -0.00000000000E+00 -0.45593999997E+02  0.45594000000E+02  0.51100000000E-03 0. -1.
    9900012    2    1    2    0    0  0.29887997596E+02  0.31144286480E+02  0.45126549395E+01  0.47787273794E+02  0.20000012535E+02 0.  0.
         12    1    1    2    0    0 -0.29887997596E+02 -0.31144286480E+02 -0.45126549395E+01  0.43400726206E+02  0.00000000000E+00 0. -1.
         11    1    3    3    0    0  0.11344659491E+01  0.92506267863E+01  0.19556032944E+01  0.95228931231E+01  0.51100000000E-03 0. -1.
        -11    1    3    3    0    0  0.22133735775E+02  0.12199146773E+02  0.61069731356E+01  0.26000318508E+02  0.51100000000E-03 0.  1.
         12    1    3    3    0    0  0.66197958715E+01  0.96945129207E+01 -0.35499214904E+01  0.12264062163E+02  0.00000000000E+00 0. -1.
</event>
<event>
 7    1  0.2599124E-010  0.4778727E+02  0.7816164E-02  0.1312668E+00
        -11   -1    0    0    0    0  0.00000000000E+00  0.00000000000E+00  0.45593999997E+02  0.45594000000E+02  0.51100000000E-03 0. -1.
         11   -1    0    0    0    0 -0.00000000000E+00 -0.00000000000E+00 -0.45593999997E+02  0.45594000000E+02  0.51100000000E-03 0.  1.
    9900012    2    1    2    0    0  0.20727069859E+02  0.33440357711E+01 -0.37984593221E+02  0.47787270486E+02  0.19999997455E+02 0.  0.
         12    1    1    2    0    0 -0.20727069859E+02 -0.33440357711E+01  0.37984593221E+02  0.43400729514E+02  0.00000000000E+00 0. -1.
         11    1    3    3    0    0  0.28357935252E+01 -0.18413972948E+01 -0.16133252523E+01  0.37463699157E+01  0.51100000000E-03 0.  1.
        -11    1    3    3    0    0  0.19642054458E+02  0.48052372617E+01 -0.36980930067E+02  0.42148425799E+02  0.51100000000E-03 0. -1.
         12    1    3    3    0    0 -0.17507781237E+01  0.38019580414E+00  0.60966209821E+00  0.18924747718E+01  0.00000000000E+00 0. -1.
</event>
<event>
 7    1  0.2599124E-010  0.4778723E+02  0.7816164E-02  0.1312668E+00
        -11   -1    0    0    0    0  0.00000000000E+00  0.00000000000E+00  0.45593999997E+02  0.45594000000E+02  0.51100000000E-03 0.  1.
         11   -1    0    0    0    0 -0.00000000000E+00 -0.00000000000E+00 -0.45593999997E+02  0.45594000000E+02  0.51100000000E-03 0. -1.
    9900012    2    1    2    0    0 -0.72383841252E+00  0.37449307807E+02  0.21923789581E+02  0.47787226425E+02  0.19999796562E+02 0.  0.
         12    1    1    2    0    0  0.72383841252E+00 -0.37449307807E+02 -0.21923789581E+02  0.43400773575E+02  0.00000000000E+00 0. -1.
         11    1    3    3    0    0 -0.12421450615E+01  0.22238967034E-01  0.71073885089E+00  0.14312822575E+01  0.51100000000E-03 0. -1.
        -11    1    3    3    0    0 -0.15483573392E+01  0.35694273464E+02  0.13514123261E+02  0.38198299652E+02  0.51100000000E-03 0.  1.
         12    1    3    3    0    0  0.20666639882E+01  0.17327953764E+01  0.76989274695E+01  0.81576445153E+01  0.00000000000E+00 0. -1.
</event>
<event>
 7    1  0.2780979E-010  0.4778727E+02  0.7816164E-02  0.1312668E+00
        -11   -1    0    0    0    0  0.00000000000E+00  0.00000000000E+00  0.45593999997E+02  0.45594000000E+02  0.51100000000E-03 0. -1.
         11   -1    0    0    0    0 -0.00000000000E+00 -0.00000000000E+00 -0.45593999997E+02  0.45594000000E+02  0.51100000000E-03 0.  1.
    9900012    2    1    2    0    0 -0.55415505668E+01 -0.42595170079E+02 -0.62101675908E+01  0.47787268690E+02  0.19999989266E+02 0.  0.
         12    1    1    2    0    0  0.55415505668E+01  0.42595170079E+02  0.62101675908E+01  0.43400731310E+02  0.00000000000E+00 0. -1.
         11    1    3    3    0    0  0.24169767802E+01 -0.28904501765E+01  0.19165898173E+01  0.42272681211E+01  0.51100000000E-03 0. -1.
        -11    1    3    3    0    0 -0.93423254225E+00 -0.27379817404E+02 -0.38388491786E+00  0.27398440821E+02  0.51100000000E-03 0.  1.
        -12    1    3    3    0    0 -0.70242948047E+01 -0.12324902498E+02 -0.77428724902E+01  0.16161559748E+02  0.00000000000E+00 0.  1.
</event>
<event>
 7    1  0.2599124E-010  0.4778727E+02  0.7816164E-02  0.1312668E+00
        -11   -1    0    0    0    0  0.00000000000E+00  0.00000000000E+00  0.45593999997E+02  0.45594000000E+02  0.51100000000E-03 0.  1.
         11   -1    0    0    0    0 -0.00000000000E+00 -0.00000000000E+00 -0.45593999997E+02  0.45594000000E+02  0.51100000000E-03 0. -1.
    9900012    2    1    2    0    0 -0.23626961041E+01 -0.19647177153E+02  0.38626794042E+02  0.47787272806E+02  0.20000008034E+02 0.  0.
         12    1    1    2    0    0  0.23626961041E+01  0.19647177153E+02 -0.38626794042E+02  0.43400727194E+02  0.00000000000E+00 0. -1.
         11    1    3    3    0    0 -0.19644753945E+01 -0.49322366108E+01  0.33776221979E+00  0.53197937120E+01  0.51100000000E-03 0. -1.
        -11    1    3    3    0    0 -0.53900858532E+01 -0.97601298882E+01  0.20449802917E+02  0.23291792557E+02  0.51100000000E-03 0.  1.
         12    1    3    3    0    0  0.49918651436E+01 -0.49548106541E+01  0.17839228906E+02  0.19175686537E+02  0.00000000000E+00 0. -1.
</event>
<event>
 7    1  0.2599124E-010  0.4778727E+02  0.7816164E-02  0.1312668E+00
        -11   -1    0    0    0    0  0.00000000000E+00  0.00000000000E+00  0.45593999997E+02  0.45594000000E+02  0.51100000000E-03 0.  1.
         11   -1    0    0    0    0 -0.00000000000E+00 -0.00000000000E+00 -0.45593999997E+02  0.45594000000E+02  0.51100000000E-03 0. -1.
    9900012    2    1    2    0    0 -0.10778826616E+02 -0.21972890840E+02  0.35841767341E+02  0.47787270499E+02  0.19999997515E+02 0.  0.
         12    1    1    2    0    0  0.10778826616E+02  0.21972890840E+02 -0.35841767341E+02  0.43400729501E+02  0.00000000000E+00 0. -1.
         11    1    3    3    0    0 -0.64885323249E+01 -0.14835090469E+01  0.49114907131E+01  0.82719158669E+01  0.51100000000E-03 0. -1.
        -11    1    3    3    0    0 -0.33112130235E+01 -0.21805781395E+01  0.14030690426E+02  0.14580100370E+02  0.51100000000E-03 0.  1.
         12    1    3    3    0    0 -0.97908126773E+00 -0.18308803653E+02  0.16899586202E+02  0.24935254262E+02  0.00000000000E+00 0. -1.
</event>
<event>
 7    1  0.2599124E-010  0.4778727E+02  0.7816164E-02  0.1312668E+00
        -11   -1    0    0    0    0  0.00000000000E+00  0.00000000000E+00  0.45593999997E+02  0.45594000000E+02  0.51100000000E-03 0.  1.
         11   -1    0    0    0    0 -0.00000000000E+00 -0.00000000000E+00 -0.45593999997E+02  0.45594000000E+02  0.51100000000E-03 0. -1.
    9900012    2    1    2    0    0  0.11489901428E+02  0.19568716358E+02  0.36995547896E+02  0.47787273521E+02  0.20000011293E+02 0.  0.
         12    1    1    2    0    0 -0.11489901428E+02 -0.19568716358E+02 -0.36995547896E+02  0.43400726479E+02  0.00000000000E+00 0. -1.
         11    1    3    3    0    0 -0.37042067693E+01  0.97483314887E+01  0.95436886779E+01  0.14136233885E+02  0.51100000000E-03 0. -1.
        -11    1    3    3    0    0  0.11735133992E+01  0.26287179107E+01  0.13921711349E+01  0.31977229840E+01  0.51100000000E-03 0.  1.
        -12    1    3    3    0    0  0.14020594798E+02  0.71916669584E+01  0.26059688084E+02  0.30453316653E+02  0.00000000000E+00 0.  1.
</event>
<event>
 7    1  0.2599124E-010  0.4778727E+02  0.7816164E-02  0.1312668E+00
        -11   -1    0    0    0    0  0.00000000000E+00  0.00000000000E+00  0.45593999997E+02  0.45594000000E+02  0.51100000000E-03 0. -1.
         11   -1    0    0    0    0 -0.00000000000E+00 -0.00000000000E+00 -0.45593999997E+02  0.45594000000E+02  0.51100000000E-03 0.  1.
    9900012    2    1    2    0    0  0.24854781632E+02 -0.50799804943E+00 -0.35575344849E+02  0.47787269671E+02  0.19999993737E+02 0.  0.
         12    1    1    2    0    0 -0.24854781632E+02  0.50799804943E+00  0.35575344849E+02  0.43400730329E+02  0.00000000000E+00 0. -1.
         11    1    3    3    0    0  0.20758307295E+02 -0.54670995946E+01 -0.35228031182E+02  0.41253008145E+02  0.51100000000E-03 0.  1.
        -11    1    3    3    0    0  0.25952426011E+01  0.24784651528E+01  0.15311116904E+00  0.35918681718E+01  0.51100000000E-03 0. -1.
        -12    1    3    3    0    0  0.15012317355E+01  0.24806363924E+01 -0.50042483581E+00  0.29423933543E+01  0.00000000000E+00 0.  1.
</event>
<event>
 7    1  0.2599124E-010  0.4778727E+02  0.7816164E-02  0.1312668E+00
        -11   -1    0    0    0    0  0.00000000000E+00  0.00000000000E+00  0.45593999997E+02  0.45594000000E+02  0.51100000000E-03 0. -1.
         11   -1    0    0    0    0 -0.00000000000E+00 -0.00000000000E+00 -0.45593999997E+02  0.45594000000E+02  0.51100000000E-03 0.  1.
    9900012    2    1    2    0    0  0.11279910841E+01 -0.21044058664E+02 -0.37940722525E+02  0.47787271957E+02  0.20000004162E+02 0.  0.
         12    1    1    2    0    0 -0.11279910841E+01  0.21044058664E+02  0.37940722525E+02  0.43400728043E+02  0.00000000000E+00 0. -1.
         11    1    3    3    0    0 -0.44814910274E+01 -0.36265694299E+01 -0.17439508803E+02  0.18367695424E+02  0.51100000000E-03 0. -1.
        -11    1    3    3    0    0  0.36223386550E+01 -0.16839990326E+00 -0.24702721964E+01  0.43877033679E+01  0.51100000000E-03 0.  1.
        -12    1    3    3    0    0  0.19871434565E+01 -0.17249089331E+02 -0.18030941526E+02  0.25031873165E+02  0.00000000000E+00 0.  1.
</event>
<event>
 7    1  0.2599124E-010  0.4778727E+02  0.7816164E-02  0.1312668E+00
        -11   -1    0    0    0    0  0.00000000000E+00  0.00000000000E+00  0.45593999997E+02  0.45594000000E+02  0.51100000000E-03 0. -1.
         11   -1    0    0    0    0 -0.00000000000E+00 -0.00000000000E+00 -0.45593999997E+02  0.45594000000E+02  0.51100000000E-03 0.  1.
    9900012    2    1    2    0    0  0.32459214976E+01  0.24972298476E+02 -0.35347866697E+02  0.47787269850E+02  0.19999994555E+02 0.  0.
         12    1    1    2    0    0 -0.32459214976E+01 -0.24972298476E+02  0.35347866697E+02  0.43400730150E+02  0.00000000000E+00 0. -1.
         11    1    3    3    0    0  0.56653550103E+00  0.20575669041E+02 -0.20721120506E+02  0.29206916205E+02  0.51100000000E-03 0. -1.
        -11    1    3    3    0    0  0.38526927559E+01  0.57954938934E+01 -0.15157702609E+02  0.16678937004E+02  0.51100000000E-03 0.  1.
         12    1    3    3    0    0 -0.11733067593E+01 -0.13988644587E+01  0.53095641759E+00  0.19014166410E+01  0.00000000000E+00 0. -1.
</event>
<event>
 7    1  0.2599124E-010  0.4778730E+02  0.7816164E-02  0.1312668E+00
        -11   -1    0    0    0    0  0.00000000000E+00  0.00000000000E+00  0.45593999997E+02  0.45594000000E+02  0.51100000000E-03 0.  1.
         11   -1    0    0    0    0 -0.00000000000E+00 -0.00000000000E+00 -0.45593999997E+02  0.45594000000E+02  0.51100000000E-03 0. -1.
    9900012    2    1    2    0    0 -0.18300377073E+02  0.38482626634E+02  0.82343219506E+01  0.47787304019E+02  0.20000150343E+02 0.  0.
         12    1    1    2    0    0  0.18300377073E+02 -0.38482626634E+02 -0.82343219506E+01  0.43400695981E+02  0.00000000000E+00 0. -1.
         11    1    3    3    0    0 -0.18693501044E+01  0.69577360996E+01  0.68826837289E+01  0.99637290718E+01  0.51100000000E-03 0.  1.
        -11    1    3    3    0    0 -0.24445752803E+01  0.10604658875E+02  0.57008128167E+01  0.12285520143E+02  0.51100000000E-03 0. -1.
         12    1    3    3    0    0 -0.13986451688E+02  0.20920231660E+02 -0.43491745950E+01  0.25538054804E+02  0.00000000000E+00 0. -1.
</event>
<event>
 7    1  0.2599124E-010  0.4778727E+02  0.7816164E-02  0.1312668E+00
        -11   -1    0    0    0    0  0.00000000000E+00  0.00000000000E+00  0.45593999997E+02  0.45594000000E+02  0.51100000000E-03 0. -1.
         11   -1    0    0    0    0 -0.00000000000E+00 -0.00000000000E+00 -0.45593999997E+02  0.45594000000E+02  0.51100000000E-03 0.  1.
    9900012    2    1    2    0    0  0.22143118868E+02 -0.29836652382E+02 -0.22429443704E+02  0.47787268630E+02  0.19999988993E+02 0.  0.
         12    1    1    2    0    0 -0.22143118868E+02  0.29836652382E+02  0.22429443704E+02  0.43400731370E+02  0.00000000000E+00 0. -1.
         11    1    3    3    0    0  0.57425207246E+01 -0.81058047159E+01 -0.15455669008E+02  0.18372760247E+02  0.51100000000E-03 0. -1.
        -11    1    3    3    0    0 -0.35529338652E+00 -0.39548166496E+01 -0.21462275394E+01  0.45136571684E+01  0.51100000000E-03 0.  1.
        -12    1    3    3    0    0  0.16755891530E+02 -0.17776031017E+02 -0.48275471565E+01  0.24900851215E+02  0.00000000000E+00 0.  1.
</event>
<event>
 7    1  0.2599124E-010  0.4778727E+02  0.7816164E-02  0.1312668E+00
        -11   -1    0    0    0    0  0.00000000000E+00  0.00000000000E+00  0.45593999997E+02  0.45594000000E+02  0.51100000000E-03 0.  1.
         11   -1    0    0    0    0 -0.00000000000E+00 -0.00000000000E+00 -0.45593999997E+02  0.45594000000E+02  0.51100000000E-03 0. -1.
    9900012    2    1    2    0    0  0.32981527043E+02  0.26161807448E+02  0.10554707336E+02  0.47787272564E+02  0.20000006927E+02 0.  0.
         12    1    1    2    0    0 -0.32981527043E+02 -0.26161807448E+02 -0.10554707336E+02  0.43400727436E+02  0.00000000000E+00 0. -1.
         11    1    3    3    0    0  0.14683426476E+02  0.93397129999E+01 -0.78174172802E+00  0.17419654772E+02  0.51100000000E-03 0. -1.
        -11    1    3    3    0    0  0.17325067754E+02  0.18582056919E+02  0.83029705092E+01  0.26728077588E+02  0.51100000000E-03 0.  1.
         12    1    3    3    0    0  0.97303281318E+00 -0.17599624704E+01  0.30334785548E+01  0.36395402038E+01  0.00000000000E+00 0. -1.
</event>
<event>
 7    1  0.2599124E-010  0.4778727E+02  0.7816164E-02  0.1312668E+00
        -11   -1    0    0    0    0  0.00000000000E+00  0.00000000000E+00  0.45593999997E+02  0.45594000000E+02  0.51100000000E-03 0.  1.
         11   -1    0    0    0    0 -0.00000000000E+00 -0.00000000000E+00 -0.45593999997E+02  0.45594000000E+02  0.51100000000E-03 0. -1.
    9900012    2    1    2    0    0  0.34290953691E+02  0.25114039599E+01  0.26484833989E+02  0.47787273205E+02  0.20000009853E+02 0.  0.
         12    1    1    2    0    0 -0.34290953691E+02 -0.25114039599E+01 -0.26484833989E+02  0.43400726795E+02  0.00000000000E+00 0. -1.
         11    1    3    3    0    0  0.10637021272E+02 -0.45652576811E+01  0.83143122315E+01  0.14251862593E+02  0.51100000000E-03 0. -1.
        -11    1    3    3    0    0  0.71551816502E+01 -0.41077544953E+01  0.55515779928E+01  0.99443597035E+01  0.51100000000E-03 0.  1.
         12    1    3    3    0    0  0.16498750769E+02  0.11184416136E+02  0.12618943765E+02  0.23591050909E+02  0.00000000000E+00 0. -1.
</event>
<event>
 7    1  0.2599124E-010  0.4778727E+02  0.7816164E-02  0.1312668E+00
        -11   -1    0    0    0    0  0.00000000000E+00  0.00000000000E+00  0.45593999997E+02  0.45594000000E+02  0.51100000000E-03 0.  1.
         11   -1    0    0    0    0 -0.00000000000E+00 -0.00000000000E+00 -0.45593999997E+02  0.45594000000E+02  0.51100000000E-03 0. -1.
    9900012    2    1    2    0    0  0.27812415978E+02 -0.52292551626E+01  0.32905127915E+02  0.47787273794E+02  0.20000012537E+02 0.  0.
         12    1    1    2    0    0 -0.27812415978E+02  0.52292551626E+01 -0.32905127915E+02  0.43400726206E+02  0.00000000000E+00 0. -1.
         11    1    3    3    0    0 -0.11027363912E+00 -0.31103584862E+01  0.42610632096E+01  0.52766608879E+01  0.51100000000E-03 0. -1.
        -11    1    3    3    0    0  0.13814891290E+02 -0.91466477841E+00  0.23821601915E+02  0.27552795703E+02  0.51100000000E-03 0.  1.
        -12    1    3    3    0    0  0.14107798328E+02 -0.12042318980E+01  0.48224627906E+01  0.14957817203E+02  0.00000000000E+00 0.  1.
</event>
<event>
 7    1  0.2599124E-010  0.4778726E+02  0.7816164E-02  0.1312668E+00
        -11   -1    0    0    0    0  0.00000000000E+00  0.00000000000E+00  0.45593999997E+02  0.45594000000E+02  0.51100000000E-03 0.  1.
         11   -1    0    0    0    0 -0.00000000000E+00 -0.00000000000E+00 -0.45593999997E+02  0.45594000000E+02  0.51100000000E-03 0. -1.
    9900012    2    1    2    0    0  0.86517962764E+01 -0.37638572209E+02  0.19801721814E+02  0.47787264020E+02  0.19999967974E+02 0.  0.
         12    1    1    2    0    0 -0.86517962764E+01  0.37638572209E+02 -0.19801721814E+02  0.43400735980E+02  0.00000000000E+00 0. -1.
         11    1    3    3    0    0  0.76013479034E+01 -0.19017069080E+02  0.13302592076E+02  0.24421063911E+02  0.51100000000E-03 0.  1.
        -11    1    3    3    0    0  0.67053960589E+01 -0.86478607243E+01  0.38351585615E+01  0.11595528141E+02  0.51100000000E-03 0. -1.
         12    1    3    3    0    0 -0.56549476859E+01 -0.99736424049E+01  0.26639711766E+01  0.11770671968E+02  0.00000000000E+00 0. -1.
</event>
<event>
 7    1  0.2599124E-010  0.4778727E+02  0.7816164E-02  0.1312668E+00
        -11   -1    0    0    0    0  0.00000000000E+00  0.00000000000E+00  0.45593999997E+02  0.45594000000E+02  0.51100000000E-03 0.  1.
         11   -1    0    0    0    0 -0.00000000000E+00 -0.00000000000E+00 -0.45593999997E+02  0.45594000000E+02  0.51100000000E-03 0. -1.
    9900012    2    1    2    0    0  0.29138184205E+02  0.18353328444E+02  0.26414859351E+02  0.47787271455E+02  0.20000001871E+02 0.  0.
         12    1    1    2    0    0 -0.29138184205E+02 -0.18353328444E+02 -0.26414859351E+02  0.43400728545E+02  0.00000000000E+00 0. -1.
         11    1    3    3    0    0  0.14189448224E+02  0.93660852799E+01  0.19018288708E+02  0.25509984320E+02  0.51100000000E-03 0. -1.
        -11    1    3    3    0    0  0.86057663915E+01  0.68301892512E+01  0.10221534255E+02  0.15006347429E+02  0.51100000000E-03 0.  1.
         12    1    3    3    0    0  0.63429695892E+01  0.21570539131E+01 -0.28249636114E+01  0.72709397054E+01  0.00000000000E+00 0. -1.
</event>
<event>
 7    1  0.2599124E-010  0.4778727E+02  0.7816164E-02  0.1312668E+00
        -11   -1    0    0    0    0  0.00000000000E+00  0.00000000000E+00  0.45593999997E+02  0.45594000000E+02  0.51100000000E-03 0.  1.
         11   -1    0    0    0    0 -0.00000000000E+00 -0.00000000000E+00 -0.45593999997E+02  0.45594000000E+02  0.51100000000E-03 0. -1.
    9900012    2    1    2    0    0 -0.12905302483E+02  0.45689295279E+01  0.41184965124E+02  0.47787270726E+02  0.19999998550E+02 0.  0.
         12    1    1    2    0    0  0.12905302483E+02 -0.45689295279E+01 -0.41184965124E+02  0.43400729274E+02  0.00000000000E+00 0. -1.
         11    1    3    3    0    0  0.33145215262E+00 -0.37197880504E+00 -0.62781463937E+00  0.80148627150E+00  0.51100000000E-03 0. -1.
        -11    1    3    3    0    0 -0.14808137291E+02  0.27705617694E+01  0.20156072936E+02  0.25163946809E+02  0.51100000000E-03 0.  1.
        -12    1    3    3    0    0  0.15713826545E+01  0.21703465635E+01  0.21656706827E+02  0.21821837646E+02  0.00000000000E+00 0.  1.
</event>
<event>
 7    1  0.2599124E-010  0.4778728E+02  0.7816164E-02  0.1312668E+00
        -11   -1    0    0    0    0  0.00000000000E+00  0.00000000000E+00  0.45593999997E+02  0.45594000000E+02  0.51100000000E-03 0. -1.
         11   -1    0    0    0    0 -0.00000000000E+00 -0.00000000000E+00 -0.45593999997E+02  0.45594000000E+02  0.51100000000E-03 0.  1.
    9900012    2    1    2    0    0 -0.29677276975E+02  0.14661254030E+02 -0.28070085364E+02  0.47787276150E+02  0.20000023278E+02 0.  0.
         12    1    1    2    0    0  0.29677276975E+02 -0.14661254030E+02  0.28070085364E+02  0.43400723850E+02  0.00000000000E+00 0. -1.
         11    1    3    3    0    0  0.20590841807E+00  0.41456955770E+01 -0.42023264788E+01  0.59066689588E+01  0.51100000000E-03 0. -1.
        -11    1    3    3    0    0 -0.93793596918E+01  0.10244360226E+02 -0.10318631427E+02  0.17302989899E+02  0.51100000000E-03 0.  1.
        -12    1    3    3    0    0 -0.20503825701E+02  0.27119822664E+00 -0.13549127459E+02  0.24577617292E+02  0.00000000000E+00 0.  1.
</event>
<event>
 7    1  0.2599124E-010  0.4778727E+02  0.7816164E-02  0.1312668E+00
        -11   -1    0    0    0    0  0.00000000000E+00  0.00000000000E+00  0.45593999997E+02  0.45594000000E+02  0.51100000000E-03 0.  1.
         11   -1    0    0    0    0 -0.00000000000E+00 -0.00000000000E+00 -0.45593999997E+02  0.45594000000E+02  0.51100000000E-03 0. -1.
    9900012    2    1    2    0    0  0.32868936431E+01  0.22577406970E+02  0.36919912924E+02  0.47787274825E+02  0.20000017239E+02 0.  0.
         12    1    1    2    0    0 -0.32868936431E+01 -0.22577406970E+02 -0.36919912924E+02  0.43400725175E+02  0.00000000000E+00 0. -1.
         11    1    3    3    0    0 -0.99860834281E+00  0.27482924347E+01  0.70633721877E+01  0.76447077676E+01  0.51100000000E-03 0.  1.
        -11    1    3    3    0    0 -0.62226323807E+01  0.91769376256E+01  0.17596229801E+02  0.20798188416E+02  0.51100000000E-03 0. -1.
         12    1    3    3    0    0  0.10508134367E+02  0.10652176910E+02  0.12260310936E+02  0.19344378642E+02  0.00000000000E+00 0. -1.
</event>
<event>
 7    1  0.2599124E-010  0.4778727E+02  0.7816164E-02  0.1312668E+00
        -11   -1    0    0    0    0  0.00000000000E+00  0.00000000000E+00  0.45593999997E+02  0.45594000000E+02  0.51100000000E-03 0. -1.
         11   -1    0    0    0    0 -0.00000000000E+00 -0.00000000000E+00 -0.45593999997E+02  0.45594000000E+02  0.51100000000E-03 0.  1.
    9900012    2    1    2    0    0  0.82550908547E+01  0.42277410068E+02 -0.53007237336E+01  0.47787267297E+02  0.19999982914E+02 0.  0.
         12    1    1    2    0    0 -0.82550908547E+01 -0.42277410068E+02  0.53007237336E+01  0.43400732703E+02  0.00000000000E+00 0. -1.
         11    1    3    3    0    0  0.71622421224E+01  0.18230447329E+02  0.18486099662E+01  0.19673949301E+02  0.51100000000E-03 0. -1.
        -11    1    3    3    0    0 -0.16008967117E+01  0.74786172449E+01  0.33120123502E+01  0.83343873348E+01  0.51100000000E-03 0.  1.
        -12    1    3    3    0    0  0.26937454440E+01  0.16568345494E+02 -0.10461346050E+02  0.19778930661E+02  0.00000000000E+00 0.  1.
</event>
<event>
 7    1  0.2599124E-010  0.4778728E+02  0.7816164E-02  0.1312668E+00
        -11   -1    0    0    0    0  0.00000000000E+00  0.00000000000E+00  0.45593999997E+02  0.45594000000E+02  0.51100000000E-03 0.  1.
         11   -1    0    0    0    0 -0.00000000000E+00 -0.00000000000E+00 -0.45593999997E+02  0.45594000000E+02  0.51100000000E-03 0. -1.
    9900012    2    1    2    0    0  0.33023644420E+02  0.22658630997E+02  0.16722676170E+02  0.47787279410E+02  0.20000038140E+02 0.  0.
         12    1    1    2    0    0 -0.33023644420E+02 -0.22658630997E+02 -0.16722676170E+02  0.43400720590E+02  0.00000000000E+00 0. -1.
         11    1    3    3    0    0  0.12473312731E+02  0.11410982666E+02  0.61495505656E+01  0.17989191986E+02  0.51100000000E-03 0. -1.
        -11    1    3    3    0    0  0.10134453000E+02  0.13813036798E+02  0.64992261139E+01  0.18323402073E+02  0.51100000000E-03 0.  1.
         12    1    3    3    0    0  0.10415878689E+02 -0.25653884659E+01  0.40738994904E+01  0.11474685351E+02  0.00000000000E+00 0. -1.
</event>
<event>
 7    1  0.2599124E-010  0.4778727E+02  0.7816164E-02  0.1312668E+00
        -11   -1    0    0    0    0  0.00000000000E+00  0.00000000000E+00  0.45593999997E+02  0.45594000000E+02  0.51100000000E-03 0.  1.
         11   -1    0    0    0    0 -0.00000000000E+00 -0.00000000000E+00 -0.45593999997E+02  0.45594000000E+02  0.51100000000E-03 0. -1.
    9900012    2    1    2    0    0 -0.23113137792E+02 -0.36679124266E+02  0.20119263155E+01  0.47787272552E+02  0.20000006875E+02 0.  0.
         12    1    1    2    0    0  0.23113137792E+02  0.36679124266E+02 -0.20119263155E+01  0.43400727448E+02  0.00000000000E+00 0. -1.
         11    1    3    3    0    0 -0.50250068384E+01 -0.11612621634E+02 -0.36981622724E+01  0.13182567254E+02  0.51100000000E-03 0. -1.
        -11    1    3    3    0    0 -0.98655608482E+01 -0.23006425495E+02  0.70882620362E+01  0.26016693946E+02  0.51100000000E-03 0.  1.
         12    1    3    3    0    0 -0.82225701053E+01 -0.20600771367E+01 -0.13781734483E+01  0.85880113530E+01  0.00000000000E+00 0. -1.
</event>
<event>
 7    1  0.2599124E-010  0.4778727E+02  0.7816164E-02  0.1312668E+00
        -11   -1    0    0    0    0  0.00000000000E+00  0.00000000000E+00  0.45593999997E+02  0.45594000000E+02  0.51100000000E-03 0. -1.
         11   -1    0    0    0    0 -0.00000000000E+00 -0.00000000000E+00 -0.45593999997E+02  0.45594000000E+02  0.51100000000E-03 0.  1.
    9900012    2    1    2    0    0  0.13778250219E+02  0.16384252714E+02 -0.37753667164E+02  0.47787270739E+02  0.19999998606E+02 0.  0.
         12    1    1    2    0    0 -0.13778250219E+02 -0.16384252714E+02  0.37753667164E+02  0.43400729261E+02  0.00000000000E+00 0. -1.
         11    1    3    3    0    0  0.97492275489E+01  0.16053991662E+00 -0.82182797604E+01  0.12751993309E+02  0.51100000000E-03 0. -1.
        -11    1    3    3    0    0  0.61584836175E+01  0.67720415319E+01 -0.14650284248E+02  0.17274787865E+02  0.51100000000E-03 0.  1.
        -12    1    3    3    0    0 -0.21294609473E+01  0.94516712654E+01 -0.14885103156E+02  0.17760489565E+02  0.00000000000E+00 0.  1.
</event>
<event>
 7    1  0.2599124E-010  0.4778727E+02  0.7816164E-02  0.1312668E+00
        -11   -1    0    0    0    0  0.00000000000E+00  0.00000000000E+00  0.45593999997E+02  0.45594000000E+02  0.51100000000E-03 0.  1.
         11   -1    0    0    0    0 -0.00000000000E+00 -0.00000000000E+00 -0.45593999997E+02  0.45594000000E+02  0.51100000000E-03 0. -1.
    9900012    2    1    2    0    0 -0.32472183038E+00 -0.27297979680E+01  0.43313575267E+02  0.47787273697E+02  0.20000012096E+02 0.  0.
         12    1    1    2    0    0  0.32472183038E+00  0.27297979680E+01 -0.43313575267E+02  0.43400726303E+02  0.00000000000E+00 0. -1.
         11    1    3    3    0    0 -0.28082865998E+01  0.20440997240E+00  0.19165108380E+01  0.34060638744E+01  0.51100000000E-03 0. -1.
        -11    1    3    3    0    0 -0.61573242783E+00 -0.90346725450E+01  0.26008728694E+02  0.27540123510E+02  0.51100000000E-03 0.  1.
         12    1    3    3    0    0  0.30992971972E+01  0.61004646046E+01  0.15388335735E+02  0.16841086313E+02  0.00000000000E+00 0. -1.
</event>
<event>
 7    1  0.2599124E-010  0.4778726E+02  0.7816164E-02  0.1312668E+00
        -11   -1    0    0    0    0  0.00000000000E+00  0.00000000000E+00  0.45593999997E+02  0.45594000000E+02  0.51100000000E-03 0.  1.
         11   -1    0    0    0    0 -0.00000000000E+00 -0.00000000000E+00 -0.45593999997E+02  0.45594000000E+02  0.51100000000E-03 0. -1.
    9900012    2    1    2    0    0  0.20003091848E+02  0.63551747681E+01  0.37988319800E+02  0.47787258405E+02  0.19999942370E+02 0.  0.
         12    1    1    2    0    0 -0.20003091848E+02 -0.63551747681E+01 -0.37988319800E+02  0.43400741595E+02  0.00000000000E+00 0. -1.
         11    1    3    3    0    0  0.74412706190E+01 -0.20443894502E+01  0.53722648569E+01  0.94028329031E+01  0.51100000000E-03 0. -1.
        -11    1    3    3    0    0  0.94007287602E+00 -0.89453244460E+00 -0.98923994597E+00  0.16317233952E+01  0.51100000000E-03 0.  1.
        -12    1    3    3    0    0  0.11621748353E+02  0.92940966629E+01  0.33605294889E+02  0.36752702106E+02  0.00000000000E+00 0.  1.
</event>
<event>
 7    1  0.2599124E-010  0.4778726E+02  0.7816164E-02  0.1312668E+00
        -11   -1    0    0    0    0  0.00000000000E+00  0.00000000000E+00  0.45593999997E+02  0.45594000000E+02  0.51100000000E-03 0.  1.
         11   -1    0    0    0    0 -0.00000000000E+00 -0.00000000000E+00 -0.45593999997E+02  0.45594000000E+02  0.51100000000E-03 0. -1.
    9900012    2    1    2    0    0  0.24796883545E+02 -0.26963780471E+02  0.23274305802E+02  0.47787260359E+02  0.19999951280E+02 0.  0.
         12    1    1    2    0    0 -0.24796883545E+02  0.26963780471E+02 -0.23274305802E+02  0.43400739641E+02  0.00000000000E+00 0. -1.
         11    1    3    3    0    0 -0.38626340141E-02 -0.14793957012E+01 -0.10329900186E+01  0.18043545107E+01  0.51100000000E-03 0. -1.
        -11    1    3    3    0    0  0.16011511686E+02 -0.25291369137E+02  0.16261107419E+02  0.34065311888E+02  0.51100000000E-03 0.  1.
        -12    1    3    3    0    0  0.87892344927E+01 -0.19301563316E+00  0.80461884018E+01  0.11917593960E+02  0.00000000000E+00 0.  1.
</event>
<event>
 7    1  0.2599124E-010  0.4778727E+02  0.7816164E-02  0.1312668E+00
        -11   -1    0    0    0    0  0.00000000000E+00  0.00000000000E+00  0.45593999997E+02  0.45594000000E+02  0.51100000000E-03 0.  1.
         11   -1    0    0    0    0 -0.00000000000E+00 -0.00000000000E+00 -0.45593999997E+02  0.45594000000E+02  0.51100000000E-03 0. -1.
    9900012    2    1    2    0    0 -0.88219139102E+01  0.38065989415E+02  0.18888551488E+02  0.47787273134E+02  0.20000009529E+02 0.  0.
         12    1    1    2    0    0  0.88219139102E+01 -0.38065989415E+02 -0.18888551488E+02  0.43400726866E+02  0.00000000000E+00 0. -1.
         11    1    3    3    0    0  0.17910903781E+01  0.26540778854E+01 -0.18000737910E+01  0.36732002502E+01  0.51100000000E-03 0. -1.
        -11    1    3    3    0    0  0.26979213395E+01  0.45405133910E+01  0.36833109363E+01  0.64390854260E+01  0.51100000000E-03 0.  1.
        -12    1    3    3    0    0 -0.13310925628E+02  0.30871398138E+02  0.17005314343E+02  0.37674987458E+02  0.00000000000E+00 0.  1.
</event>
<event>
 7    1  0.2599124E-010  0.4778727E+02  0.7816164E-02  0.1312668E+00
        -11   -1    0    0    0    0  0.00000000000E+00  0.00000000000E+00  0.45593999997E+02  0.45594000000E+02  0.51100000000E-03 0.  1.
         11   -1    0    0    0    0 -0.00000000000E+00 -0.00000000000E+00 -0.45593999997E+02  0.45594000000E+02  0.51100000000E-03 0. -1.
    9900012    2    1    2    0    0 -0.69741492236E+01 -0.11800905220E+02  0.41179161914E+02  0.47787268470E+02  0.19999988260E+02 0.  0.
         12    1    1    2    0    0  0.69741492236E+01  0.11800905220E+02 -0.41179161914E+02  0.43400731530E+02  0.00000000000E+00 0. -1.
         11    1    3    3    0    0 -0.86883891797E+00  0.32635232401E+01  0.18987141630E+01  0.38743490728E+01  0.51100000000E-03 0. -1.
        -11    1    3    3    0    0  0.92733436984E+00  0.97876259832E-01 -0.27421825137E+00  0.97196949861E+00  0.51100000000E-03 0.  1.
        -12    1    3    3    0    0 -0.70326446755E+01 -0.15162304720E+02  0.39554666003E+02  0.42940949898E+02  0.00000000000E+00 0.  1.
</event>
<event>
 7    1  0.2599124E-010  0.4778728E+02  0.7816164E-02  0.1312668E+00
        -11   -1    0    0    0    0  0.00000000000E+00  0.00000000000E+00  0.45593999997E+02  0.45594000000E+02  0.51100000000E-03 0.  1.
         11   -1    0    0    0    0 -0.00000000000E+00 -0.00000000000E+00 -0.45593999997E+02  0.45594000000E+02  0.51100000000E-03 0. -1.
    9900012    2    1    2    0    0  0.38733507237E+01  0.43132986084E+02 -0.28575420875E+01  0.47787275569E+02  0.20000020631E+02 0.  0.
         12    1    1    2    0    0 -0.38733507237E+01 -0.43132986084E+02  0.28575420875E+01  0.43400724431E+02  0.00000000000E+00 0. -1.
         11    1    3    3    0    0  0.10285394122E+01  0.20186082685E+02  0.10781238882E+01  0.20241002418E+02  0.51100000000E-03 0. -1.
        -11    1    3    3    0    0 -0.47638331351E+01  0.13420262400E+02  0.12535191214E+01  0.14295763690E+02  0.51100000000E-03 0.  1.
         12    1    3    3    0    0  0.76086444465E+01  0.95266409987E+01 -0.51891850971E+01  0.13250509462E+02  0.00000000000E+00 0. -1.
</event>
<event>
 7    1  0.2599124E-010  0.4778727E+02  0.7816164E-02  0.1312668E+00
        -11   -1    0    0    0    0  0.00000000000E+00  0.00000000000E+00  0.45593999997E+02  0.45594000000E+02  0.51100000000E-03 0.  1.
         11   -1    0    0    0    0 -0.00000000000E+00 -0.00000000000E+00 -0.45593999997E+02  0.45594000000E+02  0.51100000000E-03 0. -1.
    9900012    2    1    2    0    0 -0.35706953024E+02 -0.23922523590E+02  0.60290635087E+01  0.47787271481E+02  0.20000001993E+02 0.  0.
         12    1    1    2    0    0  0.35706953024E+02  0.23922523590E+02 -0.60290635087E+01  0.43400728519E+02  0.00000000000E+00 0. -1.
         11    1    3    3    0    0  0.91797381597E+00  0.27320156161E-01  0.26833365326E+01  0.28361448352E+01  0.51100000000E-03 0. -1.
        -11    1    3    3    0    0 -0.12441107211E+02 -0.10547048477E+02  0.55134359577E+01  0.17216833522E+02  0.51100000000E-03 0.  1.
         12    1    3    3    0    0 -0.24183819629E+02 -0.13402795269E+02 -0.21677089816E+01  0.27734293124E+02  0.00000000000E+00 0. -1.
</event>
<event>
 7    1  0.2599124E-010  0.4778728E+02  0.7816164E-02  0.1312668E+00
        -11   -1    0    0    0    0  0.00000000000E+00  0.00000000000E+00  0.45593999997E+02  0.45594000000E+02  0.51100000000E-03 0.  1.
         11   -1    0    0    0    0 -0.00000000000E+00 -0.00000000000E+00 -0.45593999997E+02  0.45594000000E+02  0.51100000000E-03 0. -1.
    9900012    2    1    2    0    0  0.26207400108E+02  0.19029683560E+02  0.28890583376E+02  0.47787280137E+02  0.20000041457E+02 0.  0.
         12    1    1    2    0    0 -0.26207400108E+02 -0.19029683560E+02 -0.28890583376E+02  0.43400719863E+02  0.00000000000E+00 0. -1.
         11    1    3    3    0    0  0.55082374767E+01 -0.25882585736E+01  0.68180070650E+00  0.61241011592E+01  0.51100000000E-03 0. -1.
        -11    1    3    3    0    0  0.11498263404E+01  0.36938728756E+01  0.56320112273E+01  0.68327408966E+01  0.51100000000E-03 0.  1.
        -12    1    3    3    0    0  0.19549336290E+02  0.17924069258E+02  0.22576771443E+02  0.34830438081E+02  0.00000000000E+00 0.  1.
</event>
<event>
 7    1  0.2599124E-010  0.4778728E+02  0.7816164E-02  0.1312668E+00
        -11   -1    0    0    0    0  0.00000000000E+00  0.00000000000E+00  0.45593999997E+02  0.45594000000E+02  0.51100000000E-03 0.  1.
         11   -1    0    0    0    0 -0.00000000000E+00 -0.00000000000E+00 -0.45593999997E+02  0.45594000000E+02  0.51100000000E-03 0. -1.
    9900012    2    1    2    0    0 -0.75778522293E+01  0.25003359129E+02  0.34655888819E+02  0.47787280628E+02  0.20000043695E+02 0.  0.
         12    1    1    2    0    0  0.75778522293E+01 -0.25003359129E+02 -0.34655888819E+02  0.43400719372E+02  0.00000000000E+00 0. -1.
         11    1    3    3    0    0  0.47817297172E+00 -0.91401616387E+00 -0.27618322364E+00  0.10678728261E+01  0.51100000000E-03 0. -1.
        -11    1    3    3    0    0 -0.14984424637E+01  0.13512310087E+02  0.66206040453E+01  0.15121516190E+02  0.51100000000E-03 0.  1.
        -12    1    3    3    0    0 -0.65575827373E+01  0.12405065206E+02  0.28311467998E+02  0.31597891612E+02  0.00000000000E+00 0.  1.
</event>
<event>
 7    1  0.2599124E-010  0.4778727E+02  0.7816164E-02  0.1312668E+00
        -11   -1    0    0    0    0  0.00000000000E+00  0.00000000000E+00  0.45593999997E+02  0.45594000000E+02  0.51100000000E-03 0. -1.
         11   -1    0    0    0    0 -0.00000000000E+00 -0.00000000000E+00 -0.45593999997E+02  0.45594000000E+02  0.51100000000E-03 0.  1.
    9900012    2    1    2    0    0 -0.33700042351E+02 -0.26436324779E+02  0.70036465129E+01  0.47787272048E+02  0.20000004575E+02 0.  0.
         12    1    1    2    0    0  0.33700042351E+02  0.26436324779E+02 -0.70036465129E+01  0.43400727952E+02  0.00000000000E+00 0. -1.
         11    1    3    3    0    0 -0.14924995337E+01 -0.47018311222E+01  0.57764069025E+01  0.75961600645E+01  0.51100000000E-03 0. -1.
        -11    1    3    3    0    0 -0.59588218028E+01 -0.21735960607E+00 -0.14760473228E+01  0.61427614667E+01  0.51100000000E-03 0.  1.
        -12    1    3    3    0    0 -0.26248721014E+02 -0.21517134051E+02  0.27032869331E+01  0.34048350517E+02  0.00000000000E+00 0.  1.
</event>
<event>
 7    1  0.2599124E-010  0.4778726E+02  0.7816164E-02  0.1312668E+00
        -11   -1    0    0    0    0  0.00000000000E+00  0.00000000000E+00  0.45593999997E+02  0.45594000000E+02  0.51100000000E-03 0.  1.
         11   -1    0    0    0    0 -0.00000000000E+00 -0.00000000000E+00 -0.45593999997E+02  0.45594000000E+02  0.51100000000E-03 0. -1.
    9900012    2    1    2    0    0 -0.39362938204E+02  0.18241761163E+02  0.11920775698E+01  0.47787264945E+02  0.19999972190E+02 0.  0.
         12    1    1    2    0    0  0.39362938204E+02 -0.18241761163E+02 -0.11920775698E+01  0.43400735055E+02  0.00000000000E+00 0. -1.
         11    1    3    3    0    0 -0.88334372894E+01  0.70502775756E+01  0.10811776721E+01  0.11353632619E+02  0.51100000000E-03 0. -1.
        -11    1    3    3    0    0 -0.20783741809E+02  0.13930622535E+02 -0.43065386446E+01  0.25388431286E+02  0.51100000000E-03 0.  1.
         12    1    3    3    0    0 -0.97457591058E+01 -0.27391389482E+01  0.44174385422E+01  0.11045201039E+02  0.00000000000E+00 0. -1.
</event>
<event>
 7    1  0.2599124E-010  0.4778727E+02  0.7816164E-02  0.1312668E+00
        -11   -1    0    0    0    0  0.00000000000E+00  0.00000000000E+00  0.45593999997E+02  0.45594000000E+02  0.51100000000E-03 0.  1.
         11   -1    0    0    0    0 -0.00000000000E+00 -0.00000000000E+00 -0.45593999997E+02  0.45594000000E+02  0.51100000000E-03 0. -1.
    9900012    2    1    2    0    0 -0.18990509288E+02  0.11468894836E+02  0.37302126974E+02  0.47787266498E+02  0.19999979270E+02 0.  0.
         12    1    1    2    0    0  0.18990509288E+02 -0.11468894836E+02 -0.37302126974E+02  0.43400733502E+02  0.00000000000E+00 0. -1.
         11    1    3    3    0    0  0.21193069001E+01  0.30743599368E+01  0.85879103830E+01  0.93645798499E+01  0.51100000000E-03 0. -1.
        -11    1    3    3    0    0 -0.42828837143E+01  0.28691169209E+01  0.15473155444E+02  0.16309306070E+02  0.51100000000E-03 0.  1.
        -12    1    3    3    0    0 -0.16826932474E+02  0.55254179779E+01  0.13241061147E+02  0.22113380578E+02  0.00000000000E+00 0.  1.
</event>
<event>
 7    1  0.2599124E-010  0.4778727E+02  0.7816164E-02  0.1312668E+00
        -11   -1    0    0    0    0  0.00000000000E+00  0.00000000000E+00  0.45593999997E+02  0.45594000000E+02  0.51100000000E-03 0. -1.
         11   -1    0    0    0    0 -0.00000000000E+00 -0.00000000000E+00 -0.45593999997E+02  0.45594000000E+02  0.51100000000E-03 0.  1.
    9900012    2    1    2    0    0 -0.38560887411E+02 -0.16618569771E+02 -0.10977449074E+02  0.47787270890E+02  0.19999999294E+02 0.  0.
         12    1    1    2    0    0  0.38560887411E+02  0.16618569771E+02  0.10977449074E+02  0.43400729110E+02  0.00000000000E+00 0. -1.
         11    1    3    3    0    0 -0.14105785182E+02  0.80695448644E+00 -0.79357659038E+01  0.16204960101E+02  0.51100000000E-03 0.  1.
        -11    1    3    3    0    0 -0.43200890399E+01 -0.27542916929E+01 -0.42254707545E+01  0.66410763736E+01  0.51100000000E-03 0. -1.
        -12    1    3    3    0    0 -0.20135013189E+02 -0.14671232565E+02  0.11837875843E+01  0.24941234415E+02  0.00000000000E+00 0.  1.
</event>
<event>
 7    1  0.2599124E-010  0.4778727E+02  0.7816164E-02  0.1312668E+00
        -11   -1    0    0    0    0  0.00000000000E+00  0.00000000000E+00  0.45593999997E+02  0.45594000000E+02  0.51100000000E-03 0. -1.
         11   -1    0    0    0    0 -0.00000000000E+00 -0.00000000000E+00 -0.45593999997E+02  0.45594000000E+02  0.51100000000E-03 0.  1.
    9900012    2    1    2    0    0  0.18556663401E+02 -0.26826878090E+02  0.28628524341E+02  0.47787267857E+02  0.19999985465E+02 0.  0.
         12    1    1    2    0    0 -0.18556663401E+02  0.26826878090E+02 -0.28628524341E+02  0.43400732143E+02  0.00000000000E+00 0. -1.
         11    1    3    3    0    0 -0.37171326933E+01 -0.30377145096E+01  0.46158161777E+01  0.66596204208E+01  0.51100000000E-03 0. -1.
        -11    1    3    3    0    0 -0.49109559626E+00 -0.12713134760E+01  0.82226068557E+00  0.15917052915E+01  0.51100000000E-03 0.  1.
        -12    1    3    3    0    0  0.22764891691E+02 -0.22517850104E+02  0.23190447478E+02  0.39535942144E+02  0.00000000000E+00 0.  1.
</event>
<event>
 7    1  0.2599124E-010  0.4778727E+02  0.7816164E-02  0.1312668E+00
        -11   -1    0    0    0    0  0.00000000000E+00  0.00000000000E+00  0.45593999997E+02  0.45594000000E+02  0.51100000000E-03 0.  1.
         11   -1    0    0    0    0 -0.00000000000E+00 -0.00000000000E+00 -0.45593999997E+02  0.45594000000E+02  0.51100000000E-03 0. -1.
    9900012    2    1    2    0    0 -0.12166137006E+02  0.41646877594E+02  0.10705187905E+01  0.47787270589E+02  0.19999997923E+02 0.  0.
         12    1    1    2    0    0  0.12166137006E+02 -0.41646877594E+02 -0.10705187905E+01  0.43400729411E+02  0.00000000000E+00 0. -1.
         11    1    3    3    0    0 -0.40291851958E+01  0.90698262633E+01 -0.29883797052E+01  0.10364675360E+02  0.51100000000E-03 0. -1.
        -11    1    3    3    0    0 -0.38437534351E+01  0.24225216023E+02 -0.42380183881E+01  0.24891692027E+02  0.51100000000E-03 0.  1.
        -12    1    3    3    0    0 -0.42931983753E+01  0.83518353068E+01  0.82969168838E+01  0.12530903202E+02  0.00000000000E+00 0.  1.
</event>
<event>
 7    1  0.2599124E-010  0.4778727E+02  0.7816164E-02  0.1312668E+00
        -11   -1    0    0    0    0  0.00000000000E+00  0.00000000000E+00  0.45593999997E+02  0.45594000000E+02  0.51100000000E-03 0.  1.
         11   -1    0    0    0    0 -0.00000000000E+00 -0.00000000000E+00 -0.45593999997E+02  0.45594000000E+02  0.51100000000E-03 0. -1.
    9900012    2    1    2    0    0  0.22467925258E+02 -0.56872515487E+01  0.36694293762E+02  0.47787266247E+02  0.19999978129E+02 0.  0.
         12    1    1    2    0    0 -0.22467925258E+02  0.56872515487E+01 -0.36694293762E+02  0.43400733753E+02  0.00000000000E+00 0. -1.
         11    1    3    3    0    0  0.39516634672E+01 -0.14686319251E+01  0.92994822409E+01  0.10210430652E+02  0.51100000000E-03 0. -1.
        -11    1    3    3    0    0  0.15753529493E+02 -0.42927696530E+01  0.83623646402E+01  0.18344773245E+02  0.51100000000E-03 0.  1.
        -12    1    3    3    0    0  0.27627322977E+01  0.74150029394E-01  0.19032446881E+02  0.19232062350E+02  0.00000000000E+00 0.  1.
</event>
<event>
 7    1  0.2599124E-010  0.4778727E+02  0.7816164E-02  0.1312668E+00
        -11   -1    0    0    0    0  0.00000000000E+00  0.00000000000E+00  0.45593999997E+02  0.45594000000E+02  0.51100000000E-03 0.  1.
         11   -1    0    0    0    0 -0.00000000000E+00 -0.00000000000E+00 -0.45593999997E+02  0.45594000000E+02  0.51100000000E-03 0. -1.
    9900012    2    1    2    0    0  0.14015598247E+02 -0.25289874405E+02  0.32366783858E+02  0.47787269143E+02  0.19999991328E+02 0.  0.
         12    1    1    2    0    0 -0.14015598247E+02  0.25289874405E+02 -0.32366783858E+02  0.43400730857E+02  0.00000000000E+00 0. -1.
         11    1    3    3    0    0 -0.41123035210E+00 -0.20842947950E+01  0.58200572623E+01  0.61956809143E+01  0.51100000000E-03 0. -1.
        -11    1    3    3    0    0  0.15734088407E+02 -0.19468603947E+02  0.27828614625E+02  0.37430199971E+02  0.51100000000E-03 0.  1.
        -12    1    3    3    0    0 -0.13072598081E+01 -0.37369756625E+01 -0.12818880290E+01  0.41613882571E+01  0.00000000000E+00 0.  1.
</event>
<event>
 7    1  0.2599124E-010  0.4778727E+02  0.7816164E-02  0.1312668E+00
        -11   -1    0    0    0    0  0.00000000000E+00  0.00000000000E+00  0.45593999997E+02  0.45594000000E+02  0.51100000000E-03 0.  1.
         11   -1    0    0    0    0 -0.00000000000E+00 -0.00000000000E+00 -0.45593999997E+02  0.45594000000E+02  0.51100000000E-03 0. -1.
    9900012    2    1    2    0    0  0.18846676481E+02 -0.18034827214E+02  0.34686758827E+02  0.47787269073E+02  0.19999991013E+02 0.  0.
         12    1    1    2    0    0 -0.18846676481E+02  0.18034827214E+02 -0.34686758827E+02  0.43400730927E+02  0.00000000000E+00 0. -1.
         11    1    3    3    0    0  0.55675322417E+01 -0.70394693829E+01  0.53488827432E+01  0.10448066391E+02  0.51100000000E-03 0. -1.
        -11    1    3    3    0    0  0.15253410703E+02 -0.56053766137E+01  0.15939593959E+02  0.22763071869E+02  0.51100000000E-03 0.  1.
         12    1    3    3    0    0 -0.19742664638E+01 -0.53899812176E+01  0.13398282125E+02  0.14576130813E+02  0.00000000000E+00 0. -1.
</event>
<event>
 7    1  0.2599124E-010  0.4778727E+02  0.7816164E-02  0.1312668E+00
        -11   -1    0    0    0    0  0.00000000000E+00  0.00000000000E+00  0.45593999997E+02  0.45594000000E+02  0.51100000000E-03 0. -1.
         11   -1    0    0    0    0 -0.00000000000E+00 -0.00000000000E+00 -0.45593999997E+02  0.45594000000E+02  0.51100000000E-03 0.  1.
    9900012    2    1    2    0    0  0.73828609780E+01 -0.16351488174E+02 -0.39518927069E+02  0.47787269610E+02  0.19999993460E+02 0.  0.
         12    1    1    2    0    0 -0.73828609780E+01  0.16351488174E+02  0.39518927069E+02  0.43400730390E+02  0.00000000000E+00 0. -1.
         11    1    3    3    0    0  0.73417647354E+01 -0.13922166872E+02 -0.25555800842E+02  0.30013783446E+02  0.51100000000E-03 0.  1.
        -11    1    3    3    0    0  0.52335914716E+01 -0.10618477267E+00 -0.77206618699E+01  0.93279351878E+01  0.51100000000E-03 0. -1.
        -12    1    3    3    0    0 -0.51924952290E+01 -0.23231365296E+01 -0.62424643570E+01  0.84455509760E+01  0.00000000000E+00 0.  1.
</event>
<event>
 7    1  0.2599124E-010  0.4778728E+02  0.7816164E-02  0.1312668E+00
        -11   -1    0    0    0    0  0.00000000000E+00  0.00000000000E+00  0.45593999997E+02  0.45594000000E+02  0.51100000000E-03 0.  1.
         11   -1    0    0    0    0 -0.00000000000E+00 -0.00000000000E+00 -0.45593999997E+02  0.45594000000E+02  0.51100000000E-03 0. -1.
    9900012    2    1    2    0    0  0.33159772286E+02 -0.20272723024E+02 -0.19314993023E+02  0.47787277053E+02  0.20000027396E+02 0.  0.
         12    1    1    2    0    0 -0.33159772286E+02  0.20272723024E+02  0.19314993023E+02  0.43400722947E+02  0.00000000000E+00 0. -1.
         11    1    3    3    0    0  0.12267042268E+01 -0.67476966745E+01 -0.48209306130E+01  0.83831727829E+01  0.51100000000E-03 0. -1.
        -11    1    3    3    0    0  0.52634150939E+01 -0.77145042714E+01 -0.40388340143E+01  0.10174934647E+02  0.51100000000E-03 0.  1.
        -12    1    3    3    0    0  0.26669652965E+02 -0.58105220776E+01 -0.10455228396E+02  0.29229169624E+02  0.00000000000E+00 0.  1.
</event>
<event>
 7    1  0.2599124E-010  0.4778727E+02  0.7816164E-02  0.1312668E+00
        -11   -1    0    0    0    0  0.00000000000E+00  0.00000000000E+00  0.45593999997E+02  0.45594000000E+02  0.51100000000E-03 0. -1.
         11   -1    0    0    0    0 -0.00000000000E+00 -0.00000000000E+00 -0.45593999997E+02  0.45594000000E+02  0.51100000000E-03 0.  1.
    9900012    2    1    2    0    0 -0.49925231758E+01  0.30848164056E+02 -0.30117919201E+02  0.47787267630E+02  0.19999984430E+02 0.  0.
         12    1    1    2    0    0  0.49925231758E+01 -0.30848164056E+02  0.30117919201E+02  0.43400732370E+02  0.00000000000E+00 0. -1.
         11    1    3    3    0    0 -0.44411194032E+01  0.98161461960E+00 -0.92585445010E+00  0.46415854553E+01  0.51100000000E-03 0. -1.
        -11    1    3    3    0    0 -0.36141213960E+01  0.13335165748E+02 -0.75631999561E+01  0.15750889271E+02  0.51100000000E-03 0.  1.
         12    1    3    3    0    0  0.30627176234E+01  0.16531383689E+02 -0.21628864795E+02  0.27394792903E+02  0.00000000000E+00 0. -1.
</event>
<event>
 7    1  0.2599124E-010  0.4778727E+02  0.7816164E-02  0.1312668E+00
        -11   -1    0    0    0    0  0.00000000000E+00  0.00000000000E+00  0.45593999997E+02  0.45594000000E+02  0.51100000000E-03 0.  1.
         11   -1    0    0    0    0 -0.00000000000E+00 -0.00000000000E+00 -0.45593999997E+02  0.45594000000E+02  0.51100000000E-03 0. -1.
    9900012    2    1    2    0    0 -0.37185995883E+02 -0.70030038230E+01  0.21255180842E+02  0.47787273450E+02  0.20000010970E+02 0.  0.
         12    1    1    2    0    0  0.37185995883E+02  0.70030038230E+01 -0.21255180842E+02  0.43400726550E+02  0.00000000000E+00 0. -1.
         11    1    3    3    0    0 -0.17075422243E+02  0.59826837810E+01  0.86507026059E+01  0.20054854920E+02  0.51100000000E-03 0. -1.
        -11    1    3    3    0    0 -0.43907309841E+01 -0.36640543566E+01  0.35214673309E+00  0.57295567442E+01  0.51100000000E-03 0.  1.
         12    1    3    3    0    0 -0.15719842656E+02 -0.93216332474E+01  0.12252331503E+02  0.22002861786E+02  0.00000000000E+00 0. -1.
</event>
<event>
 7    1  0.2599124E-010  0.4778727E+02  0.7816164E-02  0.1312668E+00
        -11   -1    0    0    0    0  0.00000000000E+00  0.00000000000E+00  0.45593999997E+02  0.45594000000E+02  0.51100000000E-03 0.  1.
         11   -1    0    0    0    0 -0.00000000000E+00 -0.00000000000E+00 -0.45593999997E+02  0.45594000000E+02  0.51100000000E-03 0. -1.
    9900012    2    1    2    0    0  0.24317170974E+02  0.21161866501E+02  0.29059834426E+02  0.47787269881E+02  0.19999994693E+02 0.  0.
         12    1    1    2    0    0 -0.24317170974E+02 -0.21161866501E+02 -0.29059834426E+02  0.43400730119E+02  0.00000000000E+00 0. -1.
         11    1    3    3    0    0  0.27356353782E+01 -0.99962286206E-01  0.96424059684E-01  0.27391588566E+01  0.51100000000E-03 0. -1.
        -11    1    3    3    0    0  0.50118258458E+00 -0.23916298779E+01  0.58322348611E+00  0.25122156261E+01  0.51100000000E-03 0.  1.
        -12    1    3    3    0    0  0.21080353011E+02  0.23653458665E+02  0.28380186881E+02  0.42535895398E+02  0.00000000000E+00 0.  1.
</event>
<event>
 7    1  0.2599124E-010  0.4778727E+02  0.7816164E-02  0.1312668E+00
        -11   -1    0    0    0    0  0.00000000000E+00  0.00000000000E+00  0.45593999997E+02  0.45594000000E+02  0.51100000000E-03 0. -1.
         11   -1    0    0    0    0 -0.00000000000E+00 -0.00000000000E+00 -0.45593999997E+02  0.45594000000E+02  0.51100000000E-03 0.  1.
    9900012    2    1    2    0    0  0.93817535174E+01  0.23462496288E+02 -0.35286222620E+02  0.47787268003E+02  0.19999986133E+02 0.  0.
         12    1    1    2    0    0 -0.93817535174E+01 -0.23462496288E+02  0.35286222620E+02  0.43400731997E+02  0.00000000000E+00 0. -1.
         11    1    3    3    0    0  0.18727353727E+00  0.12195028847E+01  0.63392633664E+00  0.13871270760E+01  0.51100000000E-03 0. -1.
        -11    1    3    3    0    0  0.53094783520E+01  0.23903839372E+02 -0.26528621937E+02  0.36101965033E+02  0.51100000000E-03 0.  1.
        -12    1    3    3    0    0  0.38850016281E+01 -0.16608459695E+01 -0.93915270195E+01  0.10298175894E+02  0.00000000000E+00 0.  1.
</event>
<event>
 7    1  0.2599124E-010  0.4778727E+02  0.7816164E-02  0.1312668E+00
        -11   -1    0    0    0    0  0.00000000000E+00  0.00000000000E+00  0.45593999997E+02  0.45594000000E+02  0.51100000000E-03 0.  1.
         11   -1    0    0    0    0 -0.00000000000E+00 -0.00000000000E+00 -0.45593999997E+02  0.45594000000E+02  0.51100000000E-03 0. -1.
    9900012    2    1    2    0    0 -0.17999077630E+02 -0.36664507259E+02  0.14675505731E+02  0.47787270092E+02  0.19999995657E+02 0.  0.
         12    1    1    2    0    0  0.17999077630E+02  0.36664507259E+02 -0.14675505731E+02  0.43400729908E+02  0.00000000000E+00 0. -1.
         11    1    3    3    0    0 -0.14738510860E+02 -0.25731915212E+02  0.10881163453E+02  0.31587258210E+02  0.51100000000E-03 0. -1.
        -11    1    3    3    0    0 -0.10999168317E+01 -0.12339730668E+02  0.49924743860E+01  0.13356779954E+02  0.51100000000E-03 0.  1.
         12    1    3    3    0    0 -0.21606499379E+01  0.14071386198E+01 -0.11981321081E+01  0.28432319282E+01  0.00000000000E+00 0. -1.
</event>
<event>
 7    1  0.2599124E-010  0.4778726E+02  0.7816164E-02  0.1312668E+00
        -11   -1    0    0    0    0  0.00000000000E+00  0.00000000000E+00  0.45593999997E+02  0.45594000000E+02  0.51100000000E-03 0. -1.
         11   -1    0    0    0    0 -0.00000000000E+00 -0.00000000000E+00 -0.45593999997E+02  0.45594000000E+02  0.51100000000E-03 0.  1.
    9900012    2    1    2    0    0  0.38153323882E+02  0.98151177388E+01 -0.18210203134E+02  0.47787260863E+02  0.19999953579E+02 0.  0.
         12    1    1    2    0    0 -0.38153323882E+02 -0.98151177388E+01  0.18210203134E+02  0.43400739137E+02  0.00000000000E+00 0. -1.
         11    1    3    3    0    0  0.53663609413E+01  0.56253396455E+01 -0.24158711460E+01  0.81411737197E+01  0.51100000000E-03 0. -1.
        -11    1    3    3    0    0  0.18092387418E+02  0.90655130426E+01 -0.52255168856E+01  0.20900335792E+02  0.51100000000E-03 0.  1.
        -12    1    3    3    0    0  0.14694575522E+02 -0.48757349493E+01 -0.10568815103E+02  0.18745751352E+02  0.00000000000E+00 0.  1.
</event>
<event>
 7    1  0.2599124E-010  0.4778726E+02  0.7816164E-02  0.1312668E+00
        -11   -1    0    0    0    0  0.00000000000E+00  0.00000000000E+00  0.45593999997E+02  0.45594000000E+02  0.51100000000E-03 0.  1.
         11   -1    0    0    0    0 -0.00000000000E+00 -0.00000000000E+00 -0.45593999997E+02  0.45594000000E+02  0.51100000000E-03 0. -1.
    9900012    2    1    2    0    0 -0.28833824849E+02 -0.31196067644E+02  0.88904350797E+01  0.47787263511E+02  0.19999965654E+02 0.  0.
         12    1    1    2    0    0  0.28833824849E+02  0.31196067644E+02 -0.88904350797E+01  0.43400736489E+02  0.00000000000E+00 0. -1.
         11    1    3    3    0    0 -0.14722395056E+02 -0.16152258974E+02  0.16987364619E+01  0.21920996601E+02  0.51100000000E-03 0.  1.
        -11    1    3    3    0    0 -0.11844028445E+02 -0.12172801349E+02 -0.87726718730E+00  0.17006695754E+02  0.51100000000E-03 0. -1.
        -12    1    3    3    0    0 -0.22674013472E+01 -0.28710073205E+01  0.80689658051E+01  0.88595711560E+01  0.00000000000E+00 0.  1.
</event>
<event>
 7    1  0.2599124E-010  0.4778727E+02  0.7816164E-02  0.1312668E+00
        -11   -1    0    0    0    0  0.00000000000E+00  0.00000000000E+00  0.45593999997E+02  0.45594000000E+02  0.51100000000E-03 0. -1.
         11   -1    0    0    0    0 -0.00000000000E+00 -0.00000000000E+00 -0.45593999997E+02  0.45594000000E+02  0.51100000000E-03 0.  1.
    9900012    2    1    2    0    0  0.57685994506E+01  0.39113202526E+02 -0.17902632351E+02  0.47787267327E+02  0.19999983050E+02 0.  0.
         12    1    1    2    0    0 -0.57685994506E+01 -0.39113202526E+02  0.17902632351E+02  0.43400732673E+02  0.00000000000E+00 0. -1.
         11    1    3    3    0    0  0.24899551160E+01  0.12432996294E+02 -0.49044820561E+01  0.13595338092E+02  0.51100000000E-03 0.  1.
        -11    1    3    3    0    0  0.74916190964E+01  0.11804677745E+02 -0.12450898002E+02  0.18721635470E+02  0.51100000000E-03 0. -1.
         12    1    3    3    0    0 -0.42129747619E+01  0.14875528487E+02 -0.54725229310E+00  0.15470293765E+02  0.00000000000E+00 0. -1.
</event>
<event>
 7    1  0.2599124E-010  0.4778727E+02  0.7816164E-02  0.1312668E+00
        -11   -1    0    0    0    0  0.00000000000E+00  0.00000000000E+00  0.45593999997E+02  0.45594000000E+02  0.51100000000E-03 0.  1.
         11   -1    0    0    0    0 -0.00000000000E+00 -0.00000000000E+00 -0.45593999997E+02  0.45594000000E+02  0.51100000000E-03 0. -1.
    9900012    2    1    2    0    0  0.20862568610E+02 -0.36478807865E+02  0.10847729092E+02  0.47787269376E+02  0.19999992394E+02 0.  0.
         12    1    1    2    0    0 -0.20862568610E+02  0.36478807865E+02 -0.10847729092E+02  0.43400730624E+02  0.00000000000E+00 0. -1.
         11    1    3    3    0    0 -0.62548786541E+00 -0.53306517685E+01 -0.32880920608E+01  0.62943334046E+01  0.51100000000E-03 0. -1.
        -11    1    3    3    0    0  0.14059984665E+01  0.15875369373E-01  0.20747595245E+01  0.25063341878E+01  0.51100000000E-03 0.  1.
        -12    1    3    3    0    0  0.20082058009E+02 -0.31164031466E+02  0.12061061628E+02  0.38986601784E+02  0.00000000000E+00 0.  1.
</event>
<event>
 7    1  0.2599124E-010  0.4778727E+02  0.7816164E-02  0.1312668E+00
        -11   -1    0    0    0    0  0.00000000000E+00  0.00000000000E+00  0.45593999997E+02  0.45594000000E+02  0.51100000000E-03 0. -1.
         11   -1    0    0    0    0 -0.00000000000E+00 -0.00000000000E+00 -0.45593999997E+02  0.45594000000E+02  0.51100000000E-03 0.  1.
    9900012    2    1    2    0    0  0.76793631599E+01  0.96774099267E+01 -0.41605268381E+02  0.47787271453E+02  0.20000001861E+02 0.  0.
         12    1    1    2    0    0 -0.76793631599E+01 -0.96774099267E+01  0.41605268381E+02  0.43400728547E+02  0.00000000000E+00 0. -1.
         11    1    3    3    0    0  0.26873236245E+01 -0.21473371502E+01 -0.15855666624E+02  0.16224516309E+02  0.51100000000E-03 0. -1.
        -11    1    3    3    0    0 -0.71901931004E+00  0.52240564614E+00  0.13695821621E+01  0.16326824515E+01  0.51100000000E-03 0.  1.
        -12    1    3    3    0    0  0.57110588455E+01  0.11302341431E+02 -0.27119183919E+02  0.29930072692E+02  0.00000000000E+00 0.  1.
</event>
<event>
 7    1  0.2599124E-010  0.4778727E+02  0.7816164E-02  0.1312668E+00
        -11   -1    0    0    0    0  0.00000000000E+00  0.00000000000E+00  0.45593999997E+02  0.45594000000E+02  0.51100000000E-03 0. -1.
         11   -1    0    0    0    0 -0.00000000000E+00 -0.00000000000E+00 -0.45593999997E+02  0.45594000000E+02  0.51100000000E-03 0.  1.
    9900012    2    1    2    0    0 -0.18460614853E+02  0.27097765856E+02 -0.28434838655E+02  0.47787271153E+02  0.20000000495E+02 0.  0.
         12    1    1    2    0    0  0.18460614853E+02 -0.27097765856E+02  0.28434838655E+02  0.43400728847E+02  0.00000000000E+00 0. -1.
         11    1    3    3    0    0 -0.89057878088E+01  0.17866786636E+02 -0.25229596010E+02  0.32172467053E+02  0.51100000000E-03 0. -1.
        -11    1    3    3    0    0 -0.59032279772E+01  0.71750493920E+01 -0.55400836463E+01  0.10817668945E+02  0.51100000000E-03 0.  1.
         12    1    3    3    0    0 -0.36515990667E+01  0.20559298275E+01  0.23348410007E+01  0.47971351553E+01  0.00000000000E+00 0. -1.
</event>
<event>
 7    1  0.2599124E-010  0.4778728E+02  0.7816164E-02  0.1312668E+00
        -11   -1    0    0    0    0  0.00000000000E+00  0.00000000000E+00  0.45593999997E+02  0.45594000000E+02  0.51100000000E-03 0.  1.
         11   -1    0    0    0    0 -0.00000000000E+00 -0.00000000000E+00 -0.45593999997E+02  0.45594000000E+02  0.51100000000E-03 0. -1.
    9900012    2    1    2    0    0  0.16713184807E+02 -0.12208944136E+02  0.38147522886E+02  0.47787281508E+02  0.20000047708E+02 0.  0.
         12    1    1    2    0    0 -0.16713184807E+02  0.12208944136E+02 -0.38147522886E+02  0.43400718492E+02  0.00000000000E+00 0. -1.
         11    1    3    3    0    0  0.21562620082E+01 -0.18474632136E+00  0.78101937027E+01  0.81044878300E+01  0.51100000000E-03 0.  1.
        -11    1    3    3    0    0  0.64372407866E+01 -0.17069118430E+01  0.24365533364E+02  0.25259272226E+02  0.51100000000E-03 0. -1.
         12    1    3    3    0    0  0.81196820123E+01 -0.10317285971E+02  0.59717958185E+01  0.14423521453E+02  0.00000000000E+00 0. -1.
</event>
<event>
 7    1  0.2599124E-010  0.4778727E+02  0.7816164E-02  0.1312668E+00
        -11   -1    0    0    0    0  0.00000000000E+00  0.00000000000E+00  0.45593999997E+02  0.45594000000E+02  0.51100000000E-03 0.  1.
         11   -1    0    0    0    0 -0.00000000000E+00 -0.00000000000E+00 -0.45593999997E+02  0.45594000000E+02  0.51100000000E-03 0. -1.
    9900012    2    1    2    0    0  0.28509015141E+02  0.23206008902E+02  0.23072503828E+02  0.47787271591E+02  0.20000002494E+02 0.  0.
         12    1    1    2    0    0 -0.28509015141E+02 -0.23206008902E+02 -0.23072503828E+02  0.43400728409E+02  0.00000000000E+00 0. -1.
         11    1    3    3    0    0  0.81849079052E+01 -0.14833742779E+00  0.53772750128E+01  0.97943763575E+01  0.51100000000E-03 0. -1.
        -11    1    3    3    0    0  0.10833544667E+01 -0.75988727176E+00  0.40490696162E+01  0.42598181398E+01  0.51100000000E-03 0.  1.
        -12    1    3    3    0    0  0.19240752769E+02  0.24114233602E+02  0.13646159199E+02  0.33733077094E+02  0.00000000000E+00 0.  1.
</event>
<event>
 7    1  0.2599124E-010  0.4778727E+02  0.7816164E-02  0.1312668E+00
        -11   -1    0    0    0    0  0.00000000000E+00  0.00000000000E+00  0.45593999997E+02  0.45594000000E+02  0.51100000000E-03 0.  1.
         11   -1    0    0    0    0 -0.00000000000E+00 -0.00000000000E+00 -0.45593999997E+02  0.45594000000E+02  0.51100000000E-03 0. -1.
    9900012    2    1    2    0    0 -0.26164921883E+02  0.55545782342E+01  0.34178455818E+02  0.47787270530E+02  0.19999997652E+02 0.  0.
         12    1    1    2    0    0  0.26164921883E+02 -0.55545782342E+01 -0.34178455818E+02  0.43400729470E+02  0.00000000000E+00 0. -1.
         11    1    3    3    0    0 -0.79933440519E+01 -0.33814777721E+01  0.69336604019E+01  0.11108716752E+02  0.51100000000E-03 0. -1.
        -11    1    3    3    0    0 -0.94914476721E+01 -0.26277328747E+01  0.13650546959E+02  0.16832408964E+02  0.51100000000E-03 0.  1.
         12    1    3    3    0    0 -0.86801301585E+01  0.11563788881E+02  0.13594248456E+02  0.19846144813E+02  0.00000000000E+00 0. -1.
</event>
<event>
 7    1  0.2599124E-010  0.4778727E+02  0.7816164E-02  0.1312668E+00
        -11   -1    0    0    0    0  0.00000000000E+00  0.00000000000E+00  0.45593999997E+02  0.45594000000E+02  0.51100000000E-03 0. -1.
         11   -1    0    0    0    0 -0.00000000000E+00 -0.00000000000E+00 -0.45593999997E+02  0.45594000000E+02  0.51100000000E-03 0.  1.
    9900012    2    1    2    0    0  0.10446215226E+02 -0.23203405276E+02 -0.35158238292E+02  0.47787272486E+02  0.20000006574E+02 0.  0.
         12    1    1    2    0    0 -0.10446215226E+02  0.23203405276E+02  0.35158238292E+02  0.43400727514E+02  0.00000000000E+00 0. -1.
         11    1    3    3    0    0 -0.11013960172E+01 -0.61386842341E+01 -0.64829068191E+01  0.89958100469E+01  0.51100000000E-03 0. -1.
        -11    1    3    3    0    0  0.47313078379E+01  0.22038159170E+01 -0.31678013412E+01  0.61054929409E+01  0.51100000000E-03 0.  1.
        -12    1    3    3    0    0  0.68163034051E+01 -0.19268536959E+02 -0.25507530131E+02  0.32685969498E+02  0.00000000000E+00 0.  1.
</event>
<event>
 7    1  0.2599124E-010  0.4778728E+02  0.7816164E-02  0.1312668E+00
        -11   -1    0    0    0    0  0.00000000000E+00  0.00000000000E+00  0.45593999997E+02  0.45594000000E+02  0.51100000000E-03 0. -1.
         11   -1    0    0    0    0 -0.00000000000E+00 -0.00000000000E+00 -0.45593999997E+02  0.45594000000E+02  0.51100000000E-03 0.  1.
    9900012    2    1    2    0    0 -0.86476543239E+01  0.23124563627E+02 -0.35694470969E+02  0.47787278508E+02  0.20000034030E+02 0.  0.
         12    1    1    2    0    0  0.86476543239E+01 -0.23124563627E+02  0.35694470969E+02  0.43400721492E+02  0.00000000000E+00 0. -1.
         11    1    3    3    0    0 -0.89899100738E+01  0.88720168728E+01 -0.68617825593E+01  0.14374116553E+02  0.51100000000E-03 0. -1.
        -11    1    3    3    0    0  0.16535624239E+00  0.57017115307E+01 -0.35393658057E+01  0.67129701053E+01  0.51100000000E-03 0.  1.
        -12    1    3    3    0    0  0.17689950746E+00  0.85508352236E+01 -0.25293322604E+02  0.26700191850E+02  0.00000000000E+00 0.  1.
</event>
<event>
 7    1  0.2599124E-010  0.4778727E+02  0.7816164E-02  0.1312668E+00
        -11   -1    0    0    0    0  0.00000000000E+00  0.00000000000E+00  0.45593999997E+02  0.45594000000E+02  0.51100000000E-03 0.  1.
         11   -1    0    0    0    0 -0.00000000000E+00 -0.00000000000E+00 -0.45593999997E+02  0.45594000000E+02  0.51100000000E-03 0. -1.
    9900012    2    1    2    0    0  0.36173266005E+02 -0.85083841489E+01  0.22421548355E+02  0.47787267231E+02  0.19999982611E+02 0.  0.
         12    1    1    2    0    0 -0.36173266005E+02  0.85083841489E+01 -0.22421548355E+02  0.43400732769E+02  0.00000000000E+00 0. -1.
         11    1    3    3    0    0  0.43204264847E+01 -0.27883242521E+01  0.22657988398E+01  0.56191353238E+01  0.51100000000E-03 0. -1.
        -11    1    3    3    0    0  0.19083821179E+02  0.51616902028E+01  0.74646834286E+01  0.21131890012E+02  0.51100000000E-03 0.  1.
        -12    1    3    3    0    0  0.12769018341E+02 -0.10881750100E+02  0.12691066087E+02  0.21036241895E+02  0.00000000000E+00 0.  1.
</event>
<event>
 7    1  0.2599124E-010  0.4778727E+02  0.7816164E-02  0.1312668E+00
        -11   -1    0    0    0    0  0.00000000000E+00  0.00000000000E+00  0.45593999997E+02  0.45594000000E+02  0.51100000000E-03 0. -1.
         11   -1    0    0    0    0 -0.00000000000E+00 -0.00000000000E+00 -0.45593999997E+02  0.45594000000E+02  0.51100000000E-03 0.  1.
    9900012    2    1    2    0    0 -0.19616378068E+02  0.12585829027E+02 -0.36611716171E+02  0.47787272566E+02  0.20000006938E+02 0.  0.
         12    1    1    2    0    0  0.19616378068E+02 -0.12585829027E+02  0.36611716171E+02  0.43400727434E+02  0.00000000000E+00 0. -1.
         11    1    3    3    0    0 -0.11814546303E+02 -0.61377206700E+00 -0.15938785310E+02  0.19849561655E+02  0.51100000000E-03 0. -1.
        -11    1    3    3    0    0 -0.91519623294E+00  0.72539607842E+00 -0.10168453662E+02  0.10235293535E+02  0.51100000000E-03 0.  1.
         12    1    3    3    0    0 -0.68866355328E+01  0.12474205015E+02 -0.10504477199E+02  0.17702417376E+02  0.00000000000E+00 0. -1.
</event>
<event>
 7    1  0.2599124E-010  0.4778727E+02  0.7816164E-02  0.1312668E+00
        -11   -1    0    0    0    0  0.00000000000E+00  0.00000000000E+00  0.45593999997E+02  0.45594000000E+02  0.51100000000E-03 0. -1.
         11   -1    0    0    0    0 -0.00000000000E+00 -0.00000000000E+00 -0.45593999997E+02  0.45594000000E+02  0.51100000000E-03 0.  1.
    9900012    2    1    2    0    0  0.38345486110E+02  0.13653701840E+02 -0.15060661235E+02  0.47787269640E+02  0.19999993595E+02 0.  0.
         12    1    1    2    0    0 -0.38345486110E+02 -0.13653701840E+02  0.15060661235E+02  0.43400730360E+02  0.00000000000E+00 0. -1.
         11    1    3    3    0    0  0.99928159593E+01  0.10248887060E+02 -0.40865953492E+01  0.14886111600E+02  0.51100000000E-03 0. -1.
        -11    1    3    3    0    0  0.88327885645E+01  0.47066365838E+01 -0.85972422228E+01  0.13194057596E+02  0.51100000000E-03 0.  1.
         12    1    3    3    0    0  0.19519881586E+02 -0.13018218032E+01 -0.23768236630E+01  0.19707100443E+02  0.00000000000E+00 0. -1.
</event>
<event>
 7    1  0.2599124E-010  0.4778727E+02  0.7816164E-02  0.1312668E+00
        -11   -1    0    0    0    0  0.00000000000E+00  0.00000000000E+00  0.45593999997E+02  0.45594000000E+02  0.51100000000E-03 0.  1.
         11   -1    0    0    0    0 -0.00000000000E+00 -0.00000000000E+00 -0.45593999997E+02  0.45594000000E+02  0.51100000000E-03 0. -1.
    9900012    2    1    2    0    0 -0.22573301211E+02  0.97180544584E+01  0.35771897783E+02  0.47787272114E+02  0.20000004879E+02 0.  0.
         12    1    1    2    0    0  0.22573301211E+02 -0.97180544584E+01 -0.35771897783E+02  0.43400727886E+02  0.00000000000E+00 0. -1.
         11    1    3    3    0    0 -0.56955018362E+01  0.20846572796E+01  0.91010653216E+01  0.10936815231E+02  0.51100000000E-03 0. -1.
        -11    1    3    3    0    0 -0.16679534258E+02  0.61509269811E+01  0.29039566861E+02  0.34049041242E+02  0.51100000000E-03 0.  1.
         12    1    3    3    0    0 -0.19826511667E+00  0.14824701976E+01 -0.23687343994E+01  0.28014156418E+01  0.00000000000E+00 0. -1.
</event>
<event>
 7    1  0.2599124E-010  0.4778727E+02  0.7816164E-02  0.1312668E+00
        -11   -1    0    0    0    0  0.00000000000E+00  0.00000000000E+00  0.45593999997E+02  0.45594000000E+02  0.51100000000E-03 0.  1.
         11   -1    0    0    0    0 -0.00000000000E+00 -0.00000000000E+00 -0.45593999997E+02  0.45594000000E+02  0.51100000000E-03 0. -1.
    9900012    2    1    2    0    0 -0.36808043919E+02 -0.24217825096E+01  0.22867577166E+02  0.47787271745E+02  0.20000003192E+02 0.  0.
         12    1    1    2    0    0  0.36808043919E+02  0.24217825096E+01 -0.22867577166E+02  0.43400728255E+02  0.00000000000E+00 0. -1.
         11    1    3    3    0    0 -0.36062354386E+01 -0.41940703795E+01 -0.56621211709E+00  0.55601939543E+01  0.51100000000E-03 0. -1.
        -11    1    3    3    0    0 -0.16994627925E+02 -0.34166697494E+01  0.74075900489E+01  0.18851084878E+02  0.51100000000E-03 0.  1.
        -12    1    3    3    0    0 -0.16207180555E+02  0.51889576193E+01  0.16026199235E+02  0.23375992912E+02  0.00000000000E+00 0.  1.
</event>
<event>
 7    1  0.2599124E-010  0.4778727E+02  0.7816164E-02  0.1312668E+00
        -11   -1    0    0    0    0  0.00000000000E+00  0.00000000000E+00  0.45593999997E+02  0.45594000000E+02  0.51100000000E-03 0.  1.
         11   -1    0    0    0    0 -0.00000000000E+00 -0.00000000000E+00 -0.45593999997E+02  0.45594000000E+02  0.51100000000E-03 0. -1.
    9900012    2    1    2    0    0 -0.15833712033E+02  0.27079448644E+02  0.29993668696E+02  0.47787272616E+02  0.20000007166E+02 0.  0.
         12    1    1    2    0    0  0.15833712033E+02 -0.27079448644E+02 -0.29993668696E+02  0.43400727384E+02  0.00000000000E+00 0. -1.
         11    1    3    3    0    0 -0.14778531455E+01  0.15406561402E+02  0.19767184638E+02  0.25105532715E+02  0.51100000000E-03 0. -1.
        -11    1    3    3    0    0 -0.88928426334E+00 -0.11538136776E+01  0.16521948134E+01  0.22026939112E+01  0.51100000000E-03 0.  1.
         12    1    3    3    0    0 -0.13466574624E+02  0.12826700919E+02  0.85742892452E+01  0.20479045989E+02  0.00000000000E+00 0. -1.
</event>
<event>
 7    1  0.2599124E-010  0.4778727E+02  0.7816164E-02  0.1312668E+00
        -11   -1    0    0    0    0  0.00000000000E+00  0.00000000000E+00  0.45593999997E+02  0.45594000000E+02  0.51100000000E-03 0. -1.
         11   -1    0    0    0    0 -0.00000000000E+00 -0.00000000000E+00 -0.45593999997E+02  0.45594000000E+02  0.51100000000E-03 0.  1.
    9900012    2    1    2    0    0 -0.11623165130E+00  0.30134605167E+02 -0.31233243326E+02  0.47787269280E+02  0.19999991955E+02 0.  0.
         12    1    1    2    0    0  0.11623165130E+00 -0.30134605167E+02  0.31233243326E+02  0.43400730720E+02  0.00000000000E+00 0. -1.
         11    1    3    3    0    0 -0.20913956553E+01  0.52747854198E+01 -0.28777045852E+01  0.63622701100E+01  0.51100000000E-03 0. -1.
        -11    1    3    3    0    0 -0.65109004659E+01  0.80671853437E+01 -0.15463186456E+02  0.18616697878E+02  0.51100000000E-03 0.  1.
         12    1    3    3    0    0  0.84860644699E+01  0.16792634403E+02 -0.12892352285E+02  0.22808301292E+02  0.00000000000E+00 0. -1.
</event>
<event>
 7    1  0.2599124E-010  0.4778727E+02  0.7816164E-02  0.1312668E+00
        -11   -1    0    0    0    0  0.00000000000E+00  0.00000000000E+00  0.45593999997E+02  0.45594000000E+02  0.51100000000E-03 0.  1.
         11   -1    0    0    0    0 -0.00000000000E+00 -0.00000000000E+00 -0.45593999997E+02  0.45594000000E+02  0.51100000000E-03 0. -1.
    9900012    2    1    2    0    0 -0.33348076689E+02 -0.96415520931E+01  0.26049370036E+02  0.47787269305E+02  0.19999992069E+02 0.  0.
         12    1    1    2    0    0  0.33348076689E+02  0.96415520931E+01 -0.26049370036E+02  0.43400730695E+02  0.00000000000E+00 0. -1.
         11    1    3    3    0    0 -0.12744858111E+02  0.12901987506E+01  0.25777704717E+01  0.13066786979E+02  0.51100000000E-03 0. -1.
        -11    1    3    3    0    0 -0.36975647025E+01  0.13879282394E+01  0.72253919952E+01  0.82343560326E+01  0.51100000000E-03 0.  1.
        -12    1    3    3    0    0 -0.16905653875E+02 -0.12319679083E+02  0.16246207569E+02  0.26486126294E+02  0.00000000000E+00 0.  1.
</event>
<event>
 7    1  0.2599124E-010  0.4778727E+02  0.7816164E-02  0.1312668E+00
        -11   -1    0    0    0    0  0.00000000000E+00  0.00000000000E+00  0.45593999997E+02  0.45594000000E+02  0.51100000000E-03 0. -1.
         11   -1    0    0    0    0 -0.00000000000E+00 -0.00000000000E+00 -0.45593999997E+02  0.45594000000E+02  0.51100000000E-03 0.  1.
    9900012    2    1    2    0    0 -0.70066179002E+01 -0.15850762080E+02 -0.39790506128E+02  0.47787265780E+02  0.19999975996E+02 0.  0.
         12    1    1    2    0    0  0.70066179002E+01  0.15850762080E+02  0.39790506128E+02  0.43400734220E+02  0.00000000000E+00 0. -1.
         11    1    3    3    0    0 -0.38252762375E+01 -0.90226074327E+01 -0.23154098029E+02  0.25142641845E+02  0.51100000000E-03 0. -1.
        -11    1    3    3    0    0 -0.53158405507E+01 -0.99699978380E+01 -0.14138646529E+02  0.18098628224E+02  0.51100000000E-03 0.  1.
         12    1    3    3    0    0  0.21344988880E+01  0.31418431908E+01 -0.24977615703E+01  0.45459957106E+01  0.00000000000E+00 0. -1.
</event>
<event>
 7    1  0.2599124E-010  0.4778727E+02  0.7816164E-02  0.1312668E+00
        -11   -1    0    0    0    0  0.00000000000E+00  0.00000000000E+00  0.45593999997E+02  0.45594000000E+02  0.51100000000E-03 0.  1.
         11   -1    0    0    0    0 -0.00000000000E+00 -0.00000000000E+00 -0.45593999997E+02  0.45594000000E+02  0.51100000000E-03 0. -1.
    9900012    2    1    2    0    0  0.11293290880E+02  0.50549791002E+01  0.41599664676E+02  0.47787270355E+02  0.19999996854E+02 0.  0.
         12    1    1    2    0    0 -0.11293290880E+02 -0.50549791002E+01 -0.41599664676E+02  0.43400729645E+02  0.00000000000E+00 0. -1.
         11    1    3    3    0    0  0.38086115873E+01 -0.24612996480E+01  0.18766417967E+01  0.49076779514E+01  0.51100000000E-03 0. -1.
        -11    1    3    3    0    0  0.30149159036E+00 -0.31988414997E+01  0.90904440870E+01  0.96415589030E+01  0.51100000000E-03 0.  1.
        -12    1    3    3    0    0  0.71831877027E+01  0.10715120248E+02  0.30632578792E+02  0.33238033500E+02  0.00000000000E+00 0.  1.
</event>
<event>
 7    1  0.2599124E-010  0.4778726E+02  0.7816164E-02  0.1312668E+00
        -11   -1    0    0    0    0  0.00000000000E+00  0.00000000000E+00  0.45593999997E+02  0.45594000000E+02  0.51100000000E-03 0. -1.
         11   -1    0    0    0    0 -0.00000000000E+00 -0.00000000000E+00 -0.45593999997E+02  0.45594000000E+02  0.51100000000E-03 0.  1.
    9900012    2    1    2    0    0  0.21224243501E+02 -0.17821692195E+02 -0.33399746043E+02  0.47787259677E+02  0.19999948170E+02 0.  0.
         12    1    1    2    0    0 -0.21224243501E+02  0.17821692195E+02  0.33399746043E+02  0.43400740323E+02  0.00000000000E+00 0. -1.
         11    1    3    3    0    0 -0.17168073215E+01 -0.16259731589E+00  0.55324225750E-02  0.17244988069E+01  0.51100000000E-03 0. -1.
        -11    1    3    3    0    0  0.27498655589E+01  0.51595282315E+00 -0.94079504831E+01  0.98151668585E+01  0.51100000000E-03 0.  1.
         12    1    3    3    0    0  0.20191185264E+02 -0.18175047702E+02 -0.23997327982E+02  0.36247594011E+02  0.00000000000E+00 0. -1.
</event>
<event>
 7    1  0.2599124E-010  0.4778727E+02  0.7816164E-02  0.1312668E+00
        -11   -1    0    0    0    0  0.00000000000E+00  0.00000000000E+00  0.45593999997E+02  0.45594000000E+02  0.51100000000E-03 0.  1.
         11   -1    0    0    0    0 -0.00000000000E+00 -0.00000000000E+00 -0.45593999997E+02  0.45594000000E+02  0.51100000000E-03 0. -1.
    9900012    2    1    2    0    0 -0.17441694851E+02 -0.26036107514E+02  0.30025517640E+02  0.47787270475E+02  0.19999997403E+02 0.  0.
         12    1    1    2    0    0  0.17441694851E+02  0.26036107514E+02 -0.30025517640E+02  0.43400729525E+02  0.00000000000E+00 0. -1.
         11    1    3    3    0    0  0.24332531620E+01 -0.18600003866E+00  0.52060861869E+01  0.57496652608E+01  0.51100000000E-03 0. -1.
        -11    1    3    3    0    0 -0.31636492408E+01 -0.11386705506E+02  0.91258775248E+01  0.14931422560E+02  0.51100000000E-03 0.  1.
         12    1    3    3    0    0 -0.16711298772E+02 -0.14463401969E+02  0.15693553928E+02  0.27106182654E+02  0.00000000000E+00 0. -1.
</event>
<event>
 7    1  0.2599124E-010  0.4778727E+02  0.7816164E-02  0.1312668E+00
        -11   -1    0    0    0    0  0.00000000000E+00  0.00000000000E+00  0.45593999997E+02  0.45594000000E+02  0.51100000000E-03 0.  1.
         11   -1    0    0    0    0 -0.00000000000E+00 -0.00000000000E+00 -0.45593999997E+02  0.45594000000E+02  0.51100000000E-03 0. -1.
    9900012    2    1    2    0    0  0.29484233911E+02  0.26938981050E+02  0.16988065709E+02  0.47787272749E+02  0.20000007774E+02 0.  0.
         12    1    1    2    0    0 -0.29484233911E+02 -0.26938981050E+02 -0.16988065709E+02  0.43400727251E+02  0.00000000000E+00 0. -1.
         11    1    3    3    0    0  0.97118940975E+00 -0.94990105480E+00  0.40523198143E+01  0.42739697030E+01  0.51100000000E-03 0. -1.
        -11    1    3    3    0    0  0.27370235677E+02  0.22702107730E+02  0.84233514831E+01  0.36544060350E+02  0.51100000000E-03 0.  1.
         12    1    3    3    0    0  0.11428088236E+01  0.51867743757E+01  0.45123944119E+01  0.69692426963E+01  0.00000000000E+00 0. -1.
</event>
<event>
 7    1  0.2599124E-010  0.4778727E+02  0.7816164E-02  0.1312668E+00
        -11   -1    0    0    0    0  0.00000000000E+00  0.00000000000E+00  0.45593999997E+02  0.45594000000E+02  0.51100000000E-03 0.  1.
         11   -1    0    0    0    0 -0.00000000000E+00 -0.00000000000E+00 -0.45593999997E+02  0.45594000000E+02  0.51100000000E-03 0. -1.
    9900012    2    1    2    0    0 -0.32793313358E+02  0.28386159142E+02  0.15646519444E+01  0.47787267661E+02  0.19999984574E+02 0.  0.
         12    1    1    2    0    0  0.32793313358E+02 -0.28386159142E+02 -0.15646519444E+01  0.43400732339E+02  0.00000000000E+00 0. -1.
         11    1    3    3    0    0 -0.97899815180E+01  0.56625011632E+01 -0.39921155830E+01  0.11993525113E+02  0.51100000000E-03 0. -1.
        -11    1    3    3    0    0 -0.65222027080E+01  0.35708111159E+01 -0.43942939244E+01  0.86371082860E+01  0.51100000000E-03 0.  1.
        -12    1    3    3    0    0 -0.16481129132E+02  0.19152846863E+02  0.99510614518E+01  0.27156634262E+02  0.00000000000E+00 0.  1.
</event>
<event>
 7    1  0.2599124E-010  0.4778728E+02  0.7816164E-02  0.1312668E+00
        -11   -1    0    0    0    0  0.00000000000E+00  0.00000000000E+00  0.45593999997E+02  0.45594000000E+02  0.51100000000E-03 0.  1.
         11   -1    0    0    0    0 -0.00000000000E+00 -0.00000000000E+00 -0.45593999997E+02  0.45594000000E+02  0.51100000000E-03 0. -1.
    9900012    2    1    2    0    0  0.39790626926E+02 -0.17253808139E+02  0.16232679477E+01  0.47787275521E+02  0.20000020409E+02 0.  0.
         12    1    1    2    0    0 -0.39790626926E+02  0.17253808139E+02 -0.16232679477E+01  0.43400724479E+02  0.00000000000E+00 0. -1.
         11    1    3    3    0    0  0.26612380226E+01 -0.24692071568E+01  0.11467874889E+01  0.38071371925E+01  0.51100000000E-03 0.  1.
        -11    1    3    3    0    0  0.23894568251E+02 -0.76829839323E+01  0.90554697536E+01  0.26682956484E+02  0.51100000000E-03 0. -1.
         12    1    3    3    0    0  0.13234820653E+02 -0.71016170499E+01 -0.85789892949E+01  0.17297181845E+02  0.00000000000E+00 0. -1.
</event>
<event>
 7    1  0.2599124E-010  0.4778728E+02  0.7816164E-02  0.1312668E+00
        -11   -1    0    0    0    0  0.00000000000E+00  0.00000000000E+00  0.45593999997E+02  0.45594000000E+02  0.51100000000E-03 0.  1.
         11   -1    0    0    0    0 -0.00000000000E+00 -0.00000000000E+00 -0.45593999997E+02  0.45594000000E+02  0.51100000000E-03 0. -1.
    9900012    2    1    2    0    0 -0.43515878446E+01 -0.95191444503E+01  0.42119733385E+02  0.47787281478E+02  0.20000047571E+02 0.  0.
         12    1    1    2    0    0  0.43515878446E+01  0.95191444503E+01 -0.42119733385E+02  0.43400718522E+02  0.00000000000E+00 0. -1.
         11    1    3    3    0    0  0.22487357746E+01 -0.32855992865E+01  0.61002617847E+01  0.72845843641E+01  0.51100000000E-03 0. -1.
        -11    1    3    3    0    0  0.13419383170E+01 -0.14600340218E+01  0.28500791101E+02  0.28569697083E+02  0.51100000000E-03 0.  1.
         12    1    3    3    0    0 -0.79422619361E+01 -0.47735111420E+01  0.75186804990E+01  0.11933000031E+02  0.00000000000E+00 0. -1.
</event>
<event>
 7    1  0.2599124E-010  0.4778727E+02  0.7816164E-02  0.1312668E+00
        -11   -1    0    0    0    0  0.00000000000E+00  0.00000000000E+00  0.45593999997E+02  0.45594000000E+02  0.51100000000E-03 0. -1.
         11   -1    0    0    0    0 -0.00000000000E+00 -0.00000000000E+00 -0.45593999997E+02  0.45594000000E+02  0.51100000000E-03 0.  1.
    9900012    2    1    2    0    0 -0.25427092343E+02  0.29439818558E+02 -0.19245343641E+02  0.47787271969E+02  0.20000004216E+02 0.  0.
         12    1    1    2    0    0  0.25427092343E+02 -0.29439818558E+02  0.19245343641E+02  0.43400728031E+02  0.00000000000E+00 0. -1.
         11    1    3    3    0    0 -0.51732218082E+01 -0.89372282055E-01 -0.21646067834E+01  0.56085411712E+01  0.51100000000E-03 0. -1.
        -11    1    3    3    0    0 -0.14615167713E+02  0.15681030041E+02 -0.30085424028E+01  0.21645996352E+02  0.51100000000E-03 0.  1.
         12    1    3    3    0    0 -0.56387028215E+01  0.13848160799E+02 -0.14072194455E+02  0.20532734446E+02  0.00000000000E+00 0. -1.
</event>
<event>
 7    1  0.2599124E-010  0.4778727E+02  0.7816164E-02  0.1312668E+00
        -11   -1    0    0    0    0  0.00000000000E+00  0.00000000000E+00  0.45593999997E+02  0.45594000000E+02  0.51100000000E-03 0.  1.
         11   -1    0    0    0    0 -0.00000000000E+00 -0.00000000000E+00 -0.45593999997E+02  0.45594000000E+02  0.51100000000E-03 0. -1.
    9900012    2    1    2    0    0 -0.55461316480E+01  0.22410996359E+02  0.36750657330E+02  0.47787272491E+02  0.20000006597E+02 0.  0.
         12    1    1    2    0    0  0.55461316480E+01 -0.22410996359E+02 -0.36750657330E+02  0.43400727509E+02  0.00000000000E+00 0. -1.
         11    1    3    3    0    0 -0.29105187616E+01 -0.12666133262E+01  0.23081705917E+01  0.39246758493E+01  0.51100000000E-03 0. -1.
        -11    1    3    3    0    0 -0.54655885510E+01  0.83480104589E+01  0.21112977507E+02  0.23352082483E+02  0.51100000000E-03 0.  1.
         12    1    3    3    0    0  0.28299756647E+01  0.15329599226E+02  0.13329509232E+02  0.20510514159E+02  0.00000000000E+00 0. -1.
</event>
<event>
 7    1  0.2599124E-010  0.4778727E+02  0.7816164E-02  0.1312668E+00
        -11   -1    0    0    0    0  0.00000000000E+00  0.00000000000E+00  0.45593999997E+02  0.45594000000E+02  0.51100000000E-03 0.  1.
         11   -1    0    0    0    0 -0.00000000000E+00 -0.00000000000E+00 -0.45593999997E+02  0.45594000000E+02  0.51100000000E-03 0. -1.
    9900012    2    1    2    0    0 -0.63768747234E+01 -0.20133774088E+02  0.37915565698E+02  0.47787268296E+02  0.19999987469E+02 0.  0.
         12    1    1    2    0    0  0.63768747234E+01  0.20133774088E+02 -0.37915565698E+02  0.43400731704E+02  0.00000000000E+00 0. -1.
         11    1    3    3    0    0 -0.67273421353E+01 -0.12696581477E+02  0.19614638256E+02  0.24314488430E+02  0.51100000000E-03 0. -1.
        -11    1    3    3    0    0 -0.32728783593E+00 -0.91752015586E+01  0.58578269478E+01  0.10890618797E+02  0.51100000000E-03 0.  1.
         12    1    3    3    0    0  0.67775524786E+00  0.17380089483E+01  0.12443100494E+02  0.12582161070E+02  0.00000000000E+00 0. -1.
</event>
<event>
 7    1  0.2599124E-010  0.4778727E+02  0.7816164E-02  0.1312668E+00
        -11   -1    0    0    0    0  0.00000000000E+00  0.00000000000E+00  0.45593999997E+02  0.45594000000E+02  0.51100000000E-03 0. -1.
         11   -1    0    0    0    0 -0.00000000000E+00 -0.00000000000E+00 -0.45593999997E+02  0.45594000000E+02  0.51100000000E-03 0.  1.
    9900012    2    1    2    0    0 -0.41065975400E+02 -0.57041744604E+00 -0.14031515219E+02  0.47787272691E+02  0.20000007506E+02 0.  0.
         12    1    1    2    0    0  0.41065975400E+02  0.57041744604E+00  0.14031515219E+02  0.43400727309E+02  0.00000000000E+00 0. -1.
         11    1    3    3    0    0 -0.10595455043E+02 -0.75106259792E+00 -0.34258464937E+01  0.11160832723E+02  0.51100000000E-03 0. -1.
        -11    1    3    3    0    0 -0.16701202515E+02 -0.83152967022E+01 -0.36267744812E+01  0.19005994268E+02  0.51100000000E-03 0.  1.
         12    1    3    3    0    0 -0.13769317842E+02  0.84959418541E+01 -0.69788942445E+01  0.17620445701E+02  0.00000000000E+00 0. -1.
</event>
<event>
 7    1  0.2599124E-010  0.4778728E+02  0.7816164E-02  0.1312668E+00
        -11   -1    0    0    0    0  0.00000000000E+00  0.00000000000E+00  0.45593999997E+02  0.45594000000E+02  0.51100000000E-03 0. -1.
         11   -1    0    0    0    0 -0.00000000000E+00 -0.00000000000E+00 -0.45593999997E+02  0.45594000000E+02  0.51100000000E-03 0.  1.
    9900012    2    1    2    0    0  0.20165314105E+02 -0.37778026088E+02 -0.70571742454E+01  0.47787275854E+02  0.20000021929E+02 0.  0.
         12    1    1    2    0    0 -0.20165314105E+02  0.37778026088E+02  0.70571742454E+01  0.43400724146E+02  0.00000000000E+00 0. -1.
         11    1    3    3    0    0  0.50755343205E+01 -0.40885701698E+01  0.24379905364E+01  0.69585381215E+01  0.51100000000E-03 0. -1.
        -11    1    3    3    0    0 -0.42004969099E+00 -0.68956101428E+01  0.28843065654E+01  0.74863279122E+01  0.51100000000E-03 0.  1.
        -12    1    3    3    0    0  0.15509829476E+02 -0.26793845775E+02 -0.12379471347E+02  0.33342409820E+02  0.00000000000E+00 0.  1.
</event>
<event>
 7    1  0.2599124E-010  0.4778727E+02  0.7816164E-02  0.1312668E+00
        -11   -1    0    0    0    0  0.00000000000E+00  0.00000000000E+00  0.45593999997E+02  0.45594000000E+02  0.51100000000E-03 0.  1.
         11   -1    0    0    0    0 -0.00000000000E+00 -0.00000000000E+00 -0.45593999997E+02  0.45594000000E+02  0.51100000000E-03 0. -1.
    9900012    2    1    2    0    0 -0.52606170438E+01  0.29359403655E+02  0.31527361128E+02  0.47787272191E+02  0.20000005228E+02 0.  0.
         12    1    1    2    0    0  0.52606170438E+01 -0.29359403655E+02 -0.31527361128E+02  0.43400727809E+02  0.00000000000E+00 0. -1.
         11    1    3    3    0    0 -0.24066204222E+01 -0.88706114636E+00  0.68596190154E+00  0.26550411156E+01  0.51100000000E-03 0. -1.
        -11    1    3    3    0    0 -0.62379772070E+01  0.67975083193E+01  0.95579476963E+01  0.13284308165E+02  0.51100000000E-03 0.  1.
         12    1    3    3    0    0  0.33839805855E+01  0.23448956482E+02  0.21283451530E+02  0.31847922911E+02  0.00000000000E+00 0. -1.
</event>
<event>
 7    1  0.2599124E-010  0.4778729E+02  0.7816164E-02  0.1312668E+00
        -11   -1    0    0    0    0  0.00000000000E+00  0.00000000000E+00  0.45593999997E+02  0.45594000000E+02  0.51100000000E-03 0. -1.
         11   -1    0    0    0    0 -0.00000000000E+00 -0.00000000000E+00 -0.45593999997E+02  0.45594000000E+02  0.51100000000E-03 0.  1.
    9900012    2    1    2    0    0  0.33453287499E+02  0.14683695427E+02 -0.23428371126E+02  0.47787286533E+02  0.20000070617E+02 0.  0.
         12    1    1    2    0    0 -0.33453287499E+02 -0.14683695427E+02  0.23428371126E+02  0.43400713467E+02  0.00000000000E+00 0. -1.
         11    1    3    3    0    0  0.19267523815E+02  0.13192218083E+02 -0.14788392613E+02  0.27639982783E+02  0.51100000000E-03 0. -1.
        -11    1    3    3    0    0  0.76115303741E+01  0.91675647335E+00  0.17264620315E+01  0.78585309361E+01  0.51100000000E-03 0.  1.
        -12    1    3    3    0    0  0.65742333095E+01  0.57472087009E+00 -0.10366440545E+02  0.12288772813E+02  0.00000000000E+00 0.  1.
</event>
<event>
 7    1  0.2599124E-010  0.4778727E+02  0.7816164E-02  0.1312668E+00
        -11   -1    0    0    0    0  0.00000000000E+00  0.00000000000E+00  0.45593999997E+02  0.45594000000E+02  0.51100000000E-03 0.  1.
         11   -1    0    0    0    0 -0.00000000000E+00 -0.00000000000E+00 -0.45593999997E+02  0.45594000000E+02  0.51100000000E-03 0. -1.
    9900012    2    1    2    0    0  0.27584769586E+02  0.26732541823E+02  0.20200865992E+02  0.47787270833E+02  0.19999999035E+02 0.  0.
         12    1    1    2    0    0 -0.27584769586E+02 -0.26732541823E+02 -0.20200865992E+02  0.43400729167E+02  0.00000000000E+00 0. -1.
         11    1    3    3    0    0  0.68430948997E+01  0.49639555385E+01  0.22810975121E+01  0.87562668139E+01  0.51100000000E-03 0. -1.
        -11    1    3    3    0    0  0.83541785489E+01  0.18869401309E+02  0.57424391567E+01  0.21420135684E+02  0.51100000000E-03 0.  1.
         12    1    3    3    0    0  0.12387496138E+02  0.28991849752E+01  0.12177329323E+02  0.17610868335E+02  0.00000000000E+00 0. -1.
</event>
<event>
 7    1  0.2599124E-010  0.4778727E+02  0.7816164E-02  0.1312668E+00
        -11   -1    0    0    0    0  0.00000000000E+00  0.00000000000E+00  0.45593999997E+02  0.45594000000E+02  0.51100000000E-03 0. -1.
         11   -1    0    0    0    0 -0.00000000000E+00 -0.00000000000E+00 -0.45593999997E+02  0.45594000000E+02  0.51100000000E-03 0.  1.
    9900012    2    1    2    0    0  0.37139206697E+02  0.19694277184E+02  0.10790642490E+02  0.47787271974E+02  0.20000004237E+02 0.  0.
         12    1    1    2    0    0 -0.37139206697E+02 -0.19694277184E+02 -0.10790642490E+02  0.43400728026E+02  0.00000000000E+00 0. -1.
         11    1    3    3    0    0  0.22914748559E+01  0.28450066540E+00 -0.32588703689E+01  0.39939997479E+01  0.51100000000E-03 0. -1.
        -11    1    3    3    0    0  0.41492749044E+01  0.65864894892E+01  0.52193426907E+01  0.93722923774E+01  0.51100000000E-03 0.  1.
        -12    1    3    3    0    0  0.30698456937E+02  0.12823287029E+02  0.88301701679E+01  0.34420979848E+02  0.00000000000E+00 0.  1.
</event>
<event>
 7    1  0.2599124E-010  0.4778727E+02  0.7816164E-02  0.1312668E+00
        -11   -1    0    0    0    0  0.00000000000E+00  0.00000000000E+00  0.45593999997E+02  0.45594000000E+02  0.51100000000E-03 0.  1.
         11   -1    0    0    0    0 -0.00000000000E+00 -0.00000000000E+00 -0.45593999997E+02  0.45594000000E+02  0.51100000000E-03 0. -1.
    9900012    2    1    2    0    0 -0.44775013707E+01  0.11901655306E+02  0.41496090584E+02  0.47787274761E+02  0.20000016944E+02 0.  0.
         12    1    1    2    0    0  0.44775013707E+01 -0.11901655306E+02 -0.41496090584E+02  0.43400725239E+02  0.00000000000E+00 0. -1.
         11    1    3    3    0    0 -0.89103201266E+00  0.10370729669E+02  0.19018872302E+02  0.21680947299E+02  0.51100000000E-03 0. -1.
        -11    1    3    3    0    0 -0.51485887795E+01  0.57771148931E+01  0.18608528771E+02  0.20153420707E+02  0.51100000000E-03 0.  1.
        -12    1    3    3    0    0  0.15621194214E+01 -0.42461892565E+01  0.38686895117E+01  0.59529067544E+01  0.00000000000E+00 0.  1.
</event>
<event>
 7    1  0.2599124E-010  0.4778727E+02  0.7816164E-02  0.1312668E+00
        -11   -1    0    0    0    0  0.00000000000E+00  0.00000000000E+00  0.45593999997E+02  0.45594000000E+02  0.51100000000E-03 0.  1.
         11   -1    0    0    0    0 -0.00000000000E+00 -0.00000000000E+00 -0.45593999997E+02  0.45594000000E+02  0.51100000000E-03 0. -1.
    9900012    2    1    2    0    0 -0.11337460452E+02  0.79016243104E+00  0.41886286792E+02  0.47787269736E+02  0.19999994037E+02 0.  0.
         12    1    1    2    0    0  0.11337460452E+02 -0.79016243104E+00 -0.41886286792E+02  0.43400730264E+02  0.00000000000E+00 0. -1.
         11    1    3    3    0    0  0.30421473912E+01  0.14688703967E+01  0.44962220763E+01  0.56239002669E+01  0.51100000000E-03 0. -1.
        -11    1    3    3    0    0 -0.67280643210E+01  0.40450470585E+01  0.28333151301E+02  0.29400624451E+02  0.51100000000E-03 0.  1.
         12    1    3    3    0    0 -0.76515435220E+01 -0.47237550241E+01  0.90569134146E+01  0.12762745018E+02  0.00000000000E+00 0. -1.
</event>
<event>
 7    1  0.2599124E-010  0.4778728E+02  0.7816164E-02  0.1312668E+00
        -11   -1    0    0    0    0  0.00000000000E+00  0.00000000000E+00  0.45593999997E+02  0.45594000000E+02  0.51100000000E-03 0.  1.
         11   -1    0    0    0    0 -0.00000000000E+00 -0.00000000000E+00 -0.45593999997E+02  0.45594000000E+02  0.51100000000E-03 0. -1.
    9900012    2    1    2    0    0  0.13369818922E+02 -0.16125346642E+02  0.38011101469E+02  0.47787277688E+02  0.20000030290E+02 0.  0.
         12    1    1    2    0    0 -0.13369818922E+02  0.16125346642E+02 -0.38011101469E+02  0.43400722312E+02  0.00000000000E+00 0. -1.
         11    1    3    3    0    0 -0.25162042313E+01 -0.15416506607E+00  0.13063464806E+01  0.28392942767E+01  0.51100000000E-03 0. -1.
        -11    1    3    3    0    0 -0.99837601911E+00 -0.69310199068E+00  0.90213458989E+01  0.91028471993E+01  0.51100000000E-03 0.  1.
        -12    1    3    3    0    0  0.16884399172E+02 -0.15278079585E+02  0.27683409090E+02  0.35845136212E+02  0.00000000000E+00 0.  1.
</event>
<event>
 7    1  0.2599124E-010  0.4778727E+02  0.7816164E-02  0.1312668E+00
        -11   -1    0    0    0    0  0.00000000000E+00  0.00000000000E+00  0.45593999997E+02  0.45594000000E+02  0.51100000000E-03 0.  1.
         11   -1    0    0    0    0 -0.00000000000E+00 -0.00000000000E+00 -0.45593999997E+02  0.45594000000E+02  0.51100000000E-03 0. -1.
    9900012    2    1    2    0    0 -0.28432729658E+02  0.22615913953E+02  0.23742859696E+02  0.47787273437E+02  0.20000010907E+02 0.  0.
         12    1    1    2    0    0  0.28432729658E+02 -0.22615913953E+02 -0.23742859696E+02  0.43400726563E+02  0.00000000000E+00 0. -1.
         11    1    3    3    0    0 -0.25689231683E+00  0.33048833665E+01  0.32570810809E+01  0.46472384442E+01  0.51100000000E-03 0. -1.
        -11    1    3    3    0    0 -0.12462239805E+02  0.15833833210E+02  0.17673521992E+02  0.26802445316E+02  0.51100000000E-03 0.  1.
         12    1    3    3    0    0 -0.15713597536E+02  0.34771973765E+01  0.28122566230E+01  0.16337589676E+02  0.00000000000E+00 0. -1.
</event>
<event>
 7    1  0.2599124E-010  0.4778727E+02  0.7816164E-02  0.1312668E+00
        -11   -1    0    0    0    0  0.00000000000E+00  0.00000000000E+00  0.45593999997E+02  0.45594000000E+02  0.51100000000E-03 0.  1.
         11   -1    0    0    0    0 -0.00000000000E+00 -0.00000000000E+00 -0.45593999997E+02  0.45594000000E+02  0.51100000000E-03 0. -1.
    9900012    2    1    2    0    0  0.41410528467E+02  0.75195121520E+01 -0.10594747469E+02  0.47787267231E+02  0.19999982614E+02 0.  0.
         12    1    1    2    0    0 -0.41410528467E+02 -0.75195121520E+01  0.10594747469E+02  0.43400732769E+02  0.00000000000E+00 0. -1.
         11    1    3    3    0    0  0.18508968366E+02  0.58507135453E+01 -0.11511131676E+02  0.22568094995E+02  0.51100000000E-03 0. -1.
        -11    1    3    3    0    0  0.14856005865E+02 -0.82999443984E-01 -0.43071570184E+01  0.15468012187E+02  0.51100000000E-03 0.  1.
         12    1    3    3    0    0  0.80455542356E+01  0.17517980507E+01  0.52235412259E+01  0.97511600493E+01  0.00000000000E+00 0. -1.
</event>
<event>
 7    1  0.2599124E-010  0.4778727E+02  0.7816164E-02  0.1312668E+00
        -11   -1    0    0    0    0  0.00000000000E+00  0.00000000000E+00  0.45593999997E+02  0.45594000000E+02  0.51100000000E-03 0.  1.
         11   -1    0    0    0    0 -0.00000000000E+00 -0.00000000000E+00 -0.45593999997E+02  0.45594000000E+02  0.51100000000E-03 0. -1.
    9900012    2    1    2    0    0  0.42897246314E+02  0.49262127034E+01 -0.43797661636E+01  0.47787266543E+02  0.19999979478E+02 0.  0.
         12    1    1    2    0    0 -0.42897246314E+02 -0.49262127034E+01  0.43797661636E+01  0.43400733457E+02  0.00000000000E+00 0. -1.
         11    1    3    3    0    0  0.25324340160E+01  0.19222166807E+01  0.26740486681E+01  0.41543562141E+01  0.51100000000E-03 0. -1.
        -11    1    3    3    0    0  0.18227758203E+01  0.40264304362E+01 -0.15643819608E+01  0.46884906878E+01  0.51100000000E-03 0.  1.
        -12    1    3    3    0    0  0.38542036478E+02 -0.10224344136E+01 -0.54894328710E+01  0.38944419642E+02  0.00000000000E+00 0.  1.
</event>
<event>
 7    1  0.2599124E-010  0.4778725E+02  0.7816164E-02  0.1312668E+00
        -11   -1    0    0    0    0  0.00000000000E+00  0.00000000000E+00  0.45593999997E+02  0.45594000000E+02  0.51100000000E-03 0.  1.
         11   -1    0    0    0    0 -0.00000000000E+00 -0.00000000000E+00 -0.45593999997E+02  0.45594000000E+02  0.51100000000E-03 0. -1.
    9900012    2    1    2    0    0 -0.88248102625E+01  0.25359192263E+02  0.34097785241E+02  0.47787252694E+02  0.19999916333E+02 0.  0.
         12    1    1    2    0    0  0.88248102625E+01 -0.25359192263E+02 -0.34097785241E+02  0.43400747306E+02  0.00000000000E+00 0. -1.
         11    1    3    3    0    0 -0.35125933030E+00  0.37411380406E+01  0.40941582934E+00  0.37798304907E+01  0.51100000000E-03 0. -1.
        -11    1    3    3    0    0 -0.55564537249E+01  0.23701839797E+02  0.26563690545E+02  0.36031667230E+02  0.51100000000E-03 0.  1.
         12    1    3    3    0    0 -0.29170972073E+01 -0.20837855748E+01  0.71246788667E+01  0.79757549732E+01  0.00000000000E+00 0. -1.
</event>
<event>
 7    1  0.2599124E-010  0.4778727E+02  0.7816164E-02  0.1312668E+00
        -11   -1    0    0    0    0  0.00000000000E+00  0.00000000000E+00  0.45593999997E+02  0.45594000000E+02  0.51100000000E-03 0.  1.
         11   -1    0    0    0    0 -0.00000000000E+00 -0.00000000000E+00 -0.45593999997E+02  0.45594000000E+02  0.51100000000E-03 0. -1.
    9900012    2    1    2    0    0 -0.13810680427E+02  0.20296303572E+02  0.35790344284E+02  0.47787267558E+02  0.19999984103E+02 0.  0.
         12    1    1    2    0    0  0.13810680427E+02 -0.20296303572E+02 -0.35790344284E+02  0.43400732442E+02  0.00000000000E+00 0. -1.
         11    1    3    3    0    0 -0.41719131667E+01  0.55735253681E+01  0.16422863786E+02  0.17837586712E+02  0.51100000000E-03 0. -1.
        -11    1    3    3    0    0 -0.12871407234E+02  0.12436115953E+02  0.18787078533E+02  0.25947724838E+02  0.51100000000E-03 0.  1.
         12    1    3    3    0    0  0.32326399738E+01  0.22866622512E+01  0.58040196453E+00  0.40019560082E+01  0.00000000000E+00 0. -1.
</event>
<event>
 7    1  0.2599124E-010  0.4778726E+02  0.7816164E-02  0.1312668E+00
        -11   -1    0    0    0    0  0.00000000000E+00  0.00000000000E+00  0.45593999997E+02  0.45594000000E+02  0.51100000000E-03 0.  1.
         11   -1    0    0    0    0 -0.00000000000E+00 -0.00000000000E+00 -0.45593999997E+02  0.45594000000E+02  0.51100000000E-03 0. -1.
    9900012    2    1    2    0    0 -0.37151883939E+01 -0.33712936441E+02  0.27078763717E+02  0.47787260920E+02  0.19999953837E+02 0.  0.
         12    1    1    2    0    0  0.37151883939E+01  0.33712936441E+02 -0.27078763717E+02  0.43400739080E+02  0.00000000000E+00 0. -1.
         11    1    3    3    0    0 -0.45698847841E+01 -0.45906491226E+01 -0.10589368425E+01  0.65634787883E+01  0.51100000000E-03 0. -1.
        -11    1    3    3    0    0 -0.30981930042E+01 -0.12924118127E+02  0.10364914545E+02  0.16854171087E+02  0.51100000000E-03 0.  1.
         12    1    3    3    0    0  0.39528893944E+01 -0.16198169191E+02  0.17772786015E+02  0.24369611044E+02  0.00000000000E+00 0. -1.
</event>
<event>
 7    1  0.2599124E-010  0.4778727E+02  0.7816164E-02  0.1312668E+00
        -11   -1    0    0    0    0  0.00000000000E+00  0.00000000000E+00  0.45593999997E+02  0.45594000000E+02  0.51100000000E-03 0.  1.
         11   -1    0    0    0    0 -0.00000000000E+00 -0.00000000000E+00 -0.45593999997E+02  0.45594000000E+02  0.51100000000E-03 0. -1.
    9900012    2    1    2    0    0  0.33074763895E+02 -0.68764072844E+01  0.27246984348E+02  0.47787272588E+02  0.20000007036E+02 0.  0.
         12    1    1    2    0    0 -0.33074763895E+02  0.68764072844E+01 -0.27246984348E+02  0.43400727412E+02  0.00000000000E+00 0. -1.
         11    1    3    3    0    0  0.15565943621E+02 -0.46143839670E+01  0.30799245730E+01  0.16525043899E+02  0.51100000000E-03 0. -1.
        -11    1    3    3    0    0  0.12820202741E+02 -0.24036443029E-03  0.10283954488E+02  0.16435246227E+02  0.51100000000E-03 0.  1.
         12    1    3    3    0    0  0.46886175321E+01 -0.22617829530E+01  0.13883105288E+02  0.14826982462E+02  0.00000000000E+00 0. -1.
</event>
<event>
 7    1  0.2599124E-010  0.4778728E+02  0.7816164E-02  0.1312668E+00
        -11   -1    0    0    0    0  0.00000000000E+00  0.00000000000E+00  0.45593999997E+02  0.45594000000E+02  0.51100000000E-03 0. -1.
         11   -1    0    0    0    0 -0.00000000000E+00 -0.00000000000E+00 -0.45593999997E+02  0.45594000000E+02  0.51100000000E-03 0.  1.
    9900012    2    1    2    0    0 -0.96658170624E+00 -0.16974607054E+01 -0.43356739666E+02  0.47787279643E+02  0.20000039202E+02 0.  0.
         12    1    1    2    0    0  0.96658170624E+00  0.16974607054E+01  0.43356739666E+02  0.43400720357E+02  0.00000000000E+00 0. -1.
         11    1    3    3    0    0 -0.11145731052E+01  0.58222724910E+00 -0.10448858287E+02  0.10524253016E+02  0.51100000000E-03 0.  1.
        -11    1    3    3    0    0 -0.55444766685E+01 -0.48378016585E+01 -0.55887183738E+01  0.92400930589E+01  0.51100000000E-03 0. -1.
         12    1    3    3    0    0  0.56924680674E+01  0.25581137040E+01 -0.27319163005E+02  0.28022933567E+02  0.00000000000E+00 0. -1.
</event>
<event>
 7    1  0.2599124E-010  0.4778728E+02  0.7816164E-02  0.1312668E+00
        -11   -1    0    0    0    0  0.00000000000E+00  0.00000000000E+00  0.45593999997E+02  0.45594000000E+02  0.51100000000E-03 0. -1.
         11   -1    0    0    0    0 -0.00000000000E+00 -0.00000000000E+00 -0.45593999997E+02  0.45594000000E+02  0.51100000000E-03 0.  1.
    9900012    2    1    2    0    0  0.14309318851E+02  0.17829167398E+02 -0.36891549830E+02  0.47787282668E+02  0.20000052996E+02 0.  0.
         12    1    1    2    0    0 -0.14309318851E+02 -0.17829167398E+02  0.36891549830E+02  0.43400717332E+02  0.00000000000E+00 0. -1.
         11    1    3    3    0    0 -0.58318556522E+00  0.62356231164E+01 -0.15455029798E+02  0.16675762273E+02  0.51100000000E-03 0. -1.
        -11    1    3    3    0    0  0.62500798289E+01  0.12819518084E+00 -0.13084621116E+02  0.14501284146E+02  0.51100000000E-03 0.  1.
        -12    1    3    3    0    0  0.86424245875E+01  0.11465349101E+02 -0.83518989156E+01  0.16610236249E+02  0.00000000000E+00 0.  1.
</event>
<event>
 7    1  0.2599124E-010  0.4778727E+02  0.7816164E-02  0.1312668E+00
        -11   -1    0    0    0    0  0.00000000000E+00  0.00000000000E+00  0.45593999997E+02  0.45594000000E+02  0.51100000000E-03 0. -1.
         11   -1    0    0    0    0 -0.00000000000E+00 -0.00000000000E+00 -0.45593999997E+02  0.45594000000E+02  0.51100000000E-03 0.  1.
    9900012    2    1    2    0    0 -0.33594243119E+02 -0.15072477556E+02 -0.22975439181E+02  0.47787267795E+02  0.19999985184E+02 0.  0.
         12    1    1    2    0    0  0.33594243119E+02  0.15072477556E+02  0.22975439181E+02  0.43400732205E+02  0.00000000000E+00 0. -1.
         11    1    3    3    0    0 -0.38268544821E+01 -0.84163999884E+00 -0.97269936664E+01  0.10486542765E+02  0.51100000000E-03 0. -1.
        -11    1    3    3    0    0 -0.44794668996E+01  0.18830233043E+01 -0.13753093074E+01  0.50500372693E+01  0.51100000000E-03 0.  1.
        -12    1    3    3    0    0 -0.25287921737E+02 -0.16113860861E+02 -0.11873136207E+02  0.32250687760E+02  0.00000000000E+00 0.  1.
</event>
<event>
 7    1  0.2599124E-010  0.4778727E+02  0.7816164E-02  0.1312668E+00
        -11   -1    0    0    0    0  0.00000000000E+00  0.00000000000E+00  0.45593999997E+02  0.45594000000E+02  0.51100000000E-03 0. -1.
         11   -1    0    0    0    0 -0.00000000000E+00 -0.00000000000E+00 -0.45593999997E+02  0.45594000000E+02  0.51100000000E-03 0.  1.
    9900012    2    1    2    0    0 -0.39832341110E+02 -0.11782424084E+02 -0.12577057361E+02  0.47787270888E+02  0.19999999285E+02 0.  0.
         12    1    1    2    0    0  0.39832341110E+02  0.11782424084E+02  0.12577057361E+02  0.43400729112E+02  0.00000000000E+00 0. -1.
         11    1    3    3    0    0 -0.20114249194E+02 -0.43345861394E+01 -0.69851388981E+00  0.20587850290E+02  0.51100000000E-03 0. -1.
        -11    1    3    3    0    0 -0.91496796008E+01 -0.10039703872E+02 -0.63697253823E+01  0.15002856139E+02  0.51100000000E-03 0.  1.
        -12    1    3    3    0    0 -0.10568412315E+02  0.25918659275E+01 -0.55088180886E+01  0.12196564458E+02  0.00000000000E+00 0.  1.
</event>
<event>
 7    1  0.2599124E-010  0.4778727E+02  0.7816164E-02  0.1312668E+00
        -11   -1    0    0    0    0  0.00000000000E+00  0.00000000000E+00  0.45593999997E+02  0.45594000000E+02  0.51100000000E-03 0.  1.
         11   -1    0    0    0    0 -0.00000000000E+00 -0.00000000000E+00 -0.45593999997E+02  0.45594000000E+02  0.51100000000E-03 0. -1.
    9900012    2    1    2    0    0  0.35449901795E+02 -0.24152131836E+02  0.66032221526E+01  0.47787267837E+02  0.19999985375E+02 0.  0.
         12    1    1    2    0    0 -0.35449901795E+02  0.24152131836E+02 -0.66032221526E+01  0.43400732163E+02  0.00000000000E+00 0. -1.
         11    1    3    3    0    0  0.86913369236E+01 -0.28475561768E+01  0.13299565611E+01  0.92421154730E+01  0.51100000000E-03 0. -1.
        -11    1    3    3    0    0  0.23153876527E+02 -0.21327621616E+02  0.96024700307E+01  0.32911652541E+02  0.51100000000E-03 0.  1.
        -12    1    3    3    0    0  0.36046883444E+01  0.23045956981E-01 -0.43292044392E+01  0.56334998227E+01  0.00000000000E+00 0.  1.
</event>
<event>
 7    1  0.2599124E-010  0.4778727E+02  0.7816164E-02  0.1312668E+00
        -11   -1    0    0    0    0  0.00000000000E+00  0.00000000000E+00  0.45593999997E+02  0.45594000000E+02  0.51100000000E-03 0.  1.
         11   -1    0    0    0    0 -0.00000000000E+00 -0.00000000000E+00 -0.45593999997E+02  0.45594000000E+02  0.51100000000E-03 0. -1.
    9900012    2    1    2    0    0  0.15848033584E+02  0.39811120305E+02 -0.68947427609E+01  0.47787274820E+02  0.20000017214E+02 0.  0.
         12    1    1    2    0    0 -0.15848033584E+02 -0.39811120305E+02  0.68947427609E+01  0.43400725180E+02  0.00000000000E+00 0. -1.
         11    1    3    3    0    0 -0.20585443837E+01  0.50012284409E+00  0.52344080101E+00  0.21821361947E+01  0.51100000000E-03 0. -1.
        -11    1    3    3    0    0  0.72844875888E+00  0.15957934450E+02 -0.34681934794E+01  0.16346702291E+02  0.51100000000E-03 0.  1.
         12    1    3    3    0    0  0.17178129209E+02  0.23353063011E+02 -0.39499900826E+01  0.29258436335E+02  0.00000000000E+00 0. -1.
</event>
<event>
 7    1  0.2599124E-010  0.4778727E+02  0.7816164E-02  0.1312668E+00
        -11   -1    0    0    0    0  0.00000000000E+00  0.00000000000E+00  0.45593999997E+02  0.45594000000E+02  0.51100000000E-03 0.  1.
         11   -1    0    0    0    0 -0.00000000000E+00 -0.00000000000E+00 -0.45593999997E+02  0.45594000000E+02  0.51100000000E-03 0. -1.
    9900012    2    1    2    0    0  0.26782715439E+02  0.11681246049E+02  0.32091401194E+02  0.47787269751E+02  0.19999994102E+02 0.  0.
         12    1    1    2    0    0 -0.26782715439E+02 -0.11681246049E+02 -0.32091401194E+02  0.43400730249E+02  0.00000000000E+00 0. -1.
         11    1    3    3    0    0  0.37436163267E+01  0.30560999157E+01  0.10867865113E+02  0.11893901895E+02  0.51100000000E-03 0. -1.
        -11    1    3    3    0    0  0.88025410519E+01  0.10791397879E+01  0.17097516362E+02  0.19260694112E+02  0.51100000000E-03 0.  1.
         12    1    3    3    0    0  0.14236558060E+02  0.75460063458E+01  0.41260197188E+01  0.16632673745E+02  0.00000000000E+00 0. -1.
</event>
<event>
 7    1  0.2599124E-010  0.4778727E+02  0.7816164E-02  0.1312668E+00
        -11   -1    0    0    0    0  0.00000000000E+00  0.00000000000E+00  0.45593999997E+02  0.45594000000E+02  0.51100000000E-03 0. -1.
         11   -1    0    0    0    0 -0.00000000000E+00 -0.00000000000E+00 -0.45593999997E+02  0.45594000000E+02  0.51100000000E-03 0.  1.
    9900012    2    1    2    0    0 -0.22175201731E+02 -0.31383385307E+02 -0.20173417417E+02  0.47787271718E+02  0.20000003071E+02 0.  0.
         12    1    1    2    0    0  0.22175201731E+02  0.31383385307E+02  0.20173417417E+02  0.43400728282E+02  0.00000000000E+00 0. -1.
         11    1    3    3    0    0 -0.21941319383E+01 -0.24111709306E+01 -0.47208687660E+01  0.57371214373E+01  0.51100000000E-03 0. -1.
        -11    1    3    3    0    0 -0.26458528245E+00  0.12632817679E+00 -0.55155344658E+01  0.55233219067E+01  0.51100000000E-03 0.  1.
         12    1    3    3    0    0 -0.19716484510E+02 -0.29098542553E+02 -0.99370141853E+01  0.36526828374E+02  0.00000000000E+00 0. -1.
</event>
<event>
 7    1  0.2599124E-010  0.4778727E+02  0.7816164E-02  0.1312668E+00
        -11   -1    0    0    0    0  0.00000000000E+00  0.00000000000E+00  0.45593999997E+02  0.45594000000E+02  0.51100000000E-03 0. -1.
         11   -1    0    0    0    0 -0.00000000000E+00 -0.00000000000E+00 -0.45593999997E+02  0.45594000000E+02  0.51100000000E-03 0.  1.
    9900012    2    1    2    0    0 -0.32975087698E+02  0.19841164030E+02 -0.20064764312E+02  0.47787274596E+02  0.20000016192E+02 0.  0.
         12    1    1    2    0    0  0.32975087698E+02 -0.19841164030E+02  0.20064764312E+02  0.43400725404E+02  0.00000000000E+00 0. -1.
         11    1    3    3    0    0 -0.10224905430E+01  0.58932441486E+01 -0.22287531622E+01  0.63830364581E+01  0.51100000000E-03 0. -1.
        -11    1    3    3    0    0 -0.12227577435E+02  0.16407073313E+01 -0.40122155224E+00  0.12343684598E+02  0.51100000000E-03 0.  1.
        -12    1    3    3    0    0 -0.19725019720E+02  0.12307212550E+02 -0.17434789597E+02  0.29060553539E+02  0.00000000000E+00 0.  1.
</event>
<event>
 7    1  0.2599124E-010  0.4778727E+02  0.7816164E-02  0.1312668E+00
        -11   -1    0    0    0    0  0.00000000000E+00  0.00000000000E+00  0.45593999997E+02  0.45594000000E+02  0.51100000000E-03 0. -1.
         11   -1    0    0    0    0 -0.00000000000E+00 -0.00000000000E+00 -0.45593999997E+02  0.45594000000E+02  0.51100000000E-03 0.  1.
    9900012    2    1    2    0    0  0.34781983989E+02  0.45791659359E+01 -0.25551283979E+02  0.47787270930E+02  0.19999999478E+02 0.  0.
         12    1    1    2    0    0 -0.34781983989E+02 -0.45791659359E+01  0.25551283979E+02  0.43400729070E+02  0.00000000000E+00 0. -1.
         11    1    3    3    0    0  0.20878239391E+02 -0.42998267042E+01 -0.15311315746E+02  0.26245490658E+02  0.51100000000E-03 0. -1.
        -11    1    3    3    0    0  0.89542333286E+01  0.16691744374E+01 -0.15992125288E+01  0.92478061603E+01  0.51100000000E-03 0.  1.
        -12    1    3    3    0    0  0.49495112693E+01  0.72098182027E+01 -0.86407557034E+01  0.12293974111E+02  0.00000000000E+00 0.  1.
</event>
<event>
 7    1  0.2599124E-010  0.4778727E+02  0.7816164E-02  0.1312668E+00
        -11   -1    0    0    0    0  0.00000000000E+00  0.00000000000E+00  0.45593999997E+02  0.45594000000E+02  0.51100000000E-03 0.  1.
         11   -1    0    0    0    0 -0.00000000000E+00 -0.00000000000E+00 -0.45593999997E+02  0.45594000000E+02  0.51100000000E-03 0. -1.
    9900012    2    1    2    0    0 -0.25931480973E+02  0.19582844336E+02  0.28769667986E+02  0.47787270815E+02  0.19999998956E+02 0.  0.
         12    1    1    2    0    0  0.25931480973E+02 -0.19582844336E+02 -0.28769667986E+02  0.43400729185E+02  0.00000000000E+00 0. -1.
         11    1    3    3    0    0 -0.14786448148E+02  0.11152896896E+02  0.27283703332E+02  0.32976152380E+02  0.51100000000E-03 0. -1.
        -11    1    3    3    0    0 -0.54755573900E+01  0.50642651984E+01  0.30118500377E+01  0.80436155827E+01  0.51100000000E-03 0.  1.
         12    1    3    3    0    0 -0.56694754350E+01  0.33656822416E+01 -0.15258853839E+01  0.67675028529E+01  0.00000000000E+00 0. -1.
</event>
<event>
 7    1  0.2599124E-010  0.4778728E+02  0.7816164E-02  0.1312668E+00
        -11   -1    0    0    0    0  0.00000000000E+00  0.00000000000E+00  0.45593999997E+02  0.45594000000E+02  0.51100000000E-03 0.  1.
         11   -1    0    0    0    0 -0.00000000000E+00 -0.00000000000E+00 -0.45593999997E+02  0.45594000000E+02  0.51100000000E-03 0. -1.
    9900012    2    1    2    0    0  0.35577776749E+02 -0.18774380517E+02  0.16290077291E+02  0.47787283643E+02  0.20000057441E+02 0.  0.
         12    1    1    2    0    0 -0.35577776749E+02  0.18774380517E+02 -0.16290077291E+02  0.43400716357E+02  0.00000000000E+00 0. -1.
         11    1    3    3    0    0  0.67692883967E+01 -0.74784963692E+01 -0.98888375052E+00  0.10135534750E+02  0.51100000000E-03 0. -1.
        -11    1    3    3    0    0  0.43020800792E+01 -0.41935220240E+01 -0.12275760447E+01  0.61319216548E+01  0.51100000000E-03 0.  1.
         12    1    3    3    0    0  0.24506408273E+02 -0.71023621233E+01  0.18506537086E+02  0.31519827238E+02  0.00000000000E+00 0. -1.
</event>
<event>
 7    1  0.2599124E-010  0.4778727E+02  0.7816164E-02  0.1312668E+00
        -11   -1    0    0    0    0  0.00000000000E+00  0.00000000000E+00  0.45593999997E+02  0.45594000000E+02  0.51100000000E-03 0.  1.
         11   -1    0    0    0    0 -0.00000000000E+00 -0.00000000000E+00 -0.45593999997E+02  0.45594000000E+02  0.51100000000E-03 0. -1.
    9900012    2    1    2    0    0 -0.24601011305E+01 -0.24855383859E+02  0.35493399702E+02  0.47787266979E+02  0.19999981463E+02 0.  0.
         12    1    1    2    0    0  0.24601011305E+01  0.24855383859E+02 -0.35493399702E+02  0.43400733021E+02  0.00000000000E+00 0. -1.
         11    1    3    3    0    0  0.22648535482E+01 -0.19016116541E+01  0.66506802889E+00  0.30311720871E+01  0.51100000000E-03 0. -1.
        -11    1    3    3    0    0  0.12270077357E+01 -0.75647014550E+01  0.23561092300E+02  0.24776103945E+02  0.51100000000E-03 0.  1.
         12    1    3    3    0    0 -0.59519624143E+01 -0.15389070750E+02  0.11267239374E+02  0.19979990947E+02  0.00000000000E+00 0. -1.
</event>
<event>
 7    1  0.2599124E-010  0.4778727E+02  0.7816164E-02  0.1312668E+00
        -11   -1    0    0    0    0  0.00000000000E+00  0.00000000000E+00  0.45593999997E+02  0.45594000000E+02  0.51100000000E-03 0.  1.
         11   -1    0    0    0    0 -0.00000000000E+00 -0.00000000000E+00 -0.45593999997E+02  0.45594000000E+02  0.51100000000E-03 0. -1.
    9900012    2    1    2    0    0 -0.34105408522E+02  0.25426624335E+02  0.85983288607E+01  0.47787269883E+02  0.19999994703E+02 0.  0.
         12    1    1    2    0    0  0.34105408522E+02 -0.25426624335E+02 -0.85983288607E+01  0.43400730117E+02  0.00000000000E+00 0. -1.
         11    1    3    3    0    0 -0.14388855702E+02  0.12844553800E+02  0.14872893459E+01  0.19345122398E+02  0.51100000000E-03 0. -1.
        -11    1    3    3    0    0 -0.12265642778E+02  0.15231132748E+02  0.41040165478E+01  0.19981900551E+02  0.51100000000E-03 0.  1.
        -12    1    3    3    0    0 -0.74509100422E+01 -0.26490622128E+01  0.30070229670E+01  0.84602469343E+01  0.00000000000E+00 0.  1.
</event>
<event>
 7    1  0.2599124E-010  0.4778727E+02  0.7816164E-02  0.1312668E+00
        -11   -1    0    0    0    0  0.00000000000E+00  0.00000000000E+00  0.45593999997E+02  0.45594000000E+02  0.51100000000E-03 0. -1.
         11   -1    0    0    0    0 -0.00000000000E+00 -0.00000000000E+00 -0.45593999997E+02  0.45594000000E+02  0.51100000000E-03 0.  1.
    9900012    2    1    2    0    0  0.41398331788E+02 -0.13028605368E+02 -0.23836393390E+00  0.47787271319E+02  0.20000001253E+02 0.  0.
         12    1    1    2    0    0 -0.41398331788E+02  0.13028605368E+02  0.23836393390E+00  0.43400728681E+02  0.00000000000E+00 0. -1.
         11    1    3    3    0    0  0.11027723536E+01 -0.39380375585E+01 -0.18396892411E+00  0.40936648009E+01  0.51100000000E-03 0. -1.
        -11    1    3    3    0    0  0.28557448648E+02 -0.12834400664E+02  0.10250504855E+01  0.31325715354E+02  0.51100000000E-03 0.  1.
         12    1    3    3    0    0  0.11738110787E+02  0.37438328548E+01 -0.10794454953E+01  0.12367891165E+02  0.00000000000E+00 0. -1.
</event>
<event>
 7    1  0.4720222E-010  0.4778727E+02  0.7816164E-02  0.1312668E+00
        -11   -1    0    0    0    0  0.00000000000E+00  0.00000000000E+00  0.45593999997E+02  0.45594000000E+02  0.51100000000E-03 0. -1.
         11   -1    0    0    0    0 -0.00000000000E+00 -0.00000000000E+00 -0.45593999997E+02  0.45594000000E+02  0.51100000000E-03 0.  1.
    9900012    2    1    2    0    0 -0.36554637904E+02 -0.18354903997E+02 -0.14507902995E+02  0.47787270716E+02  0.19999998503E+02 0.  0.
         12    1    1    2    0    0  0.36554637904E+02  0.18354903997E+02  0.14507902995E+02  0.43400729284E+02  0.00000000000E+00 0. -1.
         11    1    3    3    0    0 -0.11383760625E+01 -0.37166440783E+00 -0.39869584970E+01  0.41629163827E+01  0.51100000000E-03 0. -1.
        -11    1    3    3    0    0 -0.74152929370E+01 -0.79915253185E+01  0.24724865842E+01  0.11178740377E+02  0.51100000000E-03 0.  1.
        -12    1    3    3    0    0 -0.28000968905E+02 -0.99917142708E+01 -0.12993431083E+02  0.32445613956E+02  0.00000000000E+00 0.  1.
</event>
<event>
 7    1  0.2599124E-010  0.4778727E+02  0.7816164E-02  0.1312668E+00
        -11   -1    0    0    0    0  0.00000000000E+00  0.00000000000E+00  0.45593999997E+02  0.45594000000E+02  0.51100000000E-03 0.  1.
         11   -1    0    0    0    0 -0.00000000000E+00 -0.00000000000E+00 -0.45593999997E+02  0.45594000000E+02  0.51100000000E-03 0. -1.
    9900012    2    1    2    0    0  0.88661799927E+01  0.13441309718E+02  0.40303164496E+02  0.47787273935E+02  0.20000013179E+02 0.  0.
         12    1    1    2    0    0 -0.88661799927E+01 -0.13441309718E+02 -0.40303164496E+02  0.43400726065E+02  0.00000000000E+00 0. -1.
         11    1    3    3    0    0  0.80803551422E-01 -0.15381265184E+01  0.23346055867E+01  0.27969172149E+01  0.51100000000E-03 0. -1.
        -11    1    3    3    0    0  0.40296388932E+00  0.14091848342E+02  0.15296597818E+02  0.20802126686E+02  0.51100000000E-03 0.  1.
        -12    1    3    3    0    0  0.83824125520E+01  0.88758789427E+00  0.22671961091E+02  0.24188230034E+02  0.00000000000E+00 0.  1.
</event>
<event>
 7    1  0.2599124E-010  0.4778727E+02  0.7816164E-02  0.1312668E+00
        -11   -1    0    0    0    0  0.00000000000E+00  0.00000000000E+00  0.45593999997E+02  0.45594000000E+02  0.51100000000E-03 0.  1.
         11   -1    0    0    0    0 -0.00000000000E+00 -0.00000000000E+00 -0.45593999997E+02  0.45594000000E+02  0.51100000000E-03 0. -1.
    9900012    2    1    2    0    0 -0.17877731477E+02  0.33798449247E+02  0.20534723567E+02  0.47787270442E+02  0.19999997251E+02 0.  0.
         12    1    1    2    0    0  0.17877731477E+02 -0.33798449247E+02 -0.20534723567E+02  0.43400729558E+02  0.00000000000E+00 0. -1.
         11    1    3    3    0    0 -0.16945333370E+01  0.99242303699E+00 -0.20606614161E+01  0.28465193566E+01  0.51100000000E-03 0. -1.
        -11    1    3    3    0    0 -0.95854665172E+01  0.19443565038E+02  0.57054257221E+01  0.22416183276E+02  0.51100000000E-03 0.  1.
        -12    1    3    3    0    0 -0.65977316225E+01  0.13362461171E+02  0.16889959261E+02  0.22524567809E+02  0.00000000000E+00 0.  1.
</event>
<event>
 7    1  0.2599124E-010  0.4778726E+02  0.7816164E-02  0.1312668E+00
        -11   -1    0    0    0    0  0.00000000000E+00  0.00000000000E+00  0.45593999997E+02  0.45594000000E+02  0.51100000000E-03 0.  1.
         11   -1    0    0    0    0 -0.00000000000E+00 -0.00000000000E+00 -0.45593999997E+02  0.45594000000E+02  0.51100000000E-03 0. -1.
    9900012    2    1    2    0    0 -0.14593427275E+02 -0.17398566556E+01  0.40836614406E+02  0.47787259258E+02  0.19999946262E+02 0.  0.
         12    1    1    2    0    0  0.14593427275E+02  0.17398566556E+01 -0.40836614406E+02  0.43400740742E+02  0.00000000000E+00 0. -1.
         11    1    3    3    0    0  0.25399874397E+00  0.37116274394E+01  0.66476600865E+01  0.76178788713E+01  0.51100000000E-03 0. -1.
        -11    1    3    3    0    0 -0.12233493562E+01 -0.62422883966E+01  0.17444345255E+02  0.18567927448E+02  0.51100000000E-03 0.  1.
        -12    1    3    3    0    0 -0.13624076663E+02  0.79080430161E+00  0.16744609064E+02  0.21601452939E+02  0.00000000000E+00 0.  1.
</event>
<event>
 7    1  0.2599124E-010  0.4778727E+02  0.7816164E-02  0.1312668E+00
        -11   -1    0    0    0    0  0.00000000000E+00  0.00000000000E+00  0.45593999997E+02  0.45594000000E+02  0.51100000000E-03 0.  1.
         11   -1    0    0    0    0 -0.00000000000E+00 -0.00000000000E+00 -0.45593999997E+02  0.45594000000E+02  0.51100000000E-03 0. -1.
    9900012    2    1    2    0    0 -0.12691366828E+02 -0.14118270345E+02  0.39028540627E+02  0.47787270364E+02  0.19999996898E+02 0.  0.
         12    1    1    2    0    0  0.12691366828E+02  0.14118270345E+02 -0.39028540627E+02  0.43400729636E+02  0.00000000000E+00 0. -1.
         11    1    3    3    0    0 -0.60092489080E+01 -0.76485178934E+01  0.21736743467E+02  0.23813796741E+02  0.51100000000E-03 0. -1.
        -11    1    3    3    0    0 -0.10956834032E+02 -0.39807585167E+01  0.12244521757E+02  0.16906417825E+02  0.51100000000E-03 0.  1.
         12    1    3    3    0    0  0.42747161128E+01 -0.24889939346E+01  0.50472754036E+01  0.70670557979E+01  0.00000000000E+00 0. -1.
</event>
<event>
 7    1  0.2599124E-010  0.4778727E+02  0.7816164E-02  0.1312668E+00
        -11   -1    0    0    0    0  0.00000000000E+00  0.00000000000E+00  0.45593999997E+02  0.45594000000E+02  0.51100000000E-03 0.  1.
         11   -1    0    0    0    0 -0.00000000000E+00 -0.00000000000E+00 -0.45593999997E+02  0.45594000000E+02  0.51100000000E-03 0. -1.
    9900012    2    1    2    0    0  0.26612298181E+02 -0.38397028511E+00  0.34282085263E+02  0.47787271692E+02  0.20000002955E+02 0.  0.
         12    1    1    2    0    0 -0.26612298181E+02  0.38397028511E+00 -0.34282085263E+02  0.43400728308E+02  0.00000000000E+00 0. -1.
         11    1    3    3    0    0  0.19076020298E+01 -0.27082938431E+01  0.13391819889E+02  0.13795457268E+02  0.51100000000E-03 0. -1.
        -11    1    3    3    0    0  0.41954080706E+01  0.45451002088E+01  0.48907355861E+01  0.78853458784E+01  0.51100000000E-03 0.  1.
         12    1    3    3    0    0  0.20509288080E+02 -0.22207766508E+01  0.15999529788E+02  0.26106468546E+02  0.00000000000E+00 0. -1.
</event>
<event>
 7    1  0.2599124E-010  0.4778727E+02  0.7816164E-02  0.1312668E+00
        -11   -1    0    0    0    0  0.00000000000E+00  0.00000000000E+00  0.45593999997E+02  0.45594000000E+02  0.51100000000E-03 0.  1.
         11   -1    0    0    0    0 -0.00000000000E+00 -0.00000000000E+00 -0.45593999997E+02  0.45594000000E+02  0.51100000000E-03 0. -1.
    9900012    2    1    2    0    0 -0.68814648974E+01 -0.42676017119E+02  0.38763990578E+01  0.47787268832E+02  0.19999989911E+02 0.  0.
         12    1    1    2    0    0  0.68814648974E+01  0.42676017119E+02 -0.38763990578E+01  0.43400731168E+02  0.00000000000E+00 0. -1.
         11    1    3    3    0    0 -0.40875941630E+01 -0.27469264343E+02  0.30116526024E+01  0.27934547808E+02  0.51100000000E-03 0. -1.
        -11    1    3    3    0    0  0.14007074557E+01 -0.15464236098E+02  0.15108384151E+01  0.15600872170E+02  0.51100000000E-03 0.  1.
         12    1    3    3    0    0 -0.41945781901E+01  0.25748332227E+00 -0.64609195974E+00  0.42518488537E+01  0.00000000000E+00 0. -1.
</event>
<event>
 7    1  0.2599124E-010  0.4778727E+02  0.7816164E-02  0.1312668E+00
        -11   -1    0    0    0    0  0.00000000000E+00  0.00000000000E+00  0.45593999997E+02  0.45594000000E+02  0.51100000000E-03 0.  1.
         11   -1    0    0    0    0 -0.00000000000E+00 -0.00000000000E+00 -0.45593999997E+02  0.45594000000E+02  0.51100000000E-03 0. -1.
    9900012    2    1    2    0    0  0.31492026722E+02  0.18345338186E+02  0.23565312178E+02  0.47787272837E+02  0.20000008175E+02 0.  0.
         12    1    1    2    0    0 -0.31492026722E+02 -0.18345338186E+02 -0.23565312178E+02  0.43400727163E+02  0.00000000000E+00 0. -1.
         11    1    3    3    0    0  0.31893383313E+01  0.13602318527E+01 -0.12109517726E+01  0.36726712542E+01  0.51100000000E-03 0. -1.
        -11    1    3    3    0    0  0.22644884582E+01 -0.23791974542E+01  0.53996816147E+01  0.63202096725E+01  0.51100000000E-03 0.  1.
        -12    1    3    3    0    0  0.26038199933E+02  0.19364303787E+02  0.19376582336E+02  0.37794391911E+02  0.00000000000E+00 0.  1.
</event>
<event>
 7    1  0.2599124E-010  0.4778727E+02  0.7816164E-02  0.1312668E+00
        -11   -1    0    0    0    0  0.00000000000E+00  0.00000000000E+00  0.45593999997E+02  0.45594000000E+02  0.51100000000E-03 0.  1.
         11   -1    0    0    0    0 -0.00000000000E+00 -0.00000000000E+00 -0.45593999997E+02  0.45594000000E+02  0.51100000000E-03 0. -1.
    9900012    2    1    2    0    0  0.22221649287E+02 -0.30899353208E+02  0.20857891120E+02  0.47787270194E+02  0.19999996123E+02 0.  0.
         12    1    1    2    0    0 -0.22221649287E+02  0.30899353208E+02 -0.20857891120E+02  0.43400729806E+02  0.00000000000E+00 0. -1.
         11    1    3    3    0    0  0.37382331999E+01 -0.54366553080E+01  0.13897888119E+02  0.15384502034E+02  0.51100000000E-03 0. -1.
        -11    1    3    3    0    0  0.42107930522E+01 -0.38202667532E+01  0.66315765976E+00  0.57240714999E+01  0.51100000000E-03 0.  1.
         12    1    3    3    0    0  0.14272623035E+02 -0.21642431147E+02  0.62968453408E+01  0.26678696661E+02  0.00000000000E+00 0. -1.
</event>
<event>
 7    1  0.2599124E-010  0.4778727E+02  0.7816164E-02  0.1312668E+00
        -11   -1    0    0    0    0  0.00000000000E+00  0.00000000000E+00  0.45593999997E+02  0.45594000000E+02  0.51100000000E-03 0. -1.
         11   -1    0    0    0    0 -0.00000000000E+00 -0.00000000000E+00 -0.45593999997E+02  0.45594000000E+02  0.51100000000E-03 0.  1.
    9900012    2    1    2    0    0  0.25671569553E+02 -0.20654395519E+02 -0.28248713263E+02  0.47787270299E+02  0.19999996602E+02 0.  0.
         12    1    1    2    0    0 -0.25671569553E+02  0.20654395519E+02  0.28248713263E+02  0.43400729701E+02  0.00000000000E+00 0. -1.
         11    1    3    3    0    0  0.22181908702E+01 -0.10050198062E+02 -0.58182516524E+01  0.11822812879E+02  0.51100000000E-03 0. -1.
        -11    1    3    3    0    0  0.47191983104E+01 -0.25585756721E+01 -0.11815871390E+02  0.12978133885E+02  0.51100000000E-03 0.  1.
        -12    1    3    3    0    0  0.18734180372E+02 -0.80456217846E+01 -0.10614590221E+02  0.22986323536E+02  0.00000000000E+00 0.  1.
</event>
<event>
 7    1  0.2599124E-010  0.4778727E+02  0.7816164E-02  0.1312668E+00
        -11   -1    0    0    0    0  0.00000000000E+00  0.00000000000E+00  0.45593999997E+02  0.45594000000E+02  0.51100000000E-03 0.  1.
         11   -1    0    0    0    0 -0.00000000000E+00 -0.00000000000E+00 -0.45593999997E+02  0.45594000000E+02  0.51100000000E-03 0. -1.
    9900012    2    1    2    0    0 -0.40559656011E+02 -0.15198139783E+02  0.27484722981E+01  0.47787271336E+02  0.20000001327E+02 0.  0.
         12    1    1    2    0    0  0.40559656011E+02  0.15198139783E+02 -0.27484722981E+01  0.43400728664E+02  0.00000000000E+00 0. -1.
         11    1    3    3    0    0 -0.32950787613E+02 -0.91630733511E+01 -0.27281251151E+01  0.34309750575E+02  0.51100000000E-03 0. -1.
        -11    1    3    3    0    0 -0.69365229029E+01 -0.91868254256E+00  0.20802837379E+01  0.72997882359E+01  0.51100000000E-03 0.  1.
        -12    1    3    3    0    0 -0.67234549497E+00 -0.51163838898E+01  0.33963136752E+01  0.61777325252E+01  0.00000000000E+00 0.  1.
</event>
<event>
 7    1  0.2599124E-010  0.4778727E+02  0.7816164E-02  0.1312668E+00
        -11   -1    0    0    0    0  0.00000000000E+00  0.00000000000E+00  0.45593999997E+02  0.45594000000E+02  0.51100000000E-03 0.  1.
         11   -1    0    0    0    0 -0.00000000000E+00 -0.00000000000E+00 -0.45593999997E+02  0.45594000000E+02  0.51100000000E-03 0. -1.
    9900012    2    1    2    0    0 -0.38466748968E+01 -0.38527470012E+02  0.19607660424E+02  0.47787271889E+02  0.20000003849E+02 0.  0.
         12    1    1    2    0    0  0.38466748968E+01  0.38527470012E+02 -0.19607660424E+02  0.43400728111E+02  0.00000000000E+00 0. -1.
         11    1    3    3    0    0  0.14842229362E+00 -0.23581759562E+01 -0.25069665509E+01  0.34449825204E+01  0.51100000000E-03 0. -1.
        -11    1    3    3    0    0 -0.66703112722E+01 -0.11019711486E+02  0.50681538289E+01  0.13842444770E+02  0.51100000000E-03 0.  1.
        -12    1    3    3    0    0  0.26752140817E+01 -0.25149582569E+02  0.17046473146E+02  0.30499844598E+02  0.00000000000E+00 0.  1.
</event>
<event>
 7    1  0.2599124E-010  0.4778727E+02  0.7816164E-02  0.1312668E+00
        -11   -1    0    0    0    0  0.00000000000E+00  0.00000000000E+00  0.45593999997E+02  0.45594000000E+02  0.51100000000E-03 0.  1.
         11   -1    0    0    0    0 -0.00000000000E+00 -0.00000000000E+00 -0.45593999997E+02  0.45594000000E+02  0.51100000000E-03 0. -1.
    9900012    2    1    2    0    0  0.13336923791E+02  0.27015244602E+02  0.31239826617E+02  0.47787265626E+02  0.19999975296E+02 0.  0.
         12    1    1    2    0    0 -0.13336923791E+02 -0.27015244602E+02 -0.31239826617E+02  0.43400734374E+02  0.00000000000E+00 0. -1.
         11    1    3    3    0    0 -0.21877936763E+01  0.17486305624E+01  0.20407188235E+01  0.34653547570E+01  0.51100000000E-03 0. -1.
        -11    1    3    3    0    0 -0.18204591481E+01  0.27733065246E+01  0.86485285789E+01  0.92629556531E+01  0.51100000000E-03 0.  1.
         12    1    3    3    0    0  0.17345176616E+02  0.22493307515E+02  0.20550579214E+02  0.35058955216E+02  0.00000000000E+00 0. -1.
</event>
<event>
 7    1  0.2599124E-010  0.4778727E+02  0.7816164E-02  0.1312668E+00
        -11   -1    0    0    0    0  0.00000000000E+00  0.00000000000E+00  0.45593999997E+02  0.45594000000E+02  0.51100000000E-03 0. -1.
         11   -1    0    0    0    0 -0.00000000000E+00 -0.00000000000E+00 -0.45593999997E+02  0.45594000000E+02  0.51100000000E-03 0.  1.
    9900012    2    1    2    0    0  0.28709622281E+02 -0.18445562157E+02 -0.26816821339E+02  0.47787273260E+02  0.20000010103E+02 0.  0.
         12    1    1    2    0    0 -0.28709622281E+02  0.18445562157E+02  0.26816821339E+02  0.43400726740E+02  0.00000000000E+00 0. -1.
         11    1    3    3    0    0  0.12338603386E+02 -0.66620439030E+01 -0.15492225496E+02  0.20895765446E+02  0.51100000000E-03 0.  1.
        -11    1    3    3    0    0  0.74448200368E+00 -0.80252066616E+01 -0.56674269553E+01  0.98528129978E+01  0.51100000000E-03 0. -1.
         12    1    3    3    0    0  0.15626536891E+02 -0.37583115921E+01 -0.56571688884E+01  0.17038694817E+02  0.00000000000E+00 0. -1.
</event>
<event>
 7    1  0.2599124E-010  0.4778727E+02  0.7816164E-02  0.1312668E+00
        -11   -1    0    0    0    0  0.00000000000E+00  0.00000000000E+00  0.45593999997E+02  0.45594000000E+02  0.51100000000E-03 0. -1.
         11   -1    0    0    0    0 -0.00000000000E+00 -0.00000000000E+00 -0.45593999997E+02  0.45594000000E+02  0.51100000000E-03 0.  1.
    9900012    2    1    2    0    0 -0.32851897932E+02  0.63268652284E+01 -0.27646826615E+02  0.47787269094E+02  0.19999991106E+02 0.  0.
         12    1    1    2    0    0  0.32851897932E+02 -0.63268652284E+01  0.27646826615E+02  0.43400730906E+02  0.00000000000E+00 0. -1.
         11    1    3    3    0    0  0.88012766149E+00 -0.60780224788E+00 -0.41893585645E+01  0.43237453343E+01  0.51100000000E-03 0. -1.
        -11    1    3    3    0    0 -0.35706117874E+00 -0.13028331614E+00 -0.43417942223E+01  0.43583992196E+01  0.51100000000E-03 0.  1.
        -12    1    3    3    0    0 -0.33374964415E+02  0.70649507924E+01 -0.19115673828E+02  0.39105124540E+02  0.00000000000E+00 0.  1.
</event>
<event>
 7    1  0.2599124E-010  0.4778727E+02  0.7816164E-02  0.1312668E+00
        -11   -1    0    0    0    0  0.00000000000E+00  0.00000000000E+00  0.45593999997E+02  0.45594000000E+02  0.51100000000E-03 0.  1.
         11   -1    0    0    0    0 -0.00000000000E+00 -0.00000000000E+00 -0.45593999997E+02  0.45594000000E+02  0.51100000000E-03 0. -1.
    9900012    2    1    2    0    0  0.41429458588E+02  0.47417646876E+01  0.12030753521E+02  0.47787269574E+02  0.19999993293E+02 0.  0.
         12    1    1    2    0    0 -0.41429458588E+02 -0.47417646876E+01 -0.12030753521E+02  0.43400730426E+02  0.00000000000E+00 0. -1.
         11    1    3    3    0    0  0.25851583482E+01  0.25905340641E+01 -0.92262361459E+00  0.37742741048E+01  0.51100000000E-03 0. -1.
        -11    1    3    3    0    0  0.99448340290E+01  0.21378031585E+01 -0.35008620733E+01  0.10757600184E+02  0.51100000000E-03 0.  1.
        -12    1    3    3    0    0  0.28899466211E+02  0.13427464979E-01  0.16454239209E+02  0.33255395284E+02  0.00000000000E+00 0.  1.
</event>
<event>
 7    1  0.2599124E-010  0.4778727E+02  0.7816164E-02  0.1312668E+00
        -11   -1    0    0    0    0  0.00000000000E+00  0.00000000000E+00  0.45593999997E+02  0.45594000000E+02  0.51100000000E-03 0.  1.
         11   -1    0    0    0    0 -0.00000000000E+00 -0.00000000000E+00 -0.45593999997E+02  0.45594000000E+02  0.51100000000E-03 0. -1.
    9900012    2    1    2    0    0  0.27977262507E+02 -0.22089172655E+02 -0.24758124410E+02  0.47787268551E+02  0.19999988632E+02 0.  0.
         12    1    1    2    0    0 -0.27977262507E+02  0.22089172655E+02  0.24758124410E+02  0.43400731449E+02  0.00000000000E+00 0. -1.
         11    1    3    3    0    0  0.10616624298E+02 -0.26565593199E+01 -0.55050320448E+01  0.12250526396E+02  0.51100000000E-03 0. -1.
        -11    1    3    3    0    0  0.18641992034E+02 -0.13549136941E+02 -0.11604813520E+02  0.25802609867E+02  0.51100000000E-03 0.  1.
        -12    1    3    3    0    0 -0.12813538250E+01 -0.58834763945E+01 -0.76482788453E+01  0.97341322882E+01  0.00000000000E+00 0.  1.
</event>
<event>
 7    1  0.2599124E-010  0.4778727E+02  0.7816164E-02  0.1312668E+00
        -11   -1    0    0    0    0  0.00000000000E+00  0.00000000000E+00  0.45593999997E+02  0.45594000000E+02  0.51100000000E-03 0.  1.
         11   -1    0    0    0    0 -0.00000000000E+00 -0.00000000000E+00 -0.45593999997E+02  0.45594000000E+02  0.51100000000E-03 0. -1.
    9900012    2    1    2    0    0 -0.55416068035E+01  0.41248352960E+02  0.12308023281E+02  0.47787268843E+02  0.19999989962E+02 0.  0.
         12    1    1    2    0    0  0.55416068035E+01 -0.41248352960E+02 -0.12308023281E+02  0.43400731157E+02  0.00000000000E+00 0. -1.
         11    1    3    3    0    0  0.38390607944E+01  0.68815153863E+01  0.50650670793E+00  0.78962137193E+01  0.51100000000E-03 0. -1.
        -11    1    3    3    0    0 -0.42281593660E+01  0.25612714257E+02  0.24340510725E+01  0.26073225119E+02  0.51100000000E-03 0.  1.
        -12    1    3    3    0    0 -0.51525082318E+01  0.87541233173E+01  0.93674655008E+01  0.13817830005E+02  0.00000000000E+00 0.  1.
</event>
<event>
 7    1  0.2599124E-010  0.4778727E+02  0.7816164E-02  0.1312668E+00
        -11   -1    0    0    0    0  0.00000000000E+00  0.00000000000E+00  0.45593999997E+02  0.45594000000E+02  0.51100000000E-03 0. -1.
         11   -1    0    0    0    0 -0.00000000000E+00 -0.00000000000E+00 -0.45593999997E+02  0.45594000000E+02  0.51100000000E-03 0.  1.
    9900012    2    1    2    0    0  0.36966899811E+02  0.17747780811E+02 -0.14215757108E+02  0.47787272408E+02  0.20000006217E+02 0.  0.
         12    1    1    2    0    0 -0.36966899811E+02 -0.17747780811E+02  0.14215757108E+02  0.43400727592E+02  0.00000000000E+00 0. -1.
         11    1    3    3    0    0  0.97165555789E+00 -0.18098593972E+01 -0.20432728763E+01  0.28973556684E+01  0.51100000000E-03 0. -1.
        -11    1    3    3    0    0  0.14924407267E+02  0.92108875759E+01 -0.12290008796E+02  0.21415478017E+02  0.51100000000E-03 0.  1.
         12    1    3    3    0    0  0.21070836986E+02  0.10346752633E+02  0.11752456435E+00  0.23474438723E+02  0.00000000000E+00 0. -1.
</event>
<event>
 7    1  0.2599124E-010  0.4778727E+02  0.7816164E-02  0.1312668E+00
        -11   -1    0    0    0    0  0.00000000000E+00  0.00000000000E+00  0.45593999997E+02  0.45594000000E+02  0.51100000000E-03 0.  1.
         11   -1    0    0    0    0 -0.00000000000E+00 -0.00000000000E+00 -0.45593999997E+02  0.45594000000E+02  0.51100000000E-03 0. -1.
    9900012    2    1    2    0    0 -0.85231279363E+00  0.21868710452E+02  0.37478744779E+02  0.47787271387E+02  0.20000001564E+02 0.  0.
         12    1    1    2    0    0  0.85231279363E+00 -0.21868710452E+02 -0.37478744779E+02  0.43400728613E+02  0.00000000000E+00 0. -1.
         11    1    3    3    0    0 -0.23827667813E+01  0.22530999150E+01 -0.43414791317E+00  0.33079482210E+01  0.51100000000E-03 0. -1.
        -11    1    3    3    0    0 -0.37283861371E+01  0.98072824739E+01  0.10277247017E+02  0.14686914557E+02  0.51100000000E-03 0.  1.
         12    1    3    3    0    0  0.52588401248E+01  0.98083280629E+01  0.27635645675E+02  0.29792408609E+02  0.00000000000E+00 0. -1.
</event>
<event>
 7    1  0.2599124E-010  0.4778727E+02  0.7816164E-02  0.1312668E+00
        -11   -1    0    0    0    0  0.00000000000E+00  0.00000000000E+00  0.45593999997E+02  0.45594000000E+02  0.51100000000E-03 0. -1.
         11   -1    0    0    0    0 -0.00000000000E+00 -0.00000000000E+00 -0.45593999997E+02  0.45594000000E+02  0.51100000000E-03 0.  1.
    9900012    2    1    2    0    0  0.19705462201E+02  0.17377508033E+02 -0.34544756865E+02  0.47787271287E+02  0.20000001105E+02 0.  0.
         12    1    1    2    0    0 -0.19705462201E+02 -0.17377508033E+02  0.34544756865E+02  0.43400728713E+02  0.00000000000E+00 0. -1.
         11    1    3    3    0    0  0.26992274387E+01 -0.90375297031E+00 -0.83396261385E+01  0.88120350992E+01  0.51100000000E-03 0. -1.
        -11    1    3    3    0    0  0.92024527646E+01  0.10041756378E+02 -0.23728108926E+02  0.27359553386E+02  0.51100000000E-03 0.  1.
         12    1    3    3    0    0  0.78037819975E+01  0.82395046256E+01 -0.24770218003E+01  0.11615682801E+02  0.00000000000E+00 0. -1.
</event>
<event>
 7    1  0.2599124E-010  0.4778728E+02  0.7816164E-02  0.1312668E+00
        -11   -1    0    0    0    0  0.00000000000E+00  0.00000000000E+00  0.45593999997E+02  0.45594000000E+02  0.51100000000E-03 0. -1.
         11   -1    0    0    0    0 -0.00000000000E+00 -0.00000000000E+00 -0.45593999997E+02  0.45594000000E+02  0.51100000000E-03 0.  1.
    9900012    2    1    2    0    0 -0.31997729059E+01  0.41999806762E+02  0.10459442675E+02  0.47787282774E+02  0.20000053479E+02 0.  0.
         12    1    1    2    0    0  0.31997729059E+01 -0.41999806762E+02 -0.10459442675E+02  0.43400717226E+02  0.00000000000E+00 0. -1.
         11    1    3    3    0    0 -0.68603290844E+01  0.21744217796E+02  0.30056376581E+01  0.22998021235E+02  0.51100000000E-03 0. -1.
        -11    1    3    3    0    0  0.25513208833E+01  0.20689400833E+02  0.41203568797E+01  0.21249420843E+02  0.51100000000E-03 0.  1.
         12    1    3    3    0    0  0.11092352953E+01 -0.43381186707E+00  0.33334481367E+01  0.35398406965E+01  0.00000000000E+00 0. -1.
</event>
<event>
 7    1  0.2599124E-010  0.4778728E+02  0.7816164E-02  0.1312668E+00
        -11   -1    0    0    0    0  0.00000000000E+00  0.00000000000E+00  0.45593999997E+02  0.45594000000E+02  0.51100000000E-03 0.  1.
         11   -1    0    0    0    0 -0.00000000000E+00 -0.00000000000E+00 -0.45593999997E+02  0.45594000000E+02  0.51100000000E-03 0. -1.
    9900012    2    1    2    0    0 -0.72161835222E+00 -0.39705527599E+02  0.17509210517E+02  0.47787284477E+02  0.20000061243E+02 0.  0.
         12    1    1    2    0    0  0.72161835222E+00  0.39705527599E+02 -0.17509210517E+02  0.43400715523E+02  0.00000000000E+00 0. -1.
         11    1    3    3    0    0 -0.25346741252E+01 -0.93114362283E+01  0.39829283452E+01  0.10439881993E+02  0.51100000000E-03 0. -1.
        -11    1    3    3    0    0 -0.68293467880E+01 -0.20804641739E+02  0.81803309652E+01  0.23375006105E+02  0.51100000000E-03 0.  1.
         12    1    3    3    0    0  0.86424025609E+01 -0.95894496317E+01  0.53459512068E+01  0.13972396379E+02  0.00000000000E+00 0. -1.
</event>
<event>
 7    1  0.2599124E-010  0.4778727E+02  0.7816164E-02  0.1312668E+00
        -11   -1    0    0    0    0  0.00000000000E+00  0.00000000000E+00  0.45593999997E+02  0.45594000000E+02  0.51100000000E-03 0.  1.
         11   -1    0    0    0    0 -0.00000000000E+00 -0.00000000000E+00 -0.45593999997E+02  0.45594000000E+02  0.51100000000E-03 0. -1.
    9900012    2    1    2    0    0  0.10933536021E+02  0.63918335250E+00  0.41996102078E+02  0.47787270109E+02  0.19999995735E+02 0.  0.
         12    1    1    2    0    0 -0.10933536021E+02 -0.63918335250E+00 -0.41996102078E+02  0.43400729891E+02  0.00000000000E+00 0. -1.
         11    1    3    3    0    0 -0.68579298326E+00  0.40470580854E+01  0.21615899381E+01  0.46391230297E+01  0.51100000000E-03 0. -1.
        -11    1    3    3    0    0  0.28482185172E+01 -0.53310331924E+01  0.77355897456E+01  0.98169044302E+01  0.51100000000E-03 0.  1.
         12    1    3    3    0    0  0.87711104872E+01  0.19231584594E+01  0.32098922395E+02  0.33331242649E+02  0.00000000000E+00 0. -1.
</event>
<event>
 7    1  0.2599124E-010  0.4778727E+02  0.7816164E-02  0.1312668E+00
        -11   -1    0    0    0    0  0.00000000000E+00  0.00000000000E+00  0.45593999997E+02  0.45594000000E+02  0.51100000000E-03 0. -1.
         11   -1    0    0    0    0 -0.00000000000E+00 -0.00000000000E+00 -0.45593999997E+02  0.45594000000E+02  0.51100000000E-03 0.  1.
    9900012    2    1    2    0    0 -0.15951900567E+02 -0.23674142440E+02 -0.32690900656E+02  0.47787272614E+02  0.20000007155E+02 0.  0.
         12    1    1    2    0    0  0.15951900567E+02  0.23674142440E+02  0.32690900656E+02  0.43400727386E+02  0.00000000000E+00 0. -1.
         11    1    3    3    0    0 -0.15012674352E+01  0.69694668899E+00 -0.40018537483E+00  0.17028467913E+01  0.51100000000E-03 0. -1.
        -11    1    3    3    0    0 -0.17313971321E+02 -0.23616115243E+02 -0.31522634229E+02  0.43025236444E+02  0.51100000000E-03 0.  1.
         12    1    3    3    0    0  0.28633381887E+01 -0.75497388629E+00 -0.76808105186E+00  0.30591893786E+01  0.00000000000E+00 0. -1.
</event>
<event>
 7    1  0.2599124E-010  0.4778727E+02  0.7816164E-02  0.1312668E+00
        -11   -1    0    0    0    0  0.00000000000E+00  0.00000000000E+00  0.45593999997E+02  0.45594000000E+02  0.51100000000E-03 0. -1.
         11   -1    0    0    0    0 -0.00000000000E+00 -0.00000000000E+00 -0.45593999997E+02  0.45594000000E+02  0.51100000000E-03 0.  1.
    9900012    2    1    2    0    0 -0.25427783467E+02 -0.35037905171E+02 -0.30653619494E+01  0.47787269422E+02  0.19999992603E+02 0.  0.
         12    1    1    2    0    0  0.25427783467E+02  0.35037905171E+02  0.30653619494E+01  0.43400730578E+02  0.00000000000E+00 0. -1.
         11    1    3    3    0    0  0.60916367803E+00 -0.28156566027E+01 -0.23423948891E+01  0.37129256078E+01  0.51100000000E-03 0. -1.
        -11    1    3    3    0    0 -0.84982073077E+01 -0.17457066796E+02  0.57544885833E+01  0.20250502405E+02  0.51100000000E-03 0.  1.
        -12    1    3    3    0    0 -0.17538739837E+02 -0.14765181773E+02 -0.64774556435E+01  0.23823841409E+02  0.00000000000E+00 0.  1.
</event>
<event>
 7    1  0.2599124E-010  0.4778727E+02  0.7816164E-02  0.1312668E+00
        -11   -1    0    0    0    0  0.00000000000E+00  0.00000000000E+00  0.45593999997E+02  0.45594000000E+02  0.51100000000E-03 0.  1.
         11   -1    0    0    0    0 -0.00000000000E+00 -0.00000000000E+00 -0.45593999997E+02  0.45594000000E+02  0.51100000000E-03 0. -1.
    9900012    2    1    2    0    0 -0.13437988730E+01 -0.28764642384E+02  0.32471723804E+02  0.47787270816E+02  0.19999998960E+02 0.  0.
         12    1    1    2    0    0  0.13437988730E+01  0.28764642384E+02 -0.32471723804E+02  0.43400729184E+02  0.00000000000E+00 0. -1.
         11    1    3    3    0    0 -0.16095569877E+01 -0.11528101132E+01  0.44476391505E+01  0.48683815717E+01  0.51100000000E-03 0. -1.
        -11    1    3    3    0    0 -0.30247139800E+00 -0.30012788395E+02  0.26324255366E+02  0.39922742603E+02  0.51100000000E-03 0.  1.
         12    1    3    3    0    0  0.56822951269E+00  0.24009561239E+01  0.16998292879E+01  0.29961466412E+01  0.00000000000E+00 0. -1.
</event>
<event>
 7    1  0.2599124E-010  0.4778727E+02  0.7816164E-02  0.1312668E+00
        -11   -1    0    0    0    0  0.00000000000E+00  0.00000000000E+00  0.45593999997E+02  0.45594000000E+02  0.51100000000E-03 0.  1.
         11   -1    0    0    0    0 -0.00000000000E+00 -0.00000000000E+00 -0.45593999997E+02  0.45594000000E+02  0.51100000000E-03 0. -1.
    9900012    2    1    2    0    0 -0.19995975861E+02 -0.36855968076E+02  0.11199197250E+02  0.47787268986E+02  0.19999990617E+02 0.  0.
         12    1    1    2    0    0  0.19995975861E+02  0.36855968076E+02 -0.11199197250E+02  0.43400731014E+02  0.00000000000E+00 0. -1.
         11    1    3    3    0    0 -0.47204724009E+01 -0.66513215974E+01 -0.12692914883E+01  0.82543346081E+01  0.51100000000E-03 0. -1.
        -11    1    3    3    0    0  0.11345252299E+01 -0.14911434950E+02  0.33899542214E+01  0.15333943708E+02  0.51100000000E-03 0.  1.
         12    1    3    3    0    0 -0.16410028690E+02 -0.15293211529E+02  0.90785345166E+01  0.24198990670E+02  0.00000000000E+00 0. -1.
</event>
<event>
 7    1  0.2599124E-010  0.4778727E+02  0.7816164E-02  0.1312668E+00
        -11   -1    0    0    0    0  0.00000000000E+00  0.00000000000E+00  0.45593999997E+02  0.45594000000E+02  0.51100000000E-03 0.  1.
         11   -1    0    0    0    0 -0.00000000000E+00 -0.00000000000E+00 -0.45593999997E+02  0.45594000000E+02  0.51100000000E-03 0. -1.
    9900012    2    1    2    0    0  0.14431762768E+02  0.23923645640E+02  0.33211546476E+02  0.47787269400E+02  0.19999992503E+02 0.  0.
         12    1    1    2    0    0 -0.14431762768E+02 -0.23923645640E+02 -0.33211546476E+02  0.43400730600E+02  0.00000000000E+00 0. -1.
         11    1    3    3    0    0  0.38035652984E+01 -0.17462801071E+01  0.97274041911E+01  0.10589570140E+02  0.51100000000E-03 0. -1.
        -11    1    3    3    0    0 -0.38302327349E+00  0.67087997093E+01  0.74580127007E+01  0.10038757596E+02  0.51100000000E-03 0.  1.
        -12    1    3    3    0    0  0.11011220743E+02  0.18961126038E+02  0.16026129584E+02  0.27158941664E+02  0.00000000000E+00 0.  1.
</event>
<event>
 7    1  0.2599124E-010  0.4778727E+02  0.7816164E-02  0.1312668E+00
        -11   -1    0    0    0    0  0.00000000000E+00  0.00000000000E+00  0.45593999997E+02  0.45594000000E+02  0.51100000000E-03 0. -1.
         11   -1    0    0    0    0 -0.00000000000E+00 -0.00000000000E+00 -0.45593999997E+02  0.45594000000E+02  0.51100000000E-03 0.  1.
    9900012    2    1    2    0    0  0.11874284357E+02 -0.93515999190E+01 -0.40683808604E+02  0.47787270368E+02  0.19999996915E+02 0.  0.
         12    1    1    2    0    0 -0.11874284357E+02  0.93515999190E+01  0.40683808604E+02  0.43400729632E+02  0.00000000000E+00 0. -1.
         11    1    3    3    0    0 -0.19661425810E+01  0.31532673767E+01 -0.71819820252E+01  0.80863884318E+01  0.51100000000E-03 0. -1.
        -11    1    3    3    0    0 -0.83529408669E+00 -0.28321614775E+01 -0.18160049579E+01  0.34665154138E+01  0.51100000000E-03 0.  1.
        -12    1    3    3    0    0  0.14675721025E+02 -0.96727058182E+01 -0.31685821621E+02  0.36234366522E+02  0.00000000000E+00 0.  1.
</event>
<event>
 7    1  0.2599124E-010  0.4778727E+02  0.7816164E-02  0.1312668E+00
        -11   -1    0    0    0    0  0.00000000000E+00  0.00000000000E+00  0.45593999997E+02  0.45594000000E+02  0.51100000000E-03 0.  1.
         11   -1    0    0    0    0 -0.00000000000E+00 -0.00000000000E+00 -0.45593999997E+02  0.45594000000E+02  0.51100000000E-03 0. -1.
    9900012    2    1    2    0    0 -0.42575269003E+02  0.72635991087E+01  0.42673547401E+01  0.47787265915E+02  0.19999976611E+02 0.  0.
         12    1    1    2    0    0  0.42575269003E+02 -0.72635991087E+01 -0.42673547401E+01  0.43400734085E+02  0.00000000000E+00 0. -1.
         11    1    3    3    0    0 -0.96403507127E+01 -0.31049534349E+01  0.60410850102E+01  0.11792870985E+02  0.51100000000E-03 0. -1.
        -11    1    3    3    0    0 -0.79921962665E+00  0.27093835378E+01 -0.83343523386E+00  0.29451868729E+01  0.51100000000E-03 0.  1.
        -12    1    3    3    0    0 -0.32135698663E+02  0.76591690059E+01 -0.94029503617E+00  0.33049208057E+02  0.00000000000E+00 0.  1.
</event>
<event>
 7    1  0.2599124E-010  0.4778727E+02  0.7816164E-02  0.1312668E+00
        -11   -1    0    0    0    0  0.00000000000E+00  0.00000000000E+00  0.45593999997E+02  0.45594000000E+02  0.51100000000E-03 0. -1.
         11   -1    0    0    0    0 -0.00000000000E+00 -0.00000000000E+00 -0.45593999997E+02  0.45594000000E+02  0.51100000000E-03 0.  1.
    9900012    2    1    2    0    0 -0.12639988879E+02 -0.36901042723E+02 -0.19030684294E+02  0.47787271693E+02  0.20000002956E+02 0.  0.
         12    1    1    2    0    0  0.12639988879E+02  0.36901042723E+02  0.19030684294E+02  0.43400728307E+02  0.00000000000E+00 0. -1.
         11    1    3    3    0    0 -0.48626701221E+01 -0.74912332816E+01  0.14885696891E+01  0.90542794730E+01  0.51100000000E-03 0. -1.
        -11    1    3    3    0    0 -0.48984562799E+01 -0.97128575772E+01 -0.11169105009E+01  0.10935353930E+02  0.51100000000E-03 0.  1.
         12    1    3    3    0    0 -0.28788624767E+01 -0.19696951864E+02 -0.19402343483E+02  0.27797638290E+02  0.00000000000E+00 0. -1.
</event>
<event>
 7    1  0.2599124E-010  0.4778727E+02  0.7816164E-02  0.1312668E+00
        -11   -1    0    0    0    0  0.00000000000E+00  0.00000000000E+00  0.45593999997E+02  0.45594000000E+02  0.51100000000E-03 0. -1.
         11   -1    0    0    0    0 -0.00000000000E+00 -0.00000000000E+00 -0.45593999997E+02  0.45594000000E+02  0.51100000000E-03 0.  1.
    9900012    2    1    2    0    0  0.21933371778E+02  0.16096111972E+02 -0.33815166123E+02  0.47787273300E+02  0.20000010283E+02 0.  0.
         12    1    1    2    0    0 -0.21933371778E+02 -0.16096111972E+02  0.33815166123E+02  0.43400726700E+02  0.00000000000E+00 0. -1.
         11    1    3    3    0    0  0.65019458539E+00 -0.52495450945E+00  0.29814836458E+00  0.88725585052E+00  0.51100000000E-03 0. -1.
        -11    1    3    3    0    0  0.63986883727E+01  0.63891596337E+01 -0.89226935877E+00  0.90862928956E+01  0.51100000000E-03 0.  1.
         12    1    3    3    0    0  0.14884488820E+02  0.10231906848E+02 -0.33221045129E+02  0.37813724554E+02  0.00000000000E+00 0. -1.
</event>
<event>
 7    1  0.2599124E-010  0.4778727E+02  0.7816164E-02  0.1312668E+00
        -11   -1    0    0    0    0  0.00000000000E+00  0.00000000000E+00  0.45593999997E+02  0.45594000000E+02  0.51100000000E-03 0. -1.
         11   -1    0    0    0    0 -0.00000000000E+00 -0.00000000000E+00 -0.45593999997E+02  0.45594000000E+02  0.51100000000E-03 0.  1.
    9900012    2    1    2    0    0 -0.37156480958E+02  0.17196134162E+02 -0.14398338799E+02  0.47787271119E+02  0.20000000338E+02 0.  0.
         12    1    1    2    0    0  0.37156480958E+02 -0.17196134162E+02  0.14398338799E+02  0.43400728881E+02  0.00000000000E+00 0. -1.
         11    1    3    3    0    0 -0.26188243578E+02  0.11771653661E+02 -0.36780102007E+01  0.28946911595E+02  0.51100000000E-03 0.  1.
        -11    1    3    3    0    0 -0.11875401129E+02  0.41005751635E+01 -0.11521551983E+02  0.17046584086E+02  0.51100000000E-03 0. -1.
        -12    1    3    3    0    0  0.90716374873E+00  0.13239053370E+01  0.80122338455E+00  0.17937754375E+01  0.00000000000E+00 0.  1.
</event>
<event>
 7    1  0.2599124E-010  0.4778726E+02  0.7816164E-02  0.1312668E+00
        -11   -1    0    0    0    0  0.00000000000E+00  0.00000000000E+00  0.45593999997E+02  0.45594000000E+02  0.51100000000E-03 0. -1.
         11   -1    0    0    0    0 -0.00000000000E+00 -0.00000000000E+00 -0.45593999997E+02  0.45594000000E+02  0.51100000000E-03 0.  1.
    9900012    2    1    2    0    0 -0.19765868406E+02  0.35653182453E+02  0.14892444456E+02  0.47787264122E+02  0.19999968437E+02 0.  0.
         12    1    1    2    0    0  0.19765868406E+02 -0.35653182453E+02 -0.14892444456E+02  0.43400735878E+02  0.00000000000E+00 0. -1.
         11    1    3    3    0    0 -0.10867985761E+02  0.20403591675E+02  0.11428477067E+02  0.25788170855E+02  0.51100000000E-03 0. -1.
        -11    1    3    3    0    0 -0.10850729065E+02  0.15961313086E+02  0.42747815446E+01  0.19768044774E+02  0.51100000000E-03 0.  1.
        -12    1    3    3    0    0  0.19528464202E+01 -0.71172230706E+00 -0.81081415528E+00  0.22310484929E+01  0.00000000000E+00 0.  1.
</event>
<event>
 7    1  0.2599124E-010  0.4778727E+02  0.7816164E-02  0.1312668E+00
        -11   -1    0    0    0    0  0.00000000000E+00  0.00000000000E+00  0.45593999997E+02  0.45594000000E+02  0.51100000000E-03 0.  1.
         11   -1    0    0    0    0 -0.00000000000E+00 -0.00000000000E+00 -0.45593999997E+02  0.45594000000E+02  0.51100000000E-03 0. -1.
    9900012    2    1    2    0    0  0.26279126328E+02 -0.33291609753E+02 -0.92032249263E+01  0.47787272938E+02  0.20000008632E+02 0.  0.
         12    1    1    2    0    0 -0.26279126328E+02  0.33291609753E+02  0.92032249263E+01  0.43400727062E+02  0.00000000000E+00 0. -1.
         11    1    3    3    0    0  0.33885486529E+01  0.16914924794E+01 -0.32870564987E+01  0.50147930633E+01  0.51100000000E-03 0. -1.
        -11    1    3    3    0    0  0.72548788631E+01 -0.16746331528E+02 -0.39293161535E+01  0.18668487155E+02  0.51100000000E-03 0.  1.
        -12    1    3    3    0    0  0.15635698812E+02 -0.18236770704E+02 -0.19868522740E+01  0.24103992720E+02  0.00000000000E+00 0.  1.
</event>
<event>
 7    1  0.2599124E-010  0.4778727E+02  0.7816164E-02  0.1312668E+00
        -11   -1    0    0    0    0  0.00000000000E+00  0.00000000000E+00  0.45593999997E+02  0.45594000000E+02  0.51100000000E-03 0.  1.
         11   -1    0    0    0    0 -0.00000000000E+00 -0.00000000000E+00 -0.45593999997E+02  0.45594000000E+02  0.51100000000E-03 0. -1.
    9900012    2    1    2    0    0 -0.26151194868E+02 -0.23203359500E+02  0.25716574055E+02  0.47787273437E+02  0.20000010907E+02 0.  0.
         12    1    1    2    0    0  0.26151194868E+02  0.23203359500E+02 -0.25716574055E+02  0.43400726563E+02  0.00000000000E+00 0. -1.
         11    1    3    3    0    0 -0.10096766171E+02 -0.56626521336E+01  0.15307659738E+02  0.19192049479E+02  0.51100000000E-03 0. -1.
        -11    1    3    3    0    0 -0.14695318318E+02 -0.88944705710E+01  0.99043981668E+01  0.19828290156E+02  0.51100000000E-03 0.  1.
        -12    1    3    3    0    0 -0.13591103792E+01 -0.86462367949E+01  0.50451615085E+00  0.87669338017E+01  0.00000000000E+00 0.  1.
</event>
<event>
 7    1  0.2599124E-010  0.4778728E+02  0.7816164E-02  0.1312668E+00
        -11   -1    0    0    0    0  0.00000000000E+00  0.00000000000E+00  0.45593999997E+02  0.45594000000E+02  0.51100000000E-03 0.  1.
         11   -1    0    0    0    0 -0.00000000000E+00 -0.00000000000E+00 -0.45593999997E+02  0.45594000000E+02  0.51100000000E-03 0. -1.
    9900012    2    1    2    0    0 -0.54589087100E+01  0.38223594132E+02  0.19818679145E+02  0.47787275632E+02  0.20000020914E+02 0.  0.
         12    1    1    2    0    0  0.54589087100E+01 -0.38223594132E+02 -0.19818679145E+02  0.43400724368E+02  0.00000000000E+00 0. -1.
         11    1    3    3    0    0 -0.76655588126E+01  0.33564031225E+02  0.15085012770E+02  0.37588064522E+02  0.51100000000E-03 0. -1.
        -11    1    3    3    0    0 -0.25442754786E+01  0.31002279379E+01  0.17442972525E+01  0.43734796380E+01  0.51100000000E-03 0.  1.
         12    1    3    3    0    0  0.47509255812E+01  0.15593349685E+01  0.29893691227E+01  0.58257314711E+01  0.00000000000E+00 0. -1.
</event>
<event>
 7    1  0.2599124E-010  0.4778727E+02  0.7816164E-02  0.1312668E+00
        -11   -1    0    0    0    0  0.00000000000E+00  0.00000000000E+00  0.45593999997E+02  0.45594000000E+02  0.51100000000E-03 0. -1.
         11   -1    0    0    0    0 -0.00000000000E+00 -0.00000000000E+00 -0.45593999997E+02  0.45594000000E+02  0.51100000000E-03 0.  1.
    9900012    2    1    2    0    0  0.28502705631E+02  0.20777739711E+02 -0.25288436286E+02  0.47787266071E+02  0.19999977324E+02 0.  0.
         12    1    1    2    0    0 -0.28502705631E+02 -0.20777739711E+02  0.25288436286E+02  0.43400733929E+02  0.00000000000E+00 0. -1.
         11    1    3    3    0    0  0.28823746044E+01  0.23488544940E+01 -0.10070400394E+02  0.10734904059E+02  0.51100000000E-03 0. -1.
        -11    1    3    3    0    0  0.82326511208E+01  0.88949212817E+01 -0.11827241974E+02  0.16934574753E+02  0.51100000000E-03 0.  1.
        -12    1    3    3    0    0  0.17387679906E+02  0.95339639348E+01 -0.33907939182E+01  0.20117787260E+02  0.00000000000E+00 0.  1.
</event>
<event>
 7    1  0.2599124E-010  0.4778727E+02  0.7816164E-02  0.1312668E+00
        -11   -1    0    0    0    0  0.00000000000E+00  0.00000000000E+00  0.45593999997E+02  0.45594000000E+02  0.51100000000E-03 0.  1.
         11   -1    0    0    0    0 -0.00000000000E+00 -0.00000000000E+00 -0.45593999997E+02  0.45594000000E+02  0.51100000000E-03 0. -1.
    9900012    2    1    2    0    0  0.26981609721E+02  0.14819162348E+02  0.30594254155E+02  0.47787271629E+02  0.20000002666E+02 0.  0.
         12    1    1    2    0    0 -0.26981609721E+02 -0.14819162348E+02 -0.30594254155E+02  0.43400728371E+02  0.00000000000E+00 0. -1.
         11    1    3    3    0    0  0.30301991485E+01  0.16275372927E+01  0.14226511816E+02  0.14636414289E+02  0.51100000000E-03 0. -1.
        -11    1    3    3    0    0  0.28515046564E+01 -0.12500297784E+01  0.79646733880E+00  0.32137227222E+01  0.51100000000E-03 0.  1.
        -12    1    3    3    0    0  0.21099905916E+02  0.14441654834E+02  0.15571274999E+02  0.29937134618E+02  0.00000000000E+00 0.  1.
</event>
<event>
 7    1  0.2599124E-010  0.4778727E+02  0.7816164E-02  0.1312668E+00
        -11   -1    0    0    0    0  0.00000000000E+00  0.00000000000E+00  0.45593999997E+02  0.45594000000E+02  0.51100000000E-03 0.  1.
         11   -1    0    0    0    0 -0.00000000000E+00 -0.00000000000E+00 -0.45593999997E+02  0.45594000000E+02  0.51100000000E-03 0. -1.
    9900012    2    1    2    0    0  0.18343300023E+02  0.10509355414E+02  0.37903826924E+02  0.47787270715E+02  0.19999998499E+02 0.  0.
         12    1    1    2    0    0 -0.18343300023E+02 -0.10509355414E+02 -0.37903826924E+02  0.43400729285E+02  0.00000000000E+00 0. -1.
         11    1    3    3    0    0 -0.34781041556E+01  0.32853646281E-01  0.24240296741E+01  0.42395999813E+01  0.51100000000E-03 0. -1.
        -11    1    3    3    0    0  0.37786581715E+01  0.52438177056E+01  0.92322727486E+01  0.11269904262E+02  0.51100000000E-03 0.  1.
        -12    1    3    3    0    0  0.18042746008E+02  0.52326840626E+01  0.26247524501E+02  0.32277766472E+02  0.00000000000E+00 0.  1.
</event>
<event>
 7    1  0.2599124E-010  0.4778728E+02  0.7816164E-02  0.1312668E+00
        -11   -1    0    0    0    0  0.00000000000E+00  0.00000000000E+00  0.45593999997E+02  0.45594000000E+02  0.51100000000E-03 0. -1.
         11   -1    0    0    0    0 -0.00000000000E+00 -0.00000000000E+00 -0.45593999997E+02  0.45594000000E+02  0.51100000000E-03 0.  1.
    9900012    2    1    2    0    0 -0.32720027210E+02 -0.18103503037E+02 -0.22029204106E+02  0.47787276085E+02  0.20000022982E+02 0.  0.
         12    1    1    2    0    0  0.32720027210E+02  0.18103503037E+02  0.22029204106E+02  0.43400723915E+02  0.00000000000E+00 0. -1.
         11    1    3    3    0    0 -0.66392745046E+01 -0.30121615486E+01 -0.65449753246E+01  0.97974376959E+01  0.51100000000E-03 0. -1.
        -11    1    3    3    0    0 -0.13709364159E+02  0.52449872562E+00 -0.10960962477E+02  0.17560309315E+02  0.51100000000E-03 0.  1.
         12    1    3    3    0    0 -0.12371388546E+02 -0.15615840214E+02 -0.45232663040E+01  0.20429529074E+02  0.00000000000E+00 0. -1.
</event>
<event>
 7    1  0.2599124E-010  0.4778726E+02  0.7816164E-02  0.1312668E+00
        -11   -1    0    0    0    0  0.00000000000E+00  0.00000000000E+00  0.45593999997E+02  0.45594000000E+02  0.51100000000E-03 0.  1.
         11   -1    0    0    0    0 -0.00000000000E+00 -0.00000000000E+00 -0.45593999997E+02  0.45594000000E+02  0.51100000000E-03 0. -1.
    9900012    2    1    2    0    0  0.44567834476E+01 -0.13635317197E+02  0.40961433539E+02  0.47787264622E+02  0.19999970718E+02 0.  0.
         12    1    1    2    0    0 -0.44567834476E+01  0.13635317197E+02 -0.40961433539E+02  0.43400735378E+02  0.00000000000E+00 0. -1.
         11    1    3    3    0    0  0.15105620036E+01  0.14404823534E+01  0.72128412558E+01  0.75087859351E+01  0.51100000000E-03 0. -1.
        -11    1    3    3    0    0  0.52810464055E+01 -0.12676619400E+02  0.34243358347E+02  0.36894358941E+02  0.51100000000E-03 0.  1.
         12    1    3    3    0    0 -0.23348249614E+01 -0.23991801507E+01 -0.49476606378E+00  0.33841197458E+01  0.00000000000E+00 0. -1.
</event>
<event>
 7    1  0.2599124E-010  0.4778728E+02  0.7816164E-02  0.1312668E+00
        -11   -1    0    0    0    0  0.00000000000E+00  0.00000000000E+00  0.45593999997E+02  0.45594000000E+02  0.51100000000E-03 0.  1.
         11   -1    0    0    0    0 -0.00000000000E+00 -0.00000000000E+00 -0.45593999997E+02  0.45594000000E+02  0.51100000000E-03 0. -1.
    9900012    2    1    2    0    0  0.77345585078E+01 -0.13446988139E+02  0.40533658478E+02  0.47787281631E+02  0.20000048270E+02 0.  0.
         12    1    1    2    0    0 -0.77345585078E+01  0.13446988139E+02 -0.40533658478E+02  0.43400718369E+02  0.00000000000E+00 0. -1.
         11    1    3    3    0    0  0.10799024022E+02 -0.12505650138E+02  0.18689731048E+02  0.24946267298E+02  0.51100000000E-03 0. -1.
        -11    1    3    3    0    0 -0.10269771573E+01 -0.31799973363E+01  0.79978099304E+01  0.86678733888E+01  0.51100000000E-03 0.  1.
        -12    1    3    3    0    0 -0.20374883564E+01  0.22386593361E+01  0.13846117499E+02  0.14173140945E+02  0.00000000000E+00 0.  1.
</event>
<event>
 7    1  0.2599124E-010  0.4778725E+02  0.7816164E-02  0.1312668E+00
        -11   -1    0    0    0    0  0.00000000000E+00  0.00000000000E+00  0.45593999997E+02  0.45594000000E+02  0.51100000000E-03 0.  1.
         11   -1    0    0    0    0 -0.00000000000E+00 -0.00000000000E+00 -0.45593999997E+02  0.45594000000E+02  0.51100000000E-03 0. -1.
    9900012    2    1    2    0    0 -0.29934369722E+02 -0.18071924823E+02  0.25709228779E+02  0.47787246529E+02  0.19999888225E+02 0.  0.
         12    1    1    2    0    0  0.29934369722E+02  0.18071924823E+02 -0.25709228779E+02  0.43400753471E+02  0.00000000000E+00 0. -1.
         11    1    3    3    0    0 -0.70944587493E+01 -0.10499652513E+02  0.69175675201E+01  0.14436993749E+02  0.51100000000E-03 0. -1.
        -11    1    3    3    0    0 -0.18818297756E+02 -0.83824627319E+01  0.85263907250E+01  0.22295590393E+02  0.51100000000E-03 0.  1.
         12    1    3    3    0    0 -0.40216132162E+01  0.81019042248E+00  0.10265270533E+02  0.11054662388E+02  0.00000000000E+00 0. -1.
</event>
<event>
 7    1  0.2599124E-010  0.4778728E+02  0.7816164E-02  0.1312668E+00
        -11   -1    0    0    0    0  0.00000000000E+00  0.00000000000E+00  0.45593999997E+02  0.45594000000E+02  0.51100000000E-03 0.  1.
         11   -1    0    0    0    0 -0.00000000000E+00 -0.00000000000E+00 -0.45593999997E+02  0.45594000000E+02  0.51100000000E-03 0. -1.
    9900012    2    1    2    0    0 -0.40719418998E+02  0.64075771235E+01  0.13582885362E+02  0.47787275318E+02  0.20000019487E+02 0.  0.
         12    1    1    2    0    0  0.40719418998E+02 -0.64075771235E+01 -0.13582885362E+02  0.43400724682E+02  0.00000000000E+00 0. -1.
         11    1    3    3    0    0 -0.36034782458E+01 -0.13107912749E+01  0.40840981303E+01  0.56020609630E+01  0.51100000000E-03 0.  1.
        -11    1    3    3    0    0 -0.28141250869E+02 -0.15442559294E+01  0.58895650255E+01  0.28792389677E+02  0.51100000000E-03 0. -1.
         12    1    3    3    0    0 -0.89746898829E+01  0.92626243279E+01  0.36092222063E+01  0.13392824678E+02  0.00000000000E+00 0. -1.
</event>
<event>
 7    1  0.2599124E-010  0.4778727E+02  0.7816164E-02  0.1312668E+00
        -11   -1    0    0    0    0  0.00000000000E+00  0.00000000000E+00  0.45593999997E+02  0.45594000000E+02  0.51100000000E-03 0.  1.
         11   -1    0    0    0    0 -0.00000000000E+00 -0.00000000000E+00 -0.45593999997E+02  0.45594000000E+02  0.51100000000E-03 0. -1.
    9900012    2    1    2    0    0  0.17802011288E+02  0.33023440403E+01  0.39443708692E+02  0.47787271464E+02  0.20000001913E+02 0.  0.
         12    1    1    2    0    0 -0.17802011288E+02 -0.33023440403E+01 -0.39443708692E+02  0.43400728536E+02  0.00000000000E+00 0. -1.
         11    1    3    3    0    0 -0.98845015387E+00  0.32903682620E+00  0.12342977834E+01  0.16151749809E+01  0.51100000000E-03 0. -1.
        -11    1    3    3    0    0  0.84517495324E+01 -0.56680610336E+00  0.25059073076E+01  0.88336238890E+01  0.51100000000E-03 0.  1.
        -12    1    3    3    0    0  0.10338711909E+02  0.35401133175E+01  0.35703503601E+02  0.37338472594E+02  0.00000000000E+00 0.  1.
</event>
<event>
 7    1  0.2599124E-010  0.4778727E+02  0.7816164E-02  0.1312668E+00
        -11   -1    0    0    0    0  0.00000000000E+00  0.00000000000E+00  0.45593999997E+02  0.45594000000E+02  0.51100000000E-03 0.  1.
         11   -1    0    0    0    0 -0.00000000000E+00 -0.00000000000E+00 -0.45593999997E+02  0.45594000000E+02  0.51100000000E-03 0. -1.
    9900012    2    1    2    0    0 -0.10598054820E+02 -0.22422559951E+01  0.42027096655E+02  0.47787270385E+02  0.19999996992E+02 0.  0.
         12    1    1    2    0    0  0.10598054820E+02  0.22422559951E+01 -0.42027096655E+02  0.43400729615E+02  0.00000000000E+00 0. -1.
         11    1    3    3    0    0 -0.42906366733E+01  0.34636681007E+01  0.44112797902E+01  0.70615826429E+01  0.51100000000E-03 0.  1.
        -11    1    3    3    0    0 -0.59913659985E+01  0.30227618358E+01  0.19310694693E+02  0.20443494942E+02  0.51100000000E-03 0. -1.
         12    1    3    3    0    0 -0.31605214784E+00 -0.87286859316E+01  0.18305122171E+02  0.20282192800E+02  0.00000000000E+00 0. -1.
</event>
<event>
 7    1  0.2599124E-010  0.4778727E+02  0.7816164E-02  0.1312668E+00
        -11   -1    0    0    0    0  0.00000000000E+00  0.00000000000E+00  0.45593999997E+02  0.45594000000E+02  0.51100000000E-03 0. -1.
         11   -1    0    0    0    0 -0.00000000000E+00 -0.00000000000E+00 -0.45593999997E+02  0.45594000000E+02  0.51100000000E-03 0.  1.
    9900012    2    1    2    0    0  0.11795192427E+02  0.31822567103E+02 -0.27052189770E+02  0.47787270597E+02  0.19999997959E+02 0.  0.
         12    1    1    2    0    0 -0.11795192427E+02 -0.31822567103E+02  0.27052189770E+02  0.43400729403E+02  0.00000000000E+00 0. -1.
         11    1    3    3    0    0  0.90981695230E+01  0.20305013832E+02 -0.13338436970E+02  0.25941938564E+02  0.51100000000E-03 0. -1.
        -11    1    3    3    0    0  0.26750722007E+01  0.13272475902E+02 -0.14572438312E+02  0.19891470194E+02  0.51100000000E-03 0.  1.
         12    1    3    3    0    0  0.21950703049E-01 -0.17549226316E+01  0.85868551240E+00  0.19538618389E+01  0.00000000000E+00 0. -1.
</event>
<event>
 7    1  0.2824044E-010  0.4778727E+02  0.7816164E-02  0.1312668E+00
        -11   -1    0    0    0    0  0.00000000000E+00  0.00000000000E+00  0.45593999997E+02  0.45594000000E+02  0.51100000000E-03 0. -1.
         11   -1    0    0    0    0 -0.00000000000E+00 -0.00000000000E+00 -0.45593999997E+02  0.45594000000E+02  0.51100000000E-03 0.  1.
    9900012    2    1    2    0    0 -0.30973108230E+02 -0.26983586311E+01 -0.30282149988E+02  0.47787272119E+02  0.20000004899E+02 0.  0.
         12    1    1    2    0    0  0.30973108230E+02  0.26983586311E+01  0.30282149988E+02  0.43400727881E+02  0.00000000000E+00 0. -1.
         11    1    3    3    0    0 -0.49907535214E+01 -0.49849700613E+01 -0.32804103792E+01  0.77793727087E+01  0.51100000000E-03 0.  1.
        -11    1    3    3    0    0 -0.73329256767E+01 -0.50869118135E+00 -0.17308709237E+02  0.18804839308E+02  0.51100000000E-03 0. -1.
        -12    1    3    3    0    0 -0.18649429032E+02  0.27953026115E+01 -0.96930303719E+01  0.21203060102E+02  0.00000000000E+00 0.  1.
</event>
<event>
 7    1  0.2599124E-010  0.4778727E+02  0.7816164E-02  0.1312668E+00
        -11   -1    0    0    0    0  0.00000000000E+00  0.00000000000E+00  0.45593999997E+02  0.45594000000E+02  0.51100000000E-03 0.  1.
         11   -1    0    0    0    0 -0.00000000000E+00 -0.00000000000E+00 -0.45593999997E+02  0.45594000000E+02  0.51100000000E-03 0. -1.
    9900012    2    1    2    0    0  0.39761913308E+01 -0.33491992069E+02  0.27314827938E+02  0.47787268952E+02  0.19999990458E+02 0.  0.
         12    1    1    2    0    0 -0.39761913308E+01  0.33491992069E+02 -0.27314827938E+02  0.43400731048E+02  0.00000000000E+00 0. -1.
         11    1    3    3    0    0  0.58804467034E+00 -0.41750819567E+01  0.24521631172E+01  0.48775208963E+01  0.51100000000E-03 0. -1.
        -11    1    3    3    0    0 -0.51911299355E+01 -0.24651959403E+02  0.17355812240E+02  0.30592338113E+02  0.51100000000E-03 0.  1.
         12    1    3    3    0    0  0.85792765959E+01 -0.46649507097E+01  0.75068525801E+01  0.12317409943E+02  0.00000000000E+00 0. -1.
</event>
<event>
 7    1  0.3220187E-010  0.4778727E+02  0.7816164E-02  0.1312668E+00
        -11   -1    0    0    0    0  0.00000000000E+00  0.00000000000E+00  0.45593999997E+02  0.45594000000E+02  0.51100000000E-03 0. -1.
         11   -1    0    0    0    0 -0.00000000000E+00 -0.00000000000E+00 -0.45593999997E+02  0.45594000000E+02  0.51100000000E-03 0.  1.
    9900012    2    1    2    0    0  0.21063862976E+02 -0.10030353804E+02 -0.36596846812E+02  0.47787268238E+02  0.19999987204E+02 0.  0.
         12    1    1    2    0    0 -0.21063862976E+02  0.10030353804E+02  0.36596846812E+02  0.43400731762E+02  0.00000000000E+00 0. -1.
         11    1    3    3    0    0  0.41348088244E+01  0.25171643955E+01 -0.48030247249E+01  0.68192233705E+01  0.51100000000E-03 0. -1.
        -11    1    3    3    0    0  0.17269100640E+02 -0.88522334756E+01 -0.17269928767E+02  0.25977573295E+02  0.51100000000E-03 0.  1.
        -12    1    3    3    0    0 -0.34004648751E+00 -0.36952847236E+01 -0.14523893320E+02  0.14990471572E+02  0.00000000000E+00 0.  1.
</event>
<event>
 7    1  0.2599124E-010  0.4778727E+02  0.7816164E-02  0.1312668E+00
        -11   -1    0    0    0    0  0.00000000000E+00  0.00000000000E+00  0.45593999997E+02  0.45594000000E+02  0.51100000000E-03 0. -1.
         11   -1    0    0    0    0 -0.00000000000E+00 -0.00000000000E+00 -0.45593999997E+02  0.45594000000E+02  0.51100000000E-03 0.  1.
    9900012    2    1    2    0    0  0.11686710966E+01  0.22598116026E+02 -0.37034886467E+02  0.47787268950E+02  0.19999990452E+02 0.  0.
         12    1    1    2    0    0 -0.11686710966E+01 -0.22598116026E+02  0.37034886467E+02  0.43400731050E+02  0.00000000000E+00 0. -1.
         11    1    3    3    0    0  0.22670408045E+01  0.46760225629E+01 -0.83124698478E+01  0.98031533830E+01  0.51100000000E-03 0.  1.
        -11    1    3    3    0    0 -0.77578364456E+01  0.59384553643E+01 -0.60574254545E+01  0.11495289550E+02  0.51100000000E-03 0. -1.
         12    1    3    3    0    0  0.66594667377E+01  0.11983638099E+02 -0.22664991164E+02  0.26488826018E+02  0.00000000000E+00 0. -1.
</event>
<event>
 7    1  0.3796940E-010  0.4778726E+02  0.7816164E-02  0.1312668E+00
        -11   -1    0    0    0    0  0.00000000000E+00  0.00000000000E+00  0.45593999997E+02  0.45594000000E+02  0.51100000000E-03 0. -1.
         11   -1    0    0    0    0 -0.00000000000E+00 -0.00000000000E+00 -0.45593999997E+02  0.45594000000E+02  0.51100000000E-03 0.  1.
    9900012    2    1    2    0    0  0.30731529589E+02 -0.38495923411E+01 -0.30403589612E+02  0.47787256534E+02  0.19999933842E+02 0.  0.
         12    1    1    2    0    0 -0.30731529589E+02  0.38495923411E+01  0.30403589612E+02  0.43400743466E+02  0.00000000000E+00 0. -1.
         11    1    3    3    0    0  0.26576457084E+01 -0.15222384827E+01  0.14572293833E+01  0.33917264699E+01  0.51100000000E-03 0. -1.
        -11    1    3    3    0    0  0.87827854407E+01 -0.61153178343E+01 -0.15406423742E+02  0.18758793274E+02  0.51100000000E-03 0.  1.
        -12    1    3    3    0    0  0.19291098440E+02  0.37879639759E+01 -0.16454395253E+02  0.25636736790E+02  0.00000000000E+00 0.  1.
</event>
<event>
 7    1  0.2599124E-010  0.4778727E+02  0.7816164E-02  0.1312668E+00
        -11   -1    0    0    0    0  0.00000000000E+00  0.00000000000E+00  0.45593999997E+02  0.45594000000E+02  0.51100000000E-03 0. -1.
         11   -1    0    0    0    0 -0.00000000000E+00 -0.00000000000E+00 -0.45593999997E+02  0.45594000000E+02  0.51100000000E-03 0.  1.
    9900012    2    1    2    0    0  0.25540585419E+02  0.25410863975E+02  0.24198964220E+02  0.47787269812E+02  0.19999994382E+02 0.  0.
         12    1    1    2    0    0 -0.25540585419E+02 -0.25410863975E+02 -0.24198964220E+02  0.43400730188E+02  0.00000000000E+00 0. -1.
         11    1    3    3    0    0  0.19619684399E+02  0.19022208691E+02  0.14562260848E+02  0.30965075176E+02  0.51100000000E-03 0. -1.
        -11    1    3    3    0    0  0.82340235884E+01  0.74732837719E+01  0.86319858656E+01  0.14076941963E+02  0.51100000000E-03 0.  1.
         12    1    3    3    0    0 -0.23131225680E+01 -0.10846284880E+01  0.10047175063E+01  0.27452526731E+01  0.00000000000E+00 0. -1.
</event>
<event>
 7    1  0.2599124E-010  0.4778727E+02  0.7816164E-02  0.1312668E+00
        -11   -1    0    0    0    0  0.00000000000E+00  0.00000000000E+00  0.45593999997E+02  0.45594000000E+02  0.51100000000E-03 0.  1.
         11   -1    0    0    0    0 -0.00000000000E+00 -0.00000000000E+00 -0.45593999997E+02  0.45594000000E+02  0.51100000000E-03 0. -1.
    9900012    2    1    2    0    0  0.32730967647E+02  0.19038222513E+02 -0.21209739042E+02  0.47787272013E+02  0.20000004417E+02 0.  0.
         12    1    1    2    0    0 -0.32730967647E+02 -0.19038222513E+02  0.21209739042E+02  0.43400727987E+02  0.00000000000E+00 0. -1.
         11    1    3    3    0    0  0.69915404127E+01 -0.18786722126E+01 -0.42605264950E+01  0.84001864801E+01  0.51100000000E-03 0. -1.
        -11    1    3    3    0    0  0.26016858683E+02  0.17122563751E+02 -0.12571479630E+02  0.33587218186E+02  0.51100000000E-03 0.  1.
         12    1    3    3    0    0 -0.27743144850E+00  0.37943309746E+01 -0.43777329167E+01  0.57998673470E+01  0.00000000000E+00 0. -1.
</event>
<event>
 7    1  0.2599124E-010  0.4778727E+02  0.7816164E-02  0.1312668E+00
        -11   -1    0    0    0    0  0.00000000000E+00  0.00000000000E+00  0.45593999997E+02  0.45594000000E+02  0.51100000000E-03 0.  1.
         11   -1    0    0    0    0 -0.00000000000E+00 -0.00000000000E+00 -0.45593999997E+02  0.45594000000E+02  0.51100000000E-03 0. -1.
    9900012    2    1    2    0    0 -0.28669307577E+01  0.88315852956E+01  0.42395843009E+02  0.47787266190E+02  0.19999977867E+02 0.  0.
         12    1    1    2    0    0  0.28669307577E+01 -0.88315852956E+01 -0.42395843009E+02  0.43400733810E+02  0.00000000000E+00 0. -1.
         11    1    3    3    0    0  0.44674055693E+01  0.35431864304E+01  0.20885882309E+01  0.60724034501E+01  0.51100000000E-03 0. -1.
        -11    1    3    3    0    0 -0.17448966561E+01  0.44852928344E+01  0.13869786801E+02  0.14681059305E+02  0.51100000000E-03 0.  1.
         12    1    3    3    0    0 -0.55894396709E+01  0.80310603078E+00  0.26437467977E+02  0.27033803435E+02  0.00000000000E+00 0. -1.
</event>
<event>
 7    1  0.2599124E-010  0.4778727E+02  0.7816164E-02  0.1312668E+00
        -11   -1    0    0    0    0  0.00000000000E+00  0.00000000000E+00  0.45593999997E+02  0.45594000000E+02  0.51100000000E-03 0.  1.
         11   -1    0    0    0    0 -0.00000000000E+00 -0.00000000000E+00 -0.45593999997E+02  0.45594000000E+02  0.51100000000E-03 0. -1.
    9900012    2    1    2    0    0  0.34074564501E+02 -0.26636259979E+02 -0.36134122740E+01  0.47787273741E+02  0.20000012293E+02 0.  0.
         12    1    1    2    0    0 -0.34074564501E+02  0.26636259979E+02  0.36134122740E+01  0.43400726259E+02  0.00000000000E+00 0. -1.
         11    1    3    3    0    0  0.69831463908E+01 -0.57050393234E+01 -0.23118477998E+01  0.93089445002E+01  0.51100000000E-03 0. -1.
        -11    1    3    3    0    0  0.24272795114E+02 -0.15568915353E+02 -0.75155438500E+01  0.29800052140E+02  0.51100000000E-03 0.  1.
         12    1    3    3    0    0  0.28186229959E+01 -0.53623053020E+01  0.62139793759E+01  0.86782771002E+01  0.00000000000E+00 0. -1.
</event>
<event>
 7    1  0.2599124E-010  0.4778727E+02  0.7816164E-02  0.1312668E+00
        -11   -1    0    0    0    0  0.00000000000E+00  0.00000000000E+00  0.45593999997E+02  0.45594000000E+02  0.51100000000E-03 0. -1.
         11   -1    0    0    0    0 -0.00000000000E+00 -0.00000000000E+00 -0.45593999997E+02  0.45594000000E+02  0.51100000000E-03 0.  1.
    9900012    2    1    2    0    0 -0.94063874878E+00  0.32229841135E+02 -0.29051264562E+02  0.47787269205E+02  0.19999991616E+02 0.  0.
         12    1    1    2    0    0  0.94063874878E+00 -0.32229841135E+02  0.29051264562E+02  0.43400730795E+02  0.00000000000E+00 0. -1.
         11    1    3    3    0    0 -0.59311239211E+00  0.40290375000E+00  0.14854657046E+01  0.16494612339E+01  0.51100000000E-03 0. -1.
        -11    1    3    3    0    0 -0.21816847411E+01  0.49343737111E+01 -0.12746468840E+02  0.13841252125E+02  0.51100000000E-03 0.  1.
         12    1    3    3    0    0  0.18341583844E+01  0.26892563674E+02 -0.17790261426E+02  0.32296555847E+02  0.00000000000E+00 0. -1.
</event>
<event>
 7    1  0.2599124E-010  0.4778727E+02  0.7816164E-02  0.1312668E+00
        -11   -1    0    0    0    0  0.00000000000E+00  0.00000000000E+00  0.45593999997E+02  0.45594000000E+02  0.51100000000E-03 0.  1.
         11   -1    0    0    0    0 -0.00000000000E+00 -0.00000000000E+00 -0.45593999997E+02  0.45594000000E+02  0.51100000000E-03 0. -1.
    9900012    2    1    2    0    0 -0.78128256233E+01 -0.17670253184E+02  0.38863156774E+02  0.47787273667E+02  0.20000011958E+02 0.  0.
         12    1    1    2    0    0  0.78128256233E+01  0.17670253184E+02 -0.38863156774E+02  0.43400726333E+02  0.00000000000E+00 0. -1.
         11    1    3    3    0    0 -0.28459258146E+00 -0.33635524085E+01 -0.10379197570E+01  0.35315372609E+01  0.51100000000E-03 0. -1.
        -11    1    3    3    0    0  0.16664732292E+01 -0.15714747031E+00  0.79289250702E+01  0.81036831984E+01  0.51100000000E-03 0.  1.
         12    1    3    3    0    0 -0.91947062710E+01 -0.14149553305E+02  0.31972151460E+02  0.36152053208E+02  0.00000000000E+00 0. -1.
</event>
<event>
 7    1  0.2599124E-010  0.4778727E+02  0.7816164E-02  0.1312668E+00
        -11   -1    0    0    0    0  0.00000000000E+00  0.00000000000E+00  0.45593999997E+02  0.45594000000E+02  0.51100000000E-03 0. -1.
         11   -1    0    0    0    0 -0.00000000000E+00 -0.00000000000E+00 -0.45593999997E+02  0.45594000000E+02  0.51100000000E-03 0.  1.
    9900012    2    1    2    0    0  0.28441598542E+02  0.31619390388E+02 -0.86552104222E+01  0.47787273697E+02  0.20000012096E+02 0.  0.
         12    1    1    2    0    0 -0.28441598542E+02 -0.31619390388E+02  0.86552104222E+01  0.43400726303E+02  0.00000000000E+00 0. -1.
         11    1    3    3    0    0 -0.26488426136E+00  0.12504293345E+01 -0.29442382272E+01  0.32097159052E+01  0.51100000000E-03 0. -1.
        -11    1    3    3    0    0  0.88661991784E+01  0.12291660613E+01 -0.14607288561E+01  0.90694027438E+01  0.51100000000E-03 0.  1.
        -12    1    3    3    0    0  0.19840283625E+02  0.29139794992E+02 -0.42502433389E+01  0.35508155049E+02  0.00000000000E+00 0.  1.
</event>
<event>
 7    1  0.2599124E-010  0.4778727E+02  0.7816164E-02  0.1312668E+00
        -11   -1    0    0    0    0  0.00000000000E+00  0.00000000000E+00  0.45593999997E+02  0.45594000000E+02  0.51100000000E-03 0.  1.
         11   -1    0    0    0    0 -0.00000000000E+00 -0.00000000000E+00 -0.45593999997E+02  0.45594000000E+02  0.51100000000E-03 0. -1.
    9900012    2    1    2    0    0 -0.39498782501E+02  0.12070395055E+02  0.13333221944E+02  0.47787273471E+02  0.20000011064E+02 0.  0.
         12    1    1    2    0    0  0.39498782501E+02 -0.12070395055E+02 -0.13333221944E+02  0.43400726529E+02  0.00000000000E+00 0. -1.
         11    1    3    3    0    0  0.18866096253E+00  0.54747209401E+00  0.20807540735E+01  0.21598278700E+01  0.51100000000E-03 0.  1.
        -11    1    3    3    0    0  0.91204734540E+00 -0.13317235268E+01  0.16944988632E+00  0.16229699434E+01  0.51100000000E-03 0. -1.
        -12    1    3    3    0    0 -0.40599490809E+02  0.12854646488E+02  0.11083017984E+02  0.44004475658E+02  0.00000000000E+00 0.  1.
</event>
<event>
 7    1  0.2599124E-010  0.4778727E+02  0.7816164E-02  0.1312668E+00
        -11   -1    0    0    0    0  0.00000000000E+00  0.00000000000E+00  0.45593999997E+02  0.45594000000E+02  0.51100000000E-03 0. -1.
         11   -1    0    0    0    0 -0.00000000000E+00 -0.00000000000E+00 -0.45593999997E+02  0.45594000000E+02  0.51100000000E-03 0.  1.
    9900012    2    1    2    0    0 -0.71885325888E+01 -0.42459269317E+02 -0.53998989719E+01  0.47787268893E+02  0.19999990189E+02 0.  0.
         12    1    1    2    0    0  0.71885325888E+01  0.42459269317E+02  0.53998989719E+01  0.43400731107E+02  0.00000000000E+00 0. -1.
         11    1    3    3    0    0 -0.43687578245E+01 -0.17678099573E+02  0.37750834912E+01  0.18597110127E+02  0.51100000000E-03 0. -1.
        -11    1    3    3    0    0  0.27291657439E+01 -0.69961741700E+00  0.33668762111E-01  0.28176131804E+01  0.51100000000E-03 0.  1.
         12    1    3    3    0    0 -0.55489405082E+01 -0.24081552327E+02 -0.92086512252E+01  0.26372545585E+02  0.00000000000E+00 0. -1.
</event>
<event>
 7    1  0.2599124E-010  0.4778727E+02  0.7816164E-02  0.1312668E+00
        -11   -1    0    0    0    0  0.00000000000E+00  0.00000000000E+00  0.45593999997E+02  0.45594000000E+02  0.51100000000E-03 0.  1.
         11   -1    0    0    0    0 -0.00000000000E+00 -0.00000000000E+00 -0.45593999997E+02  0.45594000000E+02  0.51100000000E-03 0. -1.
    9900012    2    1    2    0    0  0.31880089897E+02 -0.97434194505E+01  0.27791168769E+02  0.47787269407E+02  0.19999992536E+02 0.  0.
         12    1    1    2    0    0 -0.31880089897E+02  0.97434194505E+01 -0.27791168769E+02  0.43400730593E+02  0.00000000000E+00 0. -1.
         11    1    3    3    0    0  0.16012488524E+01 -0.41673324536E-02 -0.84425257862E+00  0.18101872642E+01  0.51100000000E-03 0. -1.
        -11    1    3    3    0    0  0.31023289531E+02 -0.11186192979E+02  0.29398601716E+02  0.44179782591E+02  0.51100000000E-03 0.  1.
        -12    1    3    3    0    0 -0.74444848646E+00  0.14469408612E+01 -0.76318036830E+00  0.17972995519E+01  0.00000000000E+00 0.  1.
</event>
<event>
 7    1  0.2599124E-010  0.4778727E+02  0.7816164E-02  0.1312668E+00
        -11   -1    0    0    0    0  0.00000000000E+00  0.00000000000E+00  0.45593999997E+02  0.45594000000E+02  0.51100000000E-03 0.  1.
         11   -1    0    0    0    0 -0.00000000000E+00 -0.00000000000E+00 -0.45593999997E+02  0.45594000000E+02  0.51100000000E-03 0. -1.
    9900012    2    1    2    0    0 -0.59031491312E+01 -0.11193450011E+02  0.41514850032E+02  0.47787271136E+02  0.20000000415E+02 0.  0.
         12    1    1    2    0    0  0.59031491312E+01  0.11193450011E+02 -0.41514850032E+02  0.43400728864E+02  0.00000000000E+00 0. -1.
         11    1    3    3    0    0 -0.34517392100E+01 -0.81556554598E+01  0.38898360654E+01  0.96726441281E+01  0.51100000000E-03 0. -1.
        -11    1    3    3    0    0 -0.28099224511E+01 -0.19537575019E+01  0.12395401595E+02  0.12859191791E+02  0.51100000000E-03 0.  1.
         12    1    3    3    0    0  0.35851252989E+00 -0.10840370489E+01  0.25229612372E+02  0.25255435217E+02  0.00000000000E+00 0. -1.
</event>
<event>
 7    1  0.2599124E-010  0.4778727E+02  0.7816164E-02  0.1312668E+00
        -11   -1    0    0    0    0  0.00000000000E+00  0.00000000000E+00  0.45593999997E+02  0.45594000000E+02  0.51100000000E-03 0.  1.
         11   -1    0    0    0    0 -0.00000000000E+00 -0.00000000000E+00 -0.45593999997E+02  0.45594000000E+02  0.51100000000E-03 0. -1.
    9900012    2    1    2    0    0  0.43090348114E+02  0.42495751911E+01 -0.29641585986E+01  0.47787271595E+02  0.20000002511E+02 0.  0.
         12    1    1    2    0    0 -0.43090348114E+02 -0.42495751911E+01  0.29641585986E+01  0.43400728405E+02  0.00000000000E+00 0. -1.
         11    1    3    3    0    0  0.10604646901E+02  0.33237375759E+01 -0.45047589972E+01  0.11991606283E+02  0.51100000000E-03 0. -1.
        -11    1    3    3    0    0  0.20459942851E+02  0.78166050078E+01  0.99835340671E+00  0.21924992249E+02  0.51100000000E-03 0.  1.
         12    1    3    3    0    0  0.12025758362E+02 -0.68907673926E+01  0.54224699184E+00  0.13870673064E+02  0.00000000000E+00 0. -1.
</event>
<event>
 7    1  0.2599124E-010  0.4778727E+02  0.7816164E-02  0.1312668E+00
        -11   -1    0    0    0    0  0.00000000000E+00  0.00000000000E+00  0.45593999997E+02  0.45594000000E+02  0.51100000000E-03 0. -1.
         11   -1    0    0    0    0 -0.00000000000E+00 -0.00000000000E+00 -0.45593999997E+02  0.45594000000E+02  0.51100000000E-03 0.  1.
    9900012    2    1    2    0    0 -0.34799343942E+02  0.12086749457E+02 -0.22946446961E+02  0.47787270981E+02  0.19999999712E+02 0.  0.
         12    1    1    2    0    0  0.34799343942E+02 -0.12086749457E+02  0.22946446961E+02  0.43400729019E+02  0.00000000000E+00 0. -1.
         11    1    3    3    0    0 -0.91410973040E+01  0.62678579660E+01  0.18901144856E+01  0.11243586458E+02  0.51100000000E-03 0. -1.
        -11    1    3    3    0    0 -0.58515740896E+01  0.25035616507E+00 -0.31502397388E+01  0.66503840648E+01  0.51100000000E-03 0.  1.
        -12    1    3    3    0    0 -0.19806672548E+02  0.55685353257E+01 -0.21686321708E+02  0.29893300459E+02  0.00000000000E+00 0.  1.
</event>
<event>
 7    1  0.2599124E-010  0.4778727E+02  0.7816164E-02  0.1312668E+00
        -11   -1    0    0    0    0  0.00000000000E+00  0.00000000000E+00  0.45593999997E+02  0.45594000000E+02  0.51100000000E-03 0.  1.
         11   -1    0    0    0    0 -0.00000000000E+00 -0.00000000000E+00 -0.45593999997E+02  0.45594000000E+02  0.51100000000E-03 0. -1.
    9900012    2    1    2    0    0 -0.26458950638E+02 -0.35741551205E+01  0.34216555021E+02  0.47787270845E+02  0.19999999089E+02 0.  0.
         12    1    1    2    0    0  0.26458950638E+02  0.35741551205E+01 -0.34216555021E+02  0.43400729155E+02  0.00000000000E+00 0. -1.
         11    1    3    3    0    0 -0.40635830272E+01 -0.37514648838E+01  0.10388271443E+02  0.11768703396E+02  0.51100000000E-03 0. -1.
        -11    1    3    3    0    0 -0.19616193693E+02 -0.57671157769E+01  0.18215829821E+02  0.27383775045E+02  0.51100000000E-03 0.  1.
         12    1    3    3    0    0 -0.27791739179E+01  0.59444255402E+01  0.56124537573E+01  0.86347924033E+01  0.00000000000E+00 0. -1.
</event>
<event>
 7    1  0.2599124E-010  0.4778728E+02  0.7816164E-02  0.1312668E+00
        -11   -1    0    0    0    0  0.00000000000E+00  0.00000000000E+00  0.45593999997E+02  0.45594000000E+02  0.51100000000E-03 0.  1.
         11   -1    0    0    0    0 -0.00000000000E+00 -0.00000000000E+00 -0.45593999997E+02  0.45594000000E+02  0.51100000000E-03 0. -1.
    9900012    2    1    2    0    0  0.19116887184E+02 -0.25592214641E+02  0.29380364948E+02  0.47787277998E+02  0.20000031702E+02 0.  0.
         12    1    1    2    0    0 -0.19116887184E+02  0.25592214641E+02 -0.29380364948E+02  0.43400722002E+02  0.00000000000E+00 0. -1.
         11    1    3    3    0    0  0.90178703340E+01 -0.14788769694E+02  0.23641915918E+02  0.29308187985E+02  0.51100000000E-03 0. -1.
        -11    1    3    3    0    0  0.86226895489E+01 -0.10964942299E+02  0.77663761664E+01  0.15965504492E+02  0.51100000000E-03 0.  1.
         12    1    3    3    0    0  0.14763273014E+01  0.16149735163E+00 -0.20279271368E+01  0.25135855203E+01  0.00000000000E+00 0. -1.
</event>
<event>
 7    1  0.2599124E-010  0.4778726E+02  0.7816164E-02  0.1312668E+00
        -11   -1    0    0    0    0  0.00000000000E+00  0.00000000000E+00  0.45593999997E+02  0.45594000000E+02  0.51100000000E-03 0. -1.
         11   -1    0    0    0    0 -0.00000000000E+00 -0.00000000000E+00 -0.45593999997E+02  0.45594000000E+02  0.51100000000E-03 0.  1.
    9900012    2    1    2    0    0 -0.72887400879E+01 -0.36069902412E+02 -0.23010008037E+02  0.47787261965E+02  0.19999958605E+02 0.  0.
         12    1    1    2    0    0  0.72887400879E+01  0.36069902412E+02  0.23010008037E+02  0.43400738035E+02  0.00000000000E+00 0. -1.
         11    1    3    3    0    0 -0.81566087410E+01 -0.16625616826E+02 -0.11968305233E+02  0.22049529052E+02  0.51100000000E-03 0. -1.
        -11    1    3    3    0    0 -0.38168460236E+01 -0.11933573966E+02 -0.11314108417E+02  0.16881574295E+02  0.51100000000E-03 0.  1.
         12    1    3    3    0    0  0.46847146767E+01 -0.75107116202E+01  0.27240561300E+00  0.88561586177E+01  0.00000000000E+00 0. -1.
</event>
<event>
 7    1  0.2599124E-010  0.4778727E+02  0.7816164E-02  0.1312668E+00
        -11   -1    0    0    0    0  0.00000000000E+00  0.00000000000E+00  0.45593999997E+02  0.45594000000E+02  0.51100000000E-03 0.  1.
         11   -1    0    0    0    0 -0.00000000000E+00 -0.00000000000E+00 -0.45593999997E+02  0.45594000000E+02  0.51100000000E-03 0. -1.
    9900012    2    1    2    0    0  0.22229020729E+01  0.30292060442E+02  0.31001182377E+02  0.47787268114E+02  0.19999986639E+02 0.  0.
         12    1    1    2    0    0 -0.22229020729E+01 -0.30292060442E+02 -0.31001182377E+02  0.43400731886E+02  0.00000000000E+00 0. -1.
         11    1    3    3    0    0 -0.70810857428E+01  0.88919310892E+01  0.72378405675E+01  0.13475702213E+02  0.51100000000E-03 0. -1.
        -11    1    3    3    0    0  0.48456901020E+01  0.17412801628E+02  0.14002392050E+02  0.22863800132E+02  0.51100000000E-03 0.  1.
        -12    1    3    3    0    0  0.44582977136E+01  0.39873277252E+01  0.97609497595E+01  0.11447765769E+02  0.00000000000E+00 0.  1.
</event>
<event>
 7    1  0.2599124E-010  0.4778727E+02  0.7816164E-02  0.1312668E+00
        -11   -1    0    0    0    0  0.00000000000E+00  0.00000000000E+00  0.45593999997E+02  0.45594000000E+02  0.51100000000E-03 0. -1.
         11   -1    0    0    0    0 -0.00000000000E+00 -0.00000000000E+00 -0.45593999997E+02  0.45594000000E+02  0.51100000000E-03 0.  1.
    9900012    2    1    2    0    0 -0.13989731222E+02 -0.40674561432E+02 -0.57871273775E+01  0.47787269930E+02  0.19999994918E+02 0.  0.
         12    1    1    2    0    0  0.13989731222E+02  0.40674561432E+02  0.57871273775E+01  0.43400730070E+02  0.00000000000E+00 0. -1.
         11    1    3    3    0    0 -0.43875808279E+01 -0.12656433111E+02  0.84694986809E+00  0.13422126842E+02  0.51100000000E-03 0. -1.
        -11    1    3    3    0    0 -0.64743972519E+01 -0.22122475925E+02 -0.11828289560E+02  0.25908110602E+02  0.51100000000E-03 0.  1.
        -12    1    3    3    0    0 -0.31277531424E+01 -0.58956523962E+01  0.51942123145E+01  0.84570324857E+01  0.00000000000E+00 0.  1.
</event>
<event>
 7    1  0.2599124E-010  0.4778727E+02  0.7816164E-02  0.1312668E+00
        -11   -1    0    0    0    0  0.00000000000E+00  0.00000000000E+00  0.45593999997E+02  0.45594000000E+02  0.51100000000E-03 0. -1.
         11   -1    0    0    0    0 -0.00000000000E+00 -0.00000000000E+00 -0.45593999997E+02  0.45594000000E+02  0.51100000000E-03 0.  1.
    9900012    2    1    2    0    0  0.80752908649E+01  0.34106418958E+02 -0.25596192058E+02  0.47787272074E+02  0.20000004692E+02 0.  0.
         12    1    1    2    0    0 -0.80752908649E+01 -0.34106418958E+02  0.25596192058E+02  0.43400727926E+02  0.00000000000E+00 0. -1.
         11    1    3    3    0    0  0.13647380036E+01 -0.98696311996E+00 -0.45739305038E+01  0.48741611108E+01  0.51100000000E-03 0. -1.
        -11    1    3    3    0    0  0.62380361325E+01  0.92195626443E+01 -0.35313195984E+01  0.11678341000E+02  0.51100000000E-03 0.  1.
         12    1    3    3    0    0  0.47251672876E+00  0.25873819433E+02 -0.17490941956E+02  0.31234769963E+02  0.00000000000E+00 0. -1.
</event>
<event>
 7    1  0.2599124E-010  0.4778727E+02  0.7816164E-02  0.1312668E+00
        -11   -1    0    0    0    0  0.00000000000E+00  0.00000000000E+00  0.45593999997E+02  0.45594000000E+02  0.51100000000E-03 0.  1.
         11   -1    0    0    0    0 -0.00000000000E+00 -0.00000000000E+00 -0.45593999997E+02  0.45594000000E+02  0.51100000000E-03 0. -1.
    9900012    2    1    2    0    0  0.26735106241E+02  0.18216243665E+02  0.28931401901E+02  0.47787268959E+02  0.19999990490E+02 0.  0.
         12    1    1    2    0    0 -0.26735106241E+02 -0.18216243665E+02 -0.28931401901E+02  0.43400731041E+02  0.00000000000E+00 0. -1.
         11    1    3    3    0    0  0.16628606608E+02  0.21247210087E+02  0.19370064293E+02  0.33213760480E+02  0.51100000000E-03 0. -1.
        -11    1    3    3    0    0  0.82803044731E+00  0.34251808254E+00  0.18164675058E+01  0.20254647663E+01  0.51100000000E-03 0.  1.
        -12    1    3    3    0    0  0.92784691855E+01 -0.33734845046E+01  0.77448701016E+01  0.12548043713E+02  0.00000000000E+00 0.  1.
</event>
<event>
 7    1  0.2599124E-010  0.4778727E+02  0.7816164E-02  0.1312668E+00
        -11   -1    0    0    0    0  0.00000000000E+00  0.00000000000E+00  0.45593999997E+02  0.45594000000E+02  0.51100000000E-03 0. -1.
         11   -1    0    0    0    0 -0.00000000000E+00 -0.00000000000E+00 -0.45593999997E+02  0.45594000000E+02  0.51100000000E-03 0.  1.
    9900012    2    1    2    0    0 -0.10044660131E+02 -0.43566900901E+01 -0.41996991887E+02  0.47787271051E+02  0.20000000031E+02 0.  0.
         12    1    1    2    0    0  0.10044660131E+02  0.43566900901E+01  0.41996991887E+02  0.43400728949E+02  0.00000000000E+00 0. -1.
         11    1    3    3    0    0  0.20292865273E+01 -0.39238263834E+00 -0.36219753071E+01  0.41702126242E+01  0.51100000000E-03 0. -1.
        -11    1    3    3    0    0 -0.11076286581E+02 -0.17666390549E+01 -0.96656314496E+01  0.14806402992E+02  0.51100000000E-03 0.  1.
        -12    1    3    3    0    0 -0.99766007683E+00 -0.21976683968E+01 -0.28709385131E+02  0.28810655435E+02  0.00000000000E+00 0.  1.
</event>
<event>
 7    1  0.2599124E-010  0.4778727E+02  0.7816164E-02  0.1312668E+00
        -11   -1    0    0    0    0  0.00000000000E+00  0.00000000000E+00  0.45593999997E+02  0.45594000000E+02  0.51100000000E-03 0. -1.
         11   -1    0    0    0    0 -0.00000000000E+00 -0.00000000000E+00 -0.45593999997E+02  0.45594000000E+02  0.51100000000E-03 0.  1.
    9900012    2    1    2    0    0 -0.16507625149E+02  0.13532616292E+02 -0.37788755157E+02  0.47787269498E+02  0.19999992949E+02 0.  0.
         12    1    1    2    0    0  0.16507625149E+02 -0.13532616292E+02  0.37788755157E+02  0.43400730502E+02  0.00000000000E+00 0. -1.
         11    1    3    3    0    0 -0.11241896948E+02  0.10605376986E+02 -0.34203373898E+02  0.37532986216E+02  0.51100000000E-03 0. -1.
        -11    1    3    3    0    0 -0.54842927572E+01  0.43455392785E+01 -0.47068518674E+01  0.84330085634E+01  0.51100000000E-03 0.  1.
         12    1    3    3    0    0  0.21856455554E+00 -0.14182999724E+01  0.11214706081E+01  0.18212747188E+01  0.00000000000E+00 0. -1.
</event>
<event>
 7    1  0.2599124E-010  0.4778727E+02  0.7816164E-02  0.1312668E+00
        -11   -1    0    0    0    0  0.00000000000E+00  0.00000000000E+00  0.45593999997E+02  0.45594000000E+02  0.51100000000E-03 0.  1.
         11   -1    0    0    0    0 -0.00000000000E+00 -0.00000000000E+00 -0.45593999997E+02  0.45594000000E+02  0.51100000000E-03 0. -1.
    9900012    2    1    2    0    0  0.42077750004E+02  0.47842527640E+01  0.94972175553E+01  0.47787271190E+02  0.20000000665E+02 0.  0.
         12    1    1    2    0    0 -0.42077750004E+02 -0.47842527640E+01 -0.94972175553E+01  0.43400728810E+02  0.00000000000E+00 0. -1.
         11    1    3    3    0    0  0.70525673645E+01  0.36105309322E+01  0.64379806896E+01  0.10208929212E+02  0.51100000000E-03 0. -1.
        -11    1    3    3    0    0  0.61523963906E+01  0.97480818640E+00  0.58817810185E+01  0.85672387943E+01  0.51100000000E-03 0.  1.
         12    1    3    3    0    0  0.28872786249E+02  0.19891364535E+00 -0.28225441528E+01  0.29011103184E+02  0.00000000000E+00 0. -1.
</event>
<event>
 7    1  0.2599124E-010  0.4778727E+02  0.7816164E-02  0.1312668E+00
        -11   -1    0    0    0    0  0.00000000000E+00  0.00000000000E+00  0.45593999997E+02  0.45594000000E+02  0.51100000000E-03 0.  1.
         11   -1    0    0    0    0 -0.00000000000E+00 -0.00000000000E+00 -0.45593999997E+02  0.45594000000E+02  0.51100000000E-03 0. -1.
    9900012    2    1    2    0    0  0.41657679026E+02 -0.52403909629E+01  0.10990870545E+02  0.47787272418E+02  0.20000006263E+02 0.  0.
         12    1    1    2    0    0 -0.41657679026E+02  0.52403909629E+01 -0.10990870545E+02  0.43400727582E+02  0.00000000000E+00 0. -1.
         11    1    3    3    0    0  0.22193064600E+02  0.31174076760E-01 -0.93597820247E+00  0.22212814852E+02  0.51100000000E-03 0. -1.
        -11    1    3    3    0    0  0.86448269905E+01  0.28397008289E+01  0.49264031573E+01  0.10347288670E+02  0.51100000000E-03 0.  1.
        -12    1    3    3    0    0  0.10819787435E+02 -0.81112658686E+01  0.70004455898E+01  0.15227168896E+02  0.00000000000E+00 0.  1.
</event>
<event>
 7    1  0.2599124E-010  0.4778728E+02  0.7816164E-02  0.1312668E+00
        -11   -1    0    0    0    0  0.00000000000E+00  0.00000000000E+00  0.45593999997E+02  0.45594000000E+02  0.51100000000E-03 0. -1.
         11   -1    0    0    0    0 -0.00000000000E+00 -0.00000000000E+00 -0.45593999997E+02  0.45594000000E+02  0.51100000000E-03 0.  1.
    9900012    2    1    2    0    0 -0.16123570060E+02 -0.29551495037E+02  0.27392745789E+02  0.47787275441E+02  0.20000020046E+02 0.  0.
         12    1    1    2    0    0  0.16123570060E+02  0.29551495037E+02 -0.27392745789E+02  0.43400724559E+02  0.00000000000E+00 0. -1.
         11    1    3    3    0    0 -0.47221566491E+01 -0.57606513465E+01  0.40836104755E+01  0.84946890545E+01  0.51100000000E-03 0. -1.
        -11    1    3    3    0    0 -0.89159563980E+01 -0.23703432868E+02  0.12576746114E+02  0.28275812124E+02  0.51100000000E-03 0.  1.
         12    1    3    3    0    0 -0.24854570129E+01 -0.87410822434E-01  0.10732389200E+02  0.11016774263E+02  0.00000000000E+00 0. -1.
</event>
<event>
 7    1  0.2599124E-010  0.4778726E+02  0.7816164E-02  0.1312668E+00
        -11   -1    0    0    0    0  0.00000000000E+00  0.00000000000E+00  0.45593999997E+02  0.45594000000E+02  0.51100000000E-03 0.  1.
         11   -1    0    0    0    0 -0.00000000000E+00 -0.00000000000E+00 -0.45593999997E+02  0.45594000000E+02  0.51100000000E-03 0. -1.
    9900012    2    1    2    0    0  0.78516823262E+01  0.28488429570E+02  0.31786543543E+02  0.47787264002E+02  0.19999967891E+02 0.  0.
         12    1    1    2    0    0 -0.78516823262E+01 -0.28488429570E+02 -0.31786543543E+02  0.43400735998E+02  0.00000000000E+00 0. -1.
         11    1    3    3    0    0  0.51367615712E+01  0.93157402826E+01  0.13207922300E+02  0.16959320393E+02  0.51100000000E-03 0. -1.
        -11    1    3    3    0    0  0.74211193343E+01  0.16658428661E+02  0.17712102245E+02  0.25422329237E+02  0.51100000000E-03 0.  1.
         12    1    3    3    0    0 -0.47061985794E+01  0.25142606263E+01  0.86651899843E+00  0.54056143721E+01  0.00000000000E+00 0. -1.
</event>
<event>
 7    1  0.2599124E-010  0.4778727E+02  0.7816164E-02  0.1312668E+00
        -11   -1    0    0    0    0  0.00000000000E+00  0.00000000000E+00  0.45593999997E+02  0.45594000000E+02  0.51100000000E-03 0.  1.
         11   -1    0    0    0    0 -0.00000000000E+00 -0.00000000000E+00 -0.45593999997E+02  0.45594000000E+02  0.51100000000E-03 0. -1.
    9900012    2    1    2    0    0 -0.43026731239E+02  0.27833315186E+01  0.49575286741E+01  0.47787266987E+02  0.19999981501E+02 0.  0.
         12    1    1    2    0    0  0.43026731239E+02 -0.27833315186E+01 -0.49575286741E+01  0.43400733013E+02  0.00000000000E+00 0. -1.
         11    1    3    3    0    0 -0.70153036330E+01 -0.22324795580E+01  0.33198234273E+01  0.80758701011E+01  0.51100000000E-03 0. -1.
        -11    1    3    3    0    0 -0.64783227594E+01  0.33831175062E+01  0.64459014885E+01  0.97449369467E+01  0.51100000000E-03 0.  1.
        -12    1    3    3    0    0 -0.29533104847E+02  0.16326935704E+01 -0.48081962416E+01  0.29966459939E+02  0.00000000000E+00 0.  1.
</event>
<event>
 7    1  0.2599124E-010  0.4778727E+02  0.7816164E-02  0.1312668E+00
        -11   -1    0    0    0    0  0.00000000000E+00  0.00000000000E+00  0.45593999997E+02  0.45594000000E+02  0.51100000000E-03 0.  1.
         11   -1    0    0    0    0 -0.00000000000E+00 -0.00000000000E+00 -0.45593999997E+02  0.45594000000E+02  0.51100000000E-03 0. -1.
    9900012    2    1    2    0    0 -0.33089599566E+02 -0.53260918974E+01  0.27574161420E+02  0.47787271523E+02  0.20000002180E+02 0.  0.
         12    1    1    2    0    0  0.33089599566E+02  0.53260918974E+01 -0.27574161420E+02  0.43400728477E+02  0.00000000000E+00 0. -1.
         11    1    3    3    0    0 -0.10980161894E+01  0.15476093419E+01 -0.13401353979E+01  0.23230792869E+01  0.51100000000E-03 0. -1.
        -11    1    3    3    0    0 -0.17539218095E+02 -0.25501998883E+01  0.74422468713E+01  0.19222765920E+02  0.51100000000E-03 0.  1.
        -12    1    3    3    0    0 -0.14452365281E+02 -0.43235013510E+01  0.21472049947E+02  0.26241426316E+02  0.00000000000E+00 0.  1.
</event>
<event>
 7    1  0.2599124E-010  0.4778726E+02  0.7816164E-02  0.1312668E+00
        -11   -1    0    0    0    0  0.00000000000E+00  0.00000000000E+00  0.45593999997E+02  0.45594000000E+02  0.51100000000E-03 0. -1.
         11   -1    0    0    0    0 -0.00000000000E+00 -0.00000000000E+00 -0.45593999997E+02  0.45594000000E+02  0.51100000000E-03 0.  1.
    9900012    2    1    2    0    0 -0.42862645308E+02 -0.28795148973E+01  0.61746769843E+01  0.47787255713E+02  0.19999930098E+02 0.  0.
         12    1    1    2    0    0  0.42862645308E+02  0.28795148973E+01 -0.61746769843E+01  0.43400744287E+02  0.00000000000E+00 0. -1.
         11    1    3    3    0    0 -0.28159188435E+02  0.65587572423E+01  0.18193643462E+01  0.28970110058E+02  0.51100000000E-03 0. -1.
        -11    1    3    3    0    0 -0.67942464864E+01 -0.21434897795E+01 -0.21382783890E+00  0.71275561281E+01  0.51100000000E-03 0.  1.
         12    1    3    3    0    0 -0.79092103866E+01 -0.72947823600E+01  0.45691404770E+01  0.11689589527E+02  0.00000000000E+00 0. -1.
</event>
<event>
 7    1  0.2599124E-010  0.4778728E+02  0.7816164E-02  0.1312668E+00
        -11   -1    0    0    0    0  0.00000000000E+00  0.00000000000E+00  0.45593999997E+02  0.45594000000E+02  0.51100000000E-03 0.  1.
         11   -1    0    0    0    0 -0.00000000000E+00 -0.00000000000E+00 -0.45593999997E+02  0.45594000000E+02  0.51100000000E-03 0. -1.
    9900012    2    1    2    0    0 -0.72572141137E+01 -0.13752162699E+01  0.42767559060E+02  0.47787280139E+02  0.20000041466E+02 0.  0.
         12    1    1    2    0    0  0.72572141137E+01  0.13752162699E+01 -0.42767559060E+02  0.43400719861E+02  0.00000000000E+00 0. -1.
         11    1    3    3    0    0 -0.53447014899E+01 -0.37938988340E+01  0.88620126705E+01  0.11022466657E+02  0.51100000000E-03 0. -1.
        -11    1    3    3    0    0 -0.76661456709E+01  0.32646761242E+01  0.21696449113E+02  0.23241424312E+02  0.51100000000E-03 0.  1.
        -12    1    3    3    0    0  0.57536330471E+01 -0.84599356008E+00  0.12209097276E+02  0.13523389170E+02  0.00000000000E+00 0.  1.
</event>
<event>
 7    1  0.2599124E-010  0.4778727E+02  0.7816164E-02  0.1312668E+00
        -11   -1    0    0    0    0  0.00000000000E+00  0.00000000000E+00  0.45593999997E+02  0.45594000000E+02  0.51100000000E-03 0.  1.
         11   -1    0    0    0    0 -0.00000000000E+00 -0.00000000000E+00 -0.45593999997E+02  0.45594000000E+02  0.51100000000E-03 0. -1.
    9900012    2    1    2    0    0 -0.24813189338E+02 -0.34882318694E+02 -0.71521075371E+01  0.47787272300E+02  0.20000005726E+02 0.  0.
         12    1    1    2    0    0  0.24813189338E+02  0.34882318694E+02  0.71521075371E+01  0.43400727700E+02  0.00000000000E+00 0. -1.
         11    1    3    3    0    0 -0.35972410456E+01  0.61660383589E+00  0.17186640831E+01  0.40341231912E+01  0.51100000000E-03 0. -1.
        -11    1    3    3    0    0 -0.57256224702E+01 -0.23487224919E+01 -0.21417861197E+01  0.65487783638E+01  0.51100000000E-03 0.  1.
         12    1    3    3    0    0 -0.15490325823E+02 -0.33150200038E+02 -0.67289855005E+01  0.37204370745E+02  0.00000000000E+00 0. -1.
</event>
<event>
 7    1  0.2599124E-010  0.4778727E+02  0.7816164E-02  0.1312668E+00
        -11   -1    0    0    0    0  0.00000000000E+00  0.00000000000E+00  0.45593999997E+02  0.45594000000E+02  0.51100000000E-03 0. -1.
         11   -1    0    0    0    0 -0.00000000000E+00 -0.00000000000E+00 -0.45593999997E+02  0.45594000000E+02  0.51100000000E-03 0.  1.
    9900012    2    1    2    0    0  0.30466497253E+02 -0.30238960154E+02 -0.64047557505E+01  0.47787273482E+02  0.20000011116E+02 0.  0.
         12    1    1    2    0    0 -0.30466497253E+02  0.30238960154E+02  0.64047557505E+01  0.43400726518E+02  0.00000000000E+00 0. -1.
         11    1    3    3    0    0  0.13377682182E+02 -0.44932084685E+01 -0.39224294140E+01  0.14647073280E+02  0.51100000000E-03 0. -1.
        -11    1    3    3    0    0  0.17711471360E+02 -0.18552306881E+02 -0.50591973923E+00  0.25654244549E+02  0.51100000000E-03 0.  1.
         12    1    3    3    0    0 -0.62265628900E+00 -0.71934448045E+01 -0.19764065973E+01  0.74859556536E+01  0.00000000000E+00 0. -1.
</event>
<event>
 7    1  0.2599124E-010  0.4778726E+02  0.7816164E-02  0.1312668E+00
        -11   -1    0    0    0    0  0.00000000000E+00  0.00000000000E+00  0.45593999997E+02  0.45594000000E+02  0.51100000000E-03 0.  1.
         11   -1    0    0    0    0 -0.00000000000E+00 -0.00000000000E+00 -0.45593999997E+02  0.45594000000E+02  0.51100000000E-03 0. -1.
    9900012    2    1    2    0    0  0.13524752928E+02  0.32879950211E+02  0.24892042684E+02  0.47787264331E+02  0.19999969392E+02 0.  0.
         12    1    1    2    0    0 -0.13524752928E+02 -0.32879950211E+02 -0.24892042684E+02  0.43400735669E+02  0.00000000000E+00 0. -1.
         11    1    3    3    0    0  0.48619648709E+01  0.19851298661E+02  0.16358370180E+02  0.26178407823E+02  0.51100000000E-03 0. -1.
        -11    1    3    3    0    0  0.31504936628E+01  0.41541950287E+01  0.97847656197E+01  0.11087136021E+02  0.51100000000E-03 0.  1.
         12    1    3    3    0    0  0.55122943942E+01  0.88744565205E+01 -0.12510931159E+01  0.10521720487E+02  0.00000000000E+00 0. -1.
</event>
<event>
 7    1  0.2599124E-010  0.4778727E+02  0.7816164E-02  0.1312668E+00
        -11   -1    0    0    0    0  0.00000000000E+00  0.00000000000E+00  0.45593999997E+02  0.45594000000E+02  0.51100000000E-03 0.  1.
         11   -1    0    0    0    0 -0.00000000000E+00 -0.00000000000E+00 -0.45593999997E+02  0.45594000000E+02  0.51100000000E-03 0. -1.
    9900012    2    1    2    0    0  0.32537682952E+02  0.26791004409E+02  0.10352034405E+02  0.47787270220E+02  0.19999996239E+02 0.  0.
         12    1    1    2    0    0 -0.32537682952E+02 -0.26791004409E+02 -0.10352034405E+02  0.43400729780E+02  0.00000000000E+00 0. -1.
         11    1    3    3    0    0  0.73852291099E+01  0.74881072724E+01 -0.33530721757E+01  0.11038861028E+02  0.51100000000E-03 0.  1.
        -11    1    3    3    0    0  0.10305635299E+01  0.31475645916E+01 -0.18688504574E+01  0.38028708025E+01  0.51100000000E-03 0. -1.
        -12    1    3    3    0    0  0.24121890312E+02  0.16155332545E+02  0.15573957038E+02  0.32945538389E+02  0.00000000000E+00 0.  1.
</event>
<event>
 7    1  0.2599124E-010  0.4778727E+02  0.7816164E-02  0.1312668E+00
        -11   -1    0    0    0    0  0.00000000000E+00  0.00000000000E+00  0.45593999997E+02  0.45594000000E+02  0.51100000000E-03 0.  1.
         11   -1    0    0    0    0 -0.00000000000E+00 -0.00000000000E+00 -0.45593999997E+02  0.45594000000E+02  0.51100000000E-03 0. -1.
    9900012    2    1    2    0    0  0.34682373179E+02 -0.24897645110E+02  0.78015199047E+01  0.47787268968E+02  0.19999990531E+02 0.  0.
         12    1    1    2    0    0 -0.34682373179E+02  0.24897645110E+02 -0.78015199047E+01  0.43400731032E+02  0.00000000000E+00 0. -1.
         11    1    3    3    0    0  0.43571933985E+01 -0.83289465239E+01  0.38507289422E+01  0.10157981992E+02  0.51100000000E-03 0. -1.
        -11    1    3    3    0    0  0.15498694912E+02 -0.11917331169E+02  0.86736709804E+01  0.21388428991E+02  0.51100000000E-03 0.  1.
        -12    1    3    3    0    0  0.14826484868E+02 -0.46513674162E+01 -0.47228800179E+01  0.16240857984E+02  0.00000000000E+00 0.  1.
</event>
<event>
 7    1  0.2599124E-010  0.4778727E+02  0.7816164E-02  0.1312668E+00
        -11   -1    0    0    0    0  0.00000000000E+00  0.00000000000E+00  0.45593999997E+02  0.45594000000E+02  0.51100000000E-03 0. -1.
         11   -1    0    0    0    0 -0.00000000000E+00 -0.00000000000E+00 -0.45593999997E+02  0.45594000000E+02  0.51100000000E-03 0.  1.
    9900012    2    1    2    0    0 -0.33832594785E+02  0.23555559960E+02 -0.13568882075E+02  0.47787269180E+02  0.19999991501E+02 0.  0.
         12    1    1    2    0    0  0.33832594785E+02 -0.23555559960E+02  0.13568882075E+02  0.43400730820E+02  0.00000000000E+00 0. -1.
         11    1    3    3    0    0 -0.17949326509E+02  0.14752050830E+02 -0.12460841343E+02  0.26364254078E+02  0.51100000000E-03 0. -1.
        -11    1    3    3    0    0 -0.15464223483E+02  0.77031051680E+01 -0.44828412806E+01  0.17848694725E+02  0.51100000000E-03 0.  1.
         12    1    3    3    0    0 -0.41904479251E+00  0.11004039613E+01  0.33748005491E+01  0.35743203777E+01  0.00000000000E+00 0. -1.
</event>
<event>
 7    1  0.2599124E-010  0.4778726E+02  0.7816164E-02  0.1312668E+00
        -11   -1    0    0    0    0  0.00000000000E+00  0.00000000000E+00  0.45593999997E+02  0.45594000000E+02  0.51100000000E-03 0.  1.
         11   -1    0    0    0    0 -0.00000000000E+00 -0.00000000000E+00 -0.45593999997E+02  0.45594000000E+02  0.51100000000E-03 0. -1.
    9900012    2    1    2    0    0 -0.19598298549E+02 -0.37239010031E+02  0.10620111993E+02  0.47787263222E+02  0.19999964334E+02 0.  0.
         12    1    1    2    0    0  0.19598298549E+02  0.37239010031E+02 -0.10620111993E+02  0.43400736778E+02  0.00000000000E+00 0. -1.
         11    1    3    3    0    0 -0.50745311935E+01 -0.13670254364E+02  0.59777482824E+01  0.15759447833E+02  0.51100000000E-03 0. -1.
        -11    1    3    3    0    0 -0.15711320957E+02 -0.24625791681E+02  0.61337804210E+01  0.29847922618E+02  0.51100000000E-03 0.  1.
         12    1    3    3    0    0  0.11875536014E+01  0.10570360131E+01 -0.14914167102E+01  0.21798927709E+01  0.00000000000E+00 0. -1.
</event>
<event>
 7    1  0.2599124E-010  0.4778730E+02  0.7816164E-02  0.1312668E+00
        -11   -1    0    0    0    0  0.00000000000E+00  0.00000000000E+00  0.45593999997E+02  0.45594000000E+02  0.51100000000E-03 0.  1.
         11   -1    0    0    0    0 -0.00000000000E+00 -0.00000000000E+00 -0.45593999997E+02  0.45594000000E+02  0.51100000000E-03 0. -1.
    9900012    2    1    2    0    0 -0.32122111542E+02 -0.26378036744E+02  0.12489591922E+02  0.47787299790E+02  0.20000131060E+02 0.  0.
         12    1    1    2    0    0  0.32122111542E+02  0.26378036744E+02 -0.12489591922E+02  0.43400700210E+02  0.00000000000E+00 0. -1.
         11    1    3    3    0    0 -0.13968579975E+02 -0.16159994104E+02  0.12892983181E+02  0.24949862756E+02  0.51100000000E-03 0. -1.
        -11    1    3    3    0    0 -0.21643704873E+01  0.15222479843E+01  0.12610429579E+01  0.29312059181E+01  0.51100000000E-03 0.  1.
         12    1    3    3    0    0 -0.15989161080E+02 -0.11740290624E+02 -0.16644342166E+01  0.19906231116E+02  0.00000000000E+00 0. -1.
</event>
<event>
 7    1  0.2599124E-010  0.4778727E+02  0.7816164E-02  0.1312668E+00
        -11   -1    0    0    0    0  0.00000000000E+00  0.00000000000E+00  0.45593999997E+02  0.45594000000E+02  0.51100000000E-03 0.  1.
         11   -1    0    0    0    0 -0.00000000000E+00 -0.00000000000E+00 -0.45593999997E+02  0.45594000000E+02  0.51100000000E-03 0. -1.
    9900012    2    1    2    0    0 -0.14719608026E+02 -0.36516265384E+02  0.18262506598E+02  0.47787266766E+02  0.19999980491E+02 0.  0.
         12    1    1    2    0    0  0.14719608026E+02  0.36516265384E+02 -0.18262506598E+02  0.43400733234E+02  0.00000000000E+00 0. -1.
         11    1    3    3    0    0 -0.78942194967E+01 -0.93936546481E+01  0.13647463064E+02  0.18352457532E+02  0.51100000000E-03 0. -1.
        -11    1    3    3    0    0 -0.62234015483E+01 -0.11301817718E+02  0.42991031599E+01  0.13599415385E+02  0.51100000000E-03 0.  1.
         12    1    3    3    0    0 -0.60198698063E+00 -0.15820793018E+02  0.31594037421E+00  0.15835393850E+02  0.00000000000E+00 0. -1.
</event>
<event>
 7    1  0.2599124E-010  0.4778727E+02  0.7816164E-02  0.1312668E+00
        -11   -1    0    0    0    0  0.00000000000E+00  0.00000000000E+00  0.45593999997E+02  0.45594000000E+02  0.51100000000E-03 0. -1.
         11   -1    0    0    0    0 -0.00000000000E+00 -0.00000000000E+00 -0.45593999997E+02  0.45594000000E+02  0.51100000000E-03 0.  1.
    9900012    2    1    2    0    0  0.22471799433E+02  0.12727438789E+01 -0.37108239510E+02  0.47787273206E+02  0.20000009855E+02 0.  0.
         12    1    1    2    0    0 -0.22471799433E+02 -0.12727438789E+01  0.37108239510E+02  0.43400726794E+02  0.00000000000E+00 0. -1.
         11    1    3    3    0    0 -0.62935592973E+00  0.11558646228E+01 -0.10160584049E+02  0.10245466333E+02  0.51100000000E-03 0. -1.
        -11    1    3    3    0    0  0.35915612260E+01  0.48765971945E+01 -0.62125206563E+01  0.86761699731E+01  0.51100000000E-03 0.  1.
        -12    1    3    3    0    0  0.19509594137E+02 -0.47597179384E+01 -0.20735134805E+02  0.28865636899E+02  0.00000000000E+00 0.  1.
</event>
<event>
 7    1  0.2599124E-010  0.4778727E+02  0.7816164E-02  0.1312668E+00
        -11   -1    0    0    0    0  0.00000000000E+00  0.00000000000E+00  0.45593999997E+02  0.45594000000E+02  0.51100000000E-03 0. -1.
         11   -1    0    0    0    0 -0.00000000000E+00 -0.00000000000E+00 -0.45593999997E+02  0.45594000000E+02  0.51100000000E-03 0.  1.
    9900012    2    1    2    0    0 -0.25683922365E+02  0.23468292293E+02 -0.25946072217E+02  0.47787271035E+02  0.19999999957E+02 0.  0.
         12    1    1    2    0    0  0.25683922365E+02 -0.23468292293E+02  0.25946072217E+02  0.43400728965E+02  0.00000000000E+00 0. -1.
         11    1    3    3    0    0 -0.12465343177E+02  0.41177682172E+01 -0.15509375148E+02  0.20319486050E+02  0.51100000000E-03 0. -1.
        -11    1    3    3    0    0 -0.19056196135E+01  0.18568259360E+01 -0.54221970583E+01  0.60398186950E+01  0.51100000000E-03 0.  1.
         12    1    3    3    0    0 -0.11312959575E+02  0.17493698140E+02 -0.50145000103E+01  0.21427966290E+02  0.00000000000E+00 0. -1.
</event>
<event>
 7    1  0.2599124E-010  0.4778727E+02  0.7816164E-02  0.1312668E+00
        -11   -1    0    0    0    0  0.00000000000E+00  0.00000000000E+00  0.45593999997E+02  0.45594000000E+02  0.51100000000E-03 0.  1.
         11   -1    0    0    0    0 -0.00000000000E+00 -0.00000000000E+00 -0.45593999997E+02  0.45594000000E+02  0.51100000000E-03 0. -1.
    9900012    2    1    2    0    0  0.31433415040E+02 -0.50710253782E+01  0.29493193945E+02  0.47787269954E+02  0.19999995029E+02 0.  0.
         12    1    1    2    0    0 -0.31433415040E+02  0.50710253782E+01 -0.29493193945E+02  0.43400730046E+02  0.00000000000E+00 0. -1.
         11    1    3    3    0    0  0.96218585420E+01  0.45350934098E+01  0.95858026852E+01  0.14319037936E+02  0.51100000000E-03 0. -1.
        -11    1    3    3    0    0  0.16358674944E+02 -0.63092999733E+00  0.12909188361E+02  0.20848296405E+02  0.51100000000E-03 0.  1.
         12    1    3    3    0    0  0.54528815539E+01 -0.89751887907E+01  0.69982028988E+01  0.12619935613E+02  0.00000000000E+00 0. -1.
</event>
<event>
 7    1  0.2599124E-010  0.4778727E+02  0.7816164E-02  0.1312668E+00
        -11   -1    0    0    0    0  0.00000000000E+00  0.00000000000E+00  0.45593999997E+02  0.45594000000E+02  0.51100000000E-03 0. -1.
         11   -1    0    0    0    0 -0.00000000000E+00 -0.00000000000E+00 -0.45593999997E+02  0.45594000000E+02  0.51100000000E-03 0.  1.
    9900012    2    1    2    0    0 -0.28753104463E+02 -0.32487507621E+02  0.12017129538E+01  0.47787270954E+02  0.19999999589E+02 0.  0.
         12    1    1    2    0    0  0.28753104463E+02  0.32487507621E+02 -0.12017129538E+01  0.43400729046E+02  0.00000000000E+00 0. -1.
         11    1    3    3    0    0 -0.14789279239E+02 -0.11080989791E+02  0.39768691679E+01  0.18903084505E+02  0.51100000000E-03 0. -1.
        -11    1    3    3    0    0 -0.78856331086E+01 -0.21419750376E+01 -0.29361650476E+01  0.86828757928E+01  0.51100000000E-03 0.  1.
        -12    1    3    3    0    0 -0.60781921150E+01 -0.19264542793E+02  0.16100883359E+00  0.20201310657E+02  0.00000000000E+00 0.  1.
</event>
<event>
 7    1  0.2599124E-010  0.4778727E+02  0.7816164E-02  0.1312668E+00
        -11   -1    0    0    0    0  0.00000000000E+00  0.00000000000E+00  0.45593999997E+02  0.45594000000E+02  0.51100000000E-03 0. -1.
         11   -1    0    0    0    0 -0.00000000000E+00 -0.00000000000E+00 -0.45593999997E+02  0.45594000000E+02  0.51100000000E-03 0.  1.
    9900012    2    1    2    0    0 -0.35371484957E+02  0.23505310762E+02  0.89432347683E+01  0.47787273852E+02  0.20000012800E+02 0.  0.
         12    1    1    2    0    0  0.35371484957E+02 -0.23505310762E+02 -0.89432347683E+01  0.43400726148E+02  0.00000000000E+00 0. -1.
         11    1    3    3    0    0 -0.19853093298E+02  0.15752718778E+02  0.90884968534E+00  0.25359800284E+02  0.51100000000E-03 0. -1.
        -11    1    3    3    0    0 -0.59929376448E+01  0.70703985825E+00 -0.25396717661E+01  0.65471474641E+01  0.51100000000E-03 0.  1.
         12    1    3    3    0    0 -0.95254540138E+01  0.70455521258E+01  0.10574056849E+02  0.15880326104E+02  0.00000000000E+00 0. -1.
</event>
<event>
 7    1  0.2599124E-010  0.4778727E+02  0.7816164E-02  0.1312668E+00
        -11   -1    0    0    0    0  0.00000000000E+00  0.00000000000E+00  0.45593999997E+02  0.45594000000E+02  0.51100000000E-03 0. -1.
         11   -1    0    0    0    0 -0.00000000000E+00 -0.00000000000E+00 -0.45593999997E+02  0.45594000000E+02  0.51100000000E-03 0.  1.
    9900012    2    1    2    0    0 -0.38792076701E+02  0.13145636523E+02 -0.14352362429E+02  0.47787270954E+02  0.19999999590E+02 0.  0.
         12    1    1    2    0    0  0.38792076701E+02 -0.13145636523E+02  0.14352362429E+02  0.43400729046E+02  0.00000000000E+00 0. -1.
         11    1    3    3    0    0 -0.10039768073E+02  0.69322210282E+01 -0.46112794298E+01  0.13042872750E+02  0.51100000000E-03 0.  1.
        -11    1    3    3    0    0 -0.17610151103E+01  0.39719467224E+01  0.25105813602E+01  0.50180229186E+01  0.51100000000E-03 0. -1.
        -12    1    3    3    0    0 -0.26991293518E+02  0.22414687724E+01 -0.12251664360E+02  0.29726375285E+02  0.00000000000E+00 0.  1.
</event>
<event>
 7    1  0.2599124E-010  0.4778727E+02  0.7816164E-02  0.1312668E+00
        -11   -1    0    0    0    0  0.00000000000E+00  0.00000000000E+00  0.45593999997E+02  0.45594000000E+02  0.51100000000E-03 0. -1.
         11   -1    0    0    0    0 -0.00000000000E+00 -0.00000000000E+00 -0.45593999997E+02  0.45594000000E+02  0.51100000000E-03 0.  1.
    9900012    2    1    2    0    0 -0.41970924841E+02  0.27249214494E+01 -0.10706985626E+02  0.47787271088E+02  0.20000000198E+02 0.  0.
         12    1    1    2    0    0  0.41970924841E+02 -0.27249214494E+01  0.10706985626E+02  0.43400728912E+02  0.00000000000E+00 0. -1.
         11    1    3    3    0    0 -0.15743904545E+01  0.25246300202E+01  0.33797691397E+00  0.29944433035E+01  0.51100000000E-03 0. -1.
        -11    1    3    3    0    0 -0.26228990965E+02  0.28322949234E+01 -0.14317126892E+02  0.30016028790E+02  0.51100000000E-03 0.  1.
        -12    1    3    3    0    0 -0.14167543421E+02 -0.26320034942E+01  0.32721643521E+01  0.14776798995E+02  0.00000000000E+00 0.  1.
</event>
<event>
 7    1  0.2599124E-010  0.4778727E+02  0.7816164E-02  0.1312668E+00
        -11   -1    0    0    0    0  0.00000000000E+00  0.00000000000E+00  0.45593999997E+02  0.45594000000E+02  0.51100000000E-03 0.  1.
         11   -1    0    0    0    0 -0.00000000000E+00 -0.00000000000E+00 -0.45593999997E+02  0.45594000000E+02  0.51100000000E-03 0. -1.
    9900012    2    1    2    0    0 -0.61811653123E+01  0.42670298524E+02  0.49660910783E+01  0.47787271419E+02  0.20000001710E+02 0.  0.
         12    1    1    2    0    0  0.61811653123E+01 -0.42670298524E+02 -0.49660910783E+01  0.43400728581E+02  0.00000000000E+00 0. -1.
         11    1    3    3    0    0  0.37544402640E-01  0.43090921293E+00 -0.20317582286E+01  0.20772900839E+01  0.51100000000E-03 0. -1.
        -11    1    3    3    0    0  0.50789954035E+00  0.16271964152E+02 -0.39258066165E+01  0.16746544036E+02  0.51100000000E-03 0.  1.
         12    1    3    3    0    0 -0.67266092553E+01  0.25967425159E+02  0.10923655923E+02  0.28963437299E+02  0.00000000000E+00 0. -1.
</event>
<event>
 7    1  0.2599124E-010  0.4778727E+02  0.7816164E-02  0.1312668E+00
        -11   -1    0    0    0    0  0.00000000000E+00  0.00000000000E+00  0.45593999997E+02  0.45594000000E+02  0.51100000000E-03 0.  1.
         11   -1    0    0    0    0 -0.00000000000E+00 -0.00000000000E+00 -0.45593999997E+02  0.45594000000E+02  0.51100000000E-03 0. -1.
    9900012    2    1    2    0    0  0.23337284183E+02 -0.35871967019E+02 -0.72247015125E+01  0.47787272324E+02  0.20000005834E+02 0.  0.
         12    1    1    2    0    0 -0.23337284183E+02  0.35871967019E+02  0.72247015125E+01  0.43400727676E+02  0.00000000000E+00 0. -1.
         11    1    3    3    0    0  0.52510329542E+01 -0.11434430789E+02 -0.11630679346E+01  0.12636149802E+02  0.51100000000E-03 0. -1.
        -11    1    3    3    0    0  0.12982348462E+02 -0.25034797164E+02 -0.14362278464E+01  0.28237301417E+02  0.51100000000E-03 0.  1.
         12    1    3    3    0    0  0.51039027672E+01  0.59726093397E+00 -0.46254057314E+01  0.69138211042E+01  0.00000000000E+00 0. -1.
</event>
<event>
 7    1  0.2599124E-010  0.4778727E+02  0.7816164E-02  0.1312668E+00
        -11   -1    0    0    0    0  0.00000000000E+00  0.00000000000E+00  0.45593999997E+02  0.45594000000E+02  0.51100000000E-03 0.  1.
         11   -1    0    0    0    0 -0.00000000000E+00 -0.00000000000E+00 -0.45593999997E+02  0.45594000000E+02  0.51100000000E-03 0. -1.
    9900012    2    1    2    0    0  0.14189912609E+02  0.23124461943E+02  0.33875199357E+02  0.47787268538E+02  0.19999988573E+02 0.  0.
         12    1    1    2    0    0 -0.14189912609E+02 -0.23124461943E+02 -0.33875199357E+02  0.43400731462E+02  0.00000000000E+00 0. -1.
         11    1    3    3    0    0 -0.34177372422E+01  0.25578037979E+01  0.33240386903E+01  0.54104086353E+01  0.51100000000E-03 0. -1.
        -11    1    3    3    0    0  0.64839514213E+01  0.13706442512E+02  0.10502857853E+02  0.18445005170E+02  0.51100000000E-03 0.  1.
        -12    1    3    3    0    0  0.11123698429E+02  0.68602156327E+01  0.20048302813E+02  0.23931854733E+02  0.00000000000E+00 0.  1.
</event>
<event>
 7    1  0.2599124E-010  0.4778727E+02  0.7816164E-02  0.1312668E+00
        -11   -1    0    0    0    0  0.00000000000E+00  0.00000000000E+00  0.45593999997E+02  0.45594000000E+02  0.51100000000E-03 0. -1.
         11   -1    0    0    0    0 -0.00000000000E+00 -0.00000000000E+00 -0.45593999997E+02  0.45594000000E+02  0.51100000000E-03 0.  1.
    9900012    2    1    2    0    0  0.14963916143E+02  0.28271341574E+02 -0.29333188295E+02  0.47787268713E+02  0.19999989368E+02 0.  0.
         12    1    1    2    0    0 -0.14963916143E+02 -0.28271341574E+02  0.29333188295E+02  0.43400731287E+02  0.00000000000E+00 0. -1.
         11    1    3    3    0    0 -0.27405769118E+01  0.12893985847E+02 -0.12641591680E+02  0.18264048655E+02  0.51100000000E-03 0. -1.
        -11    1    3    3    0    0  0.55701643809E+01  0.16436140915E+01 -0.24040946613E+01  0.62855286105E+01  0.51100000000E-03 0.  1.
        -12    1    3    3    0    0  0.12134328674E+02  0.13733741636E+02 -0.14287501955E+02  0.23237691447E+02  0.00000000000E+00 0.  1.
</event>
<event>
 7    1  0.2599124E-010  0.4778727E+02  0.7816164E-02  0.1312668E+00
        -11   -1    0    0    0    0  0.00000000000E+00  0.00000000000E+00  0.45593999997E+02  0.45594000000E+02  0.51100000000E-03 0.  1.
         11   -1    0    0    0    0 -0.00000000000E+00 -0.00000000000E+00 -0.45593999997E+02  0.45594000000E+02  0.51100000000E-03 0. -1.
    9900012    2    1    2    0    0 -0.18570246891E+02  0.37043373824E+02 -0.12905738666E+02  0.47787266085E+02  0.19999977389E+02 0.  0.
         12    1    1    2    0    0  0.18570246891E+02 -0.37043373824E+02  0.12905738666E+02  0.43400733915E+02  0.00000000000E+00 0. -1.
         11    1    3    3    0    0 -0.15411003338E+02  0.25299201267E+02 -0.75130829915E+01  0.30561332185E+02  0.51100000000E-03 0. -1.
        -11    1    3    3    0    0 -0.38954906978E+01  0.86337756751E+01  0.15359111033E+01  0.95956215725E+01  0.51100000000E-03 0.  1.
         12    1    3    3    0    0  0.73624714540E+00  0.31103968817E+01 -0.69285667779E+01  0.76303123276E+01  0.00000000000E+00 0. -1.
</event>
<event>
 7    1  0.2599124E-010  0.4778727E+02  0.7816164E-02  0.1312668E+00
        -11   -1    0    0    0    0  0.00000000000E+00  0.00000000000E+00  0.45593999997E+02  0.45594000000E+02  0.51100000000E-03 0.  1.
         11   -1    0    0    0    0 -0.00000000000E+00 -0.00000000000E+00 -0.45593999997E+02  0.45594000000E+02  0.51100000000E-03 0. -1.
    9900012    2    1    2    0    0  0.44845305127E+01  0.36241630851E+02  0.23453286446E+02  0.47787268833E+02  0.19999989919E+02 0.  0.
         12    1    1    2    0    0 -0.44845305127E+01 -0.36241630851E+02 -0.23453286446E+02  0.43400731167E+02  0.00000000000E+00 0. -1.
         11    1    3    3    0    0 -0.78905229016E+00  0.12939771085E+02  0.18768339649E+01  0.13098961228E+02  0.51100000000E-03 0. -1.
        -11    1    3    3    0    0 -0.33983457347E+01  0.13686105245E+02  0.12809528219E+02  0.19051043120E+02  0.51100000000E-03 0.  1.
        -12    1    3    3    0    0  0.86719285375E+01  0.96157545213E+01  0.87669242624E+01  0.15637264486E+02  0.00000000000E+00 0.  1.
</event>
<event>
 7    1  0.2599124E-010  0.4778727E+02  0.7816164E-02  0.1312668E+00
        -11   -1    0    0    0    0  0.00000000000E+00  0.00000000000E+00  0.45593999997E+02  0.45594000000E+02  0.51100000000E-03 0.  1.
         11   -1    0    0    0    0 -0.00000000000E+00 -0.00000000000E+00 -0.45593999997E+02  0.45594000000E+02  0.51100000000E-03 0. -1.
    9900012    2    1    2    0    0  0.22014224938E+02  0.72716738365E+01  0.36689504438E+02  0.47787273326E+02  0.20000010401E+02 0.  0.
         12    1    1    2    0    0 -0.22014224938E+02 -0.72716738365E+01 -0.36689504438E+02  0.43400726674E+02  0.00000000000E+00 0. -1.
         11    1    3    3    0    0  0.11109515064E+02 -0.17788833401E+01  0.73014306220E+01  0.13412555323E+02  0.51100000000E-03 0. -1.
        -11    1    3    3    0    0  0.11886698635E+02  0.38832533598E+01  0.19284085054E+02  0.22983672416E+02  0.51100000000E-03 0.  1.
        -12    1    3    3    0    0 -0.98198876181E+00  0.51673038167E+01  0.10103988761E+02  0.11391045587E+02  0.00000000000E+00 0.  1.
</event>
<event>
 7    1  0.2599124E-010  0.4778728E+02  0.7816164E-02  0.1312668E+00
        -11   -1    0    0    0    0  0.00000000000E+00  0.00000000000E+00  0.45593999997E+02  0.45594000000E+02  0.51100000000E-03 0. -1.
         11   -1    0    0    0    0 -0.00000000000E+00 -0.00000000000E+00 -0.45593999997E+02  0.45594000000E+02  0.51100000000E-03 0.  1.
    9900012    2    1    2    0    0  0.89606185281E+01 -0.36300843397E+02 -0.22035856310E+02  0.47787275593E+02  0.20000020739E+02 0.  0.
         12    1    1    2    0    0 -0.89606185281E+01  0.36300843397E+02  0.22035856310E+02  0.43400724407E+02  0.00000000000E+00 0. -1.
         11    1    3    3    0    0  0.98319714528E+00 -0.14190670776E+02 -0.44633108599E+01  0.14908486099E+02  0.51100000000E-03 0. -1.
        -11    1    3    3    0    0  0.77252492680E+01 -0.19989876608E+02 -0.76906747803E+01  0.22768862991E+02  0.51100000000E-03 0.  1.
        -12    1    3    3    0    0  0.25217211484E+00 -0.21202960135E+01 -0.98818706700E+01  0.10109926503E+02  0.00000000000E+00 0.  1.
</event>
<event>
 7    1  0.2599124E-010  0.4778727E+02  0.7816164E-02  0.1312668E+00
        -11   -1    0    0    0    0  0.00000000000E+00  0.00000000000E+00  0.45593999997E+02  0.45594000000E+02  0.51100000000E-03 0.  1.
         11   -1    0    0    0    0 -0.00000000000E+00 -0.00000000000E+00 -0.45593999997E+02  0.45594000000E+02  0.51100000000E-03 0. -1.
    9900012    2    1    2    0    0 -0.98324627810E+01  0.38667303273E+02 -0.17081735866E+02  0.47787269972E+02  0.19999995112E+02 0.  0.
         12    1    1    2    0    0  0.98324627810E+01 -0.38667303273E+02  0.17081735866E+02  0.43400730028E+02  0.00000000000E+00 0. -1.
         11    1    3    3    0    0  0.37238533638E+01  0.73703448916E+01 -0.50659716306E+01  0.96877828485E+01  0.51100000000E-03 0. -1.
        -11    1    3    3    0    0 -0.38170362260E+01  0.45474990004E+01  0.21346455406E+01  0.63092174280E+01  0.51100000000E-03 0.  1.
         12    1    3    3    0    0 -0.97392799188E+01  0.26749459381E+02 -0.14150409776E+02  0.31790269696E+02  0.00000000000E+00 0. -1.
</event>
<event>
 7    1  0.2599124E-010  0.4778727E+02  0.7816164E-02  0.1312668E+00
        -11   -1    0    0    0    0  0.00000000000E+00  0.00000000000E+00  0.45593999997E+02  0.45594000000E+02  0.51100000000E-03 0.  1.
         11   -1    0    0    0    0 -0.00000000000E+00 -0.00000000000E+00 -0.45593999997E+02  0.45594000000E+02  0.51100000000E-03 0. -1.
    9900012    2    1    2    0    0  0.50083121143E+01 -0.42345428510E+02  0.80873222697E+01  0.47787270889E+02  0.19999999289E+02 0.  0.
         12    1    1    2    0    0 -0.50083121143E+01  0.42345428510E+02 -0.80873222697E+01  0.43400729111E+02  0.00000000000E+00 0. -1.
         11    1    3    3    0    0 -0.13393479147E+01 -0.56154091649E+00  0.46244896917E+00  0.15241523374E+01  0.51100000000E-03 0. -1.
        -11    1    3    3    0    0  0.78649005465E+01 -0.12751437456E+02 -0.30573587150E+01  0.15290626553E+02  0.51100000000E-03 0.  1.
        -12    1    3    3    0    0 -0.15172405175E+01 -0.29032450137E+02  0.10682232016E+02  0.30972491998E+02  0.00000000000E+00 0.  1.
</event>
<event>
 7    1  0.2599124E-010  0.4778727E+02  0.7816164E-02  0.1312668E+00
        -11   -1    0    0    0    0  0.00000000000E+00  0.00000000000E+00  0.45593999997E+02  0.45594000000E+02  0.51100000000E-03 0.  1.
         11   -1    0    0    0    0 -0.00000000000E+00 -0.00000000000E+00 -0.45593999997E+02  0.45594000000E+02  0.51100000000E-03 0. -1.
    9900012    2    1    2    0    0 -0.21602630458E+02 -0.35269263292E+02  0.13154043059E+02  0.47787269307E+02  0.19999992078E+02 0.  0.
         12    1    1    2    0    0  0.21602630458E+02  0.35269263292E+02 -0.13154043059E+02  0.43400730693E+02  0.00000000000E+00 0. -1.
         11    1    3    3    0    0 -0.13103164305E+02 -0.11624027777E+02  0.72302769841E+01  0.18949613244E+02  0.51100000000E-03 0. -1.
        -11    1    3    3    0    0 -0.87407104767E+01 -0.14448214029E+02 -0.15872424563E+01  0.16960844529E+02  0.51100000000E-03 0.  1.
        -12    1    3    3    0    0  0.24124432459E+00 -0.91970214864E+01  0.75110085316E+01  0.11876811534E+02  0.00000000000E+00 0.  1.
</event>
<event>
 7    1  0.2599124E-010  0.4778727E+02  0.7816164E-02  0.1312668E+00
        -11   -1    0    0    0    0  0.00000000000E+00  0.00000000000E+00  0.45593999997E+02  0.45594000000E+02  0.51100000000E-03 0.  1.
         11   -1    0    0    0    0 -0.00000000000E+00 -0.00000000000E+00 -0.45593999997E+02  0.45594000000E+02  0.51100000000E-03 0. -1.
    9900012    2    1    2    0    0 -0.15088740199E+02 -0.39687393932E+02  0.89924422809E+01  0.47787270328E+02  0.19999996734E+02 0.  0.
         12    1    1    2    0    0  0.15088740199E+02  0.39687393932E+02 -0.89924422809E+01  0.43400729672E+02  0.00000000000E+00 0. -1.
         11    1    3    3    0    0 -0.93198099966E+01 -0.39769590042E+01  0.32142465362E+01  0.10630448831E+02  0.51100000000E-03 0. -1.
        -11    1    3    3    0    0  0.12034042608E+01 -0.54078373738E+01  0.17064809459E+01  0.57969788990E+01  0.51100000000E-03 0.  1.
         12    1    3    3    0    0 -0.69723344637E+01 -0.30302597554E+02  0.40717147988E+01  0.31359842598E+02  0.00000000000E+00 0. -1.
</event>
<event>
 7    1  0.2599124E-010  0.4778727E+02  0.7816164E-02  0.1312668E+00
        -11   -1    0    0    0    0  0.00000000000E+00  0.00000000000E+00  0.45593999997E+02  0.45594000000E+02  0.51100000000E-03 0.  1.
         11   -1    0    0    0    0 -0.00000000000E+00 -0.00000000000E+00 -0.45593999997E+02  0.45594000000E+02  0.51100000000E-03 0. -1.
    9900012    2    1    2    0    0 -0.25852112392E+02  0.96263594367E+01  0.33505592890E+02  0.47787271135E+02  0.20000000412E+02 0.  0.
         12    1    1    2    0    0  0.25852112392E+02 -0.96263594367E+01 -0.33505592890E+02  0.43400728865E+02  0.00000000000E+00 0. -1.
         11    1    3    3    0    0 -0.61150019648E+01 -0.33703414271E+00  0.10356767618E+01  0.62112372084E+01  0.51100000000E-03 0. -1.
        -11    1    3    3    0    0 -0.11927809037E+01  0.66666187497E+01  0.57463060259E+01  0.88818109101E+01  0.51100000000E-03 0.  1.
        -12    1    3    3    0    0 -0.18544329523E+02  0.32967748296E+01  0.26723610102E+02  0.32694223016E+02  0.00000000000E+00 0.  1.
</event>
<event>
 7    1  0.2599124E-010  0.4778727E+02  0.7816164E-02  0.1312668E+00
        -11   -1    0    0    0    0  0.00000000000E+00  0.00000000000E+00  0.45593999997E+02  0.45594000000E+02  0.51100000000E-03 0. -1.
         11   -1    0    0    0    0 -0.00000000000E+00 -0.00000000000E+00 -0.45593999997E+02  0.45594000000E+02  0.51100000000E-03 0.  1.
    9900012    2    1    2    0    0 -0.28838895284E+02 -0.23880692026E+02 -0.21946626720E+02  0.47787265476E+02  0.19999974610E+02 0.  0.
         12    1    1    2    0    0  0.28838895284E+02  0.23880692026E+02  0.21946626720E+02  0.43400734524E+02  0.00000000000E+00 0. -1.
         11    1    3    3    0    0 -0.22758836933E+02 -0.18088323478E+02 -0.16382033237E+02  0.33369493824E+02  0.51100000000E-03 0.  1.
        -11    1    3    3    0    0 -0.49002493714E+01 -0.66872795613E+01  0.37244449161E+00  0.82988473292E+01  0.51100000000E-03 0. -1.
         12    1    3    3    0    0 -0.11798089797E+01  0.89491101393E+00 -0.59370379748E+01  0.61189243226E+01  0.00000000000E+00 0. -1.
</event>
<event>
 7    1  0.2599124E-010  0.4778727E+02  0.7816164E-02  0.1312668E+00
        -11   -1    0    0    0    0  0.00000000000E+00  0.00000000000E+00  0.45593999997E+02  0.45594000000E+02  0.51100000000E-03 0.  1.
         11   -1    0    0    0    0 -0.00000000000E+00 -0.00000000000E+00 -0.45593999997E+02  0.45594000000E+02  0.51100000000E-03 0. -1.
    9900012    2    1    2    0    0 -0.11344772072E+02 -0.40226719955E+02  0.11693186362E+02  0.47787268911E+02  0.19999990275E+02 0.  0.
         12    1    1    2    0    0  0.11344772072E+02  0.40226719955E+02 -0.11693186362E+02  0.43400731089E+02  0.00000000000E+00 0. -1.
         11    1    3    3    0    0 -0.10786766258E+01  0.22269953993E+00 -0.17700672447E+01  0.20847725679E+01  0.51100000000E-03 0. -1.
        -11    1    3    3    0    0 -0.96529171092E+01 -0.15275389261E+02  0.25150023737E+01  0.18243945927E+02  0.51100000000E-03 0.  1.
         12    1    3    3    0    0 -0.61317833688E+00 -0.25174030234E+02  0.10948251233E+02  0.27458550416E+02  0.00000000000E+00 0. -1.
</event>
<event>
 7    1  0.2599124E-010  0.4778727E+02  0.7816164E-02  0.1312668E+00
        -11   -1    0    0    0    0  0.00000000000E+00  0.00000000000E+00  0.45593999997E+02  0.45594000000E+02  0.51100000000E-03 0. -1.
         11   -1    0    0    0    0 -0.00000000000E+00 -0.00000000000E+00 -0.45593999997E+02  0.45594000000E+02  0.51100000000E-03 0.  1.
    9900012    2    1    2    0    0 -0.18411003863E+02 -0.38983359844E+02  0.49956086563E+01  0.47787268280E+02  0.19999987397E+02 0.  0.
         12    1    1    2    0    0  0.18411003863E+02  0.38983359844E+02 -0.49956086563E+01  0.43400731720E+02  0.00000000000E+00 0. -1.
         11    1    3    3    0    0  0.24376285740E+01 -0.45426139175E+01 -0.36001043986E+01  0.62879349719E+01  0.51100000000E-03 0. -1.
        -11    1    3    3    0    0 -0.66632428081E+01 -0.15979220131E+02  0.33607143742E+01  0.17636005275E+02  0.51100000000E-03 0.  1.
         12    1    3    3    0    0 -0.14185389628E+02 -0.18461525796E+02  0.52349986807E+01  0.23863328033E+02  0.00000000000E+00 0. -1.
</event>
<event>
 7    1  0.2599124E-010  0.4778727E+02  0.7816164E-02  0.1312668E+00
        -11   -1    0    0    0    0  0.00000000000E+00  0.00000000000E+00  0.45593999997E+02  0.45594000000E+02  0.51100000000E-03 0.  1.
         11   -1    0    0    0    0 -0.00000000000E+00 -0.00000000000E+00 -0.45593999997E+02  0.45594000000E+02  0.51100000000E-03 0. -1.
    9900012    2    1    2    0    0  0.48599780969E+01 -0.32188491107E+02 -0.28703738257E+02  0.47787274928E+02  0.20000017705E+02 0.  0.
         12    1    1    2    0    0 -0.48599780969E+01  0.32188491107E+02  0.28703738257E+02  0.43400725072E+02  0.00000000000E+00 0. -1.
         11    1    3    3    0    0 -0.15183428225E+01 -0.39236450493E+01 -0.58512013582E+01  0.72067269266E+01  0.51100000000E-03 0. -1.
        -11    1    3    3    0    0  0.10641960385E+02 -0.21151008567E+02 -0.21864078486E+02  0.32228161793E+02  0.51100000000E-03 0.  1.
         12    1    3    3    0    0 -0.42636394656E+01 -0.71138374910E+01 -0.98845841322E+00  0.83523862085E+01  0.00000000000E+00 0. -1.
</event>
<event>
 7    1  0.2599124E-010  0.4778727E+02  0.7816164E-02  0.1312668E+00
        -11   -1    0    0    0    0  0.00000000000E+00  0.00000000000E+00  0.45593999997E+02  0.45594000000E+02  0.51100000000E-03 0. -1.
         11   -1    0    0    0    0 -0.00000000000E+00 -0.00000000000E+00 -0.45593999997E+02  0.45594000000E+02  0.51100000000E-03 0.  1.
    9900012    2    1    2    0    0 -0.26129777804E+02  0.15846392228E+02 -0.30818009900E+02  0.47787272253E+02  0.20000005512E+02 0.  0.
         12    1    1    2    0    0  0.26129777804E+02 -0.15846392228E+02  0.30818009900E+02  0.43400727747E+02  0.00000000000E+00 0. -1.
         11    1    3    3    0    0  0.13558836957E+01  0.22032993722E+01 -0.57470459716E+00  0.26501385539E+01  0.51100000000E-03 0. -1.
        -11    1    3    3    0    0 -0.38409565559E+01  0.80956428980E+01 -0.10750983562E+02  0.13995571764E+02  0.51100000000E-03 0.  1.
        -12    1    3    3    0    0 -0.23644704944E+02  0.55474499578E+01 -0.19492321741E+02  0.31141561936E+02  0.00000000000E+00 0.  1.
</event>
<event>
 7    1  0.2599124E-010  0.4778727E+02  0.7816164E-02  0.1312668E+00
        -11   -1    0    0    0    0  0.00000000000E+00  0.00000000000E+00  0.45593999997E+02  0.45594000000E+02  0.51100000000E-03 0.  1.
         11   -1    0    0    0    0 -0.00000000000E+00 -0.00000000000E+00 -0.45593999997E+02  0.45594000000E+02  0.51100000000E-03 0. -1.
    9900012    2    1    2    0    0 -0.31377262953E+02  0.11747668496E+01  0.29961819003E+02  0.47787270680E+02  0.19999998337E+02 0.  0.
         12    1    1    2    0    0  0.31377262953E+02 -0.11747668496E+01 -0.29961819003E+02  0.43400729320E+02  0.00000000000E+00 0. -1.
         11    1    3    3    0    0 -0.25602871197E+01  0.15349059821E+01 -0.13406449494E+01  0.32723593401E+01  0.51100000000E-03 0. -1.
        -11    1    3    3    0    0 -0.26986523727E+02  0.35242184542E+01  0.25491485875E+02  0.37289521732E+02  0.51100000000E-03 0.  1.
         12    1    3    3    0    0 -0.18304521064E+01 -0.38843575867E+01  0.58109780768E+01  0.72253896078E+01  0.00000000000E+00 0. -1.
</event>
<event>
 7    1  0.2599124E-010  0.4778728E+02  0.7816164E-02  0.1312668E+00
        -11   -1    0    0    0    0  0.00000000000E+00  0.00000000000E+00  0.45593999997E+02  0.45594000000E+02  0.51100000000E-03 0.  1.
         11   -1    0    0    0    0 -0.00000000000E+00 -0.00000000000E+00 -0.45593999997E+02  0.45594000000E+02  0.51100000000E-03 0. -1.
    9900012    2    1    2    0    0 -0.27844628337E+02 -0.67434552725E+01  0.32601000351E+02  0.47787277193E+02  0.20000028035E+02 0.  0.
         12    1    1    2    0    0  0.27844628337E+02  0.67434552725E+01 -0.32601000351E+02  0.43400722807E+02  0.00000000000E+00 0. -1.
         11    1    3    3    0    0 -0.30055409466E+01 -0.40836116218E+01  0.10614639147E+02  0.11763491180E+02  0.51100000000E-03 0. -1.
        -11    1    3    3    0    0 -0.11537382660E+02 -0.46152224688E+01  0.18233497838E+02  0.22065174388E+02  0.51100000000E-03 0.  1.
         12    1    3    3    0    0 -0.13301704731E+02  0.19553788181E+01  0.37528633653E+01  0.13958611625E+02  0.00000000000E+00 0. -1.
</event>
<event>
 7    1  0.2599124E-010  0.4778727E+02  0.7816164E-02  0.1312668E+00
        -11   -1    0    0    0    0  0.00000000000E+00  0.00000000000E+00  0.45593999997E+02  0.45594000000E+02  0.51100000000E-03 0.  1.
         11   -1    0    0    0    0 -0.00000000000E+00 -0.00000000000E+00 -0.45593999997E+02  0.45594000000E+02  0.51100000000E-03 0. -1.
    9900012    2    1    2    0    0  0.12182447547E+02  0.36792592803E+02  0.19532442769E+02  0.47787271505E+02  0.20000002099E+02 0.  0.
         12    1    1    2    0    0 -0.12182447547E+02 -0.36792592803E+02 -0.19532442769E+02  0.43400728495E+02  0.00000000000E+00 0. -1.
         11    1    3    3    0    0  0.18176812715E+01 -0.60249300890E+00  0.57711354312E+00  0.20000058333E+01  0.51100000000E-03 0. -1.
        -11    1    3    3    0    0  0.18860087585E+01  0.24380702712E+01  0.73836351677E+01  0.80012051740E+01  0.51100000000E-03 0.  1.
         12    1    3    3    0    0  0.84787575170E+01  0.34957015541E+02  0.11571694058E+02  0.37786060498E+02  0.00000000000E+00 0. -1.
</event>
<event>
 7    1  0.2599124E-010  0.4778727E+02  0.7816164E-02  0.1312668E+00
        -11   -1    0    0    0    0  0.00000000000E+00  0.00000000000E+00  0.45593999997E+02  0.45594000000E+02  0.51100000000E-03 0.  1.
         11   -1    0    0    0    0 -0.00000000000E+00 -0.00000000000E+00 -0.45593999997E+02  0.45594000000E+02  0.51100000000E-03 0. -1.
    9900012    2    1    2    0    0  0.31252171863E+00  0.35702273005E+01  0.43252506153E+02  0.47787268655E+02  0.19999989105E+02 0.  0.
         12    1    1    2    0    0 -0.31252171863E+00 -0.35702273005E+01 -0.43252506153E+02  0.43400731345E+02  0.00000000000E+00 0. -1.
         11    1    3    3    0    0 -0.58501885530E+01  0.32696515348E+01  0.19576690996E+02  0.20692079593E+02  0.51100000000E-03 0. -1.
        -11    1    3    3    0    0 -0.77924636777E+00  0.15521128018E+01  0.17884145369E+02  0.17968275790E+02  0.51100000000E-03 0.  1.
         12    1    3    3    0    0  0.69419566394E+01 -0.12515370361E+01  0.57916697882E+01  0.91269132718E+01  0.00000000000E+00 0. -1.
</event>
<event>
 7    1  0.2599124E-010  0.4778727E+02  0.7816164E-02  0.1312668E+00
        -11   -1    0    0    0    0  0.00000000000E+00  0.00000000000E+00  0.45593999997E+02  0.45594000000E+02  0.51100000000E-03 0.  1.
         11   -1    0    0    0    0 -0.00000000000E+00 -0.00000000000E+00 -0.45593999997E+02  0.45594000000E+02  0.51100000000E-03 0. -1.
    9900012    2    1    2    0    0  0.29611875910E+02 -0.14812198393E+02  0.28059919309E+02  0.47787268580E+02  0.19999988764E+02 0.  0.
         12    1    1    2    0    0 -0.29611875910E+02  0.14812198393E+02 -0.28059919309E+02  0.43400731420E+02  0.00000000000E+00 0. -1.
         11    1    3    3    0    0  0.15838059971E+02 -0.49040608122E+01  0.47690933003E+01  0.17252194274E+02  0.51100000000E-03 0. -1.
        -11    1    3    3    0    0  0.74175485061E+01 -0.74866126799E+01  0.64095471889E+01  0.12334978342E+02  0.51100000000E-03 0.  1.
        -12    1    3    3    0    0  0.63562674332E+01 -0.24215249008E+01  0.16881278820E+02  0.18200095965E+02  0.00000000000E+00 0.  1.
</event>
<event>
 7    1  0.2599124E-010  0.4778727E+02  0.7816164E-02  0.1312668E+00
        -11   -1    0    0    0    0  0.00000000000E+00  0.00000000000E+00  0.45593999997E+02  0.45594000000E+02  0.51100000000E-03 0.  1.
         11   -1    0    0    0    0 -0.00000000000E+00 -0.00000000000E+00 -0.45593999997E+02  0.45594000000E+02  0.51100000000E-03 0. -1.
    9900012    2    1    2    0    0  0.41960931026E+02  0.23679847329E+01  0.10830346409E+02  0.47787268582E+02  0.19999988774E+02 0.  0.
         12    1    1    2    0    0 -0.41960931026E+02 -0.23679847329E+01 -0.10830346409E+02  0.43400731418E+02  0.00000000000E+00 0. -1.
         11    1    3    3    0    0  0.34414560361E+01 -0.12121030064E+01  0.52120106020E+01  0.63622219486E+01  0.51100000000E-03 0. -1.
        -11    1    3    3    0    0  0.11440702957E+02 -0.52099032023E+01  0.18827116146E+01  0.12711309091E+02  0.51100000000E-03 0.  1.
         12    1    3    3    0    0  0.27078772033E+02  0.87899909416E+01  0.37356241927E+01  0.28713737543E+02  0.00000000000E+00 0. -1.
</event>
<event>
 7    1  0.2599124E-010  0.4778727E+02  0.7816164E-02  0.1312668E+00
        -11   -1    0    0    0    0  0.00000000000E+00  0.00000000000E+00  0.45593999997E+02  0.45594000000E+02  0.51100000000E-03 0.  1.
         11   -1    0    0    0    0 -0.00000000000E+00 -0.00000000000E+00 -0.45593999997E+02  0.45594000000E+02  0.51100000000E-03 0. -1.
    9900012    2    1    2    0    0 -0.20182404785E+02 -0.38124708287E+02 -0.47749738763E+01  0.47787271660E+02  0.20000002807E+02 0.  0.
         12    1    1    2    0    0  0.20182404785E+02  0.38124708287E+02  0.47749738763E+01  0.43400728340E+02  0.00000000000E+00 0. -1.
         11    1    3    3    0    0 -0.32829247409E+01 -0.13915800421E+02  0.14363368089E+00  0.14298521851E+02  0.51100000000E-03 0. -1.
        -11    1    3    3    0    0  0.92322410478E+00 -0.92615640417E+01  0.13327957270E+01  0.94024069236E+01  0.51100000000E-03 0.  1.
        -12    1    3    3    0    0 -0.17822704149E+02 -0.14947343824E+02 -0.62514032842E+01  0.24086342886E+02  0.00000000000E+00 0.  1.
</event>
<event>
 7    1  0.2599124E-010  0.4778727E+02  0.7816164E-02  0.1312668E+00
        -11   -1    0    0    0    0  0.00000000000E+00  0.00000000000E+00  0.45593999997E+02  0.45594000000E+02  0.51100000000E-03 0.  1.
         11   -1    0    0    0    0 -0.00000000000E+00 -0.00000000000E+00 -0.45593999997E+02  0.45594000000E+02  0.51100000000E-03 0. -1.
    9900012    2    1    2    0    0  0.83962881943E+01  0.15001644049E+02  0.39850675526E+02  0.47787270519E+02  0.19999997603E+02 0.  0.
         12    1    1    2    0    0 -0.83962881943E+01 -0.15001644049E+02 -0.39850675526E+02  0.43400729481E+02  0.00000000000E+00 0. -1.
         11    1    3    3    0    0  0.89361492101E+00  0.13934820724E+01 -0.63552929166E+00  0.17731998350E+01  0.51100000000E-03 0. -1.
        -11    1    3    3    0    0  0.77076592890E+00 -0.31166426874E+01  0.10943198381E+02  0.11404434788E+02  0.51100000000E-03 0.  1.
        -12    1    3    3    0    0  0.67319073444E+01  0.16724804664E+02  0.29543006436E+02  0.34609635896E+02  0.00000000000E+00 0.  1.
</event>
<event>
 7    1  0.2599124E-010  0.4778727E+02  0.7816164E-02  0.1312668E+00
        -11   -1    0    0    0    0  0.00000000000E+00  0.00000000000E+00  0.45593999997E+02  0.45594000000E+02  0.51100000000E-03 0.  1.
         11   -1    0    0    0    0 -0.00000000000E+00 -0.00000000000E+00 -0.45593999997E+02  0.45594000000E+02  0.51100000000E-03 0. -1.
    9900012    2    1    2    0    0 -0.43146033783E+02 -0.46112333777E+01 -0.88298062977E+00  0.47787270061E+02  0.19999995515E+02 0.  0.
         12    1    1    2    0    0  0.43146033783E+02  0.46112333777E+01  0.88298062977E+00  0.43400729939E+02  0.00000000000E+00 0. -1.
         11    1    3    3    0    0 -0.11765697231E+02  0.61978573880E+01  0.23443283697E+01  0.13503367850E+02  0.51100000000E-03 0.  1.
        -11    1    3    3    0    0 -0.11388723624E+01  0.40201371037E+00  0.12310203327E+01  0.17245453319E+01  0.51100000000E-03 0. -1.
        -12    1    3    3    0    0 -0.30241464190E+02 -0.11211104476E+02 -0.44583293322E+01  0.32559356878E+02  0.00000000000E+00 0.  1.
</event>
<event>
 7    1  0.2599124E-010  0.4778727E+02  0.7816164E-02  0.1312668E+00
        -11   -1    0    0    0    0  0.00000000000E+00  0.00000000000E+00  0.45593999997E+02  0.45594000000E+02  0.51100000000E-03 0. -1.
         11   -1    0    0    0    0 -0.00000000000E+00 -0.00000000000E+00 -0.45593999997E+02  0.45594000000E+02  0.51100000000E-03 0.  1.
    9900012    2    1    2    0    0 -0.53082564035E+01 -0.29317891845E+02 -0.31557998054E+02  0.47787267179E+02  0.19999982375E+02 0.  0.
         12    1    1    2    0    0  0.53082564035E+01  0.29317891845E+02  0.31557998054E+02  0.43400732821E+02  0.00000000000E+00 0. -1.
         11    1    3    3    0    0 -0.92525845501E+01 -0.60679505163E+01 -0.15143239037E+02  0.18754946897E+02  0.51100000000E-03 0. -1.
        -11    1    3    3    0    0  0.15860581512E+01 -0.39320150106E+01 -0.46434766209E+01  0.62879406719E+01  0.51100000000E-03 0.  1.
         12    1    3    3    0    0  0.23582699954E+01 -0.19317926318E+02 -0.11771282395E+02  0.22744379610E+02  0.00000000000E+00 0. -1.
</event>
<event>
 7    1  0.2599124E-010  0.4778727E+02  0.7816164E-02  0.1312668E+00
        -11   -1    0    0    0    0  0.00000000000E+00  0.00000000000E+00  0.45593999997E+02  0.45594000000E+02  0.51100000000E-03 0.  1.
         11   -1    0    0    0    0 -0.00000000000E+00 -0.00000000000E+00 -0.45593999997E+02  0.45594000000E+02  0.51100000000E-03 0. -1.
    9900012    2    1    2    0    0  0.35775009022E+02  0.11329312908E+02  0.21804094861E+02  0.47787272423E+02  0.20000006286E+02 0.  0.
         12    1    1    2    0    0 -0.35775009022E+02 -0.11329312908E+02 -0.21804094861E+02  0.43400727577E+02  0.00000000000E+00 0. -1.
         11    1    3    3    0    0  0.55637713336E+01  0.63743428364E+01  0.26345664525E+01  0.88616442437E+01  0.51100000000E-03 0. -1.
        -11    1    3    3    0    0  0.29169976034E+00  0.29587075500E+01 -0.56781682677E+00  0.30267896072E+01  0.51100000000E-03 0.  1.
        -12    1    3    3    0    0  0.29919537928E+02  0.19962625219E+01  0.19737345235E+02  0.35898838572E+02  0.00000000000E+00 0.  1.
</event>
<event>
 7    1  0.2599124E-010  0.4778727E+02  0.7816164E-02  0.1312668E+00
        -11   -1    0    0    0    0  0.00000000000E+00  0.00000000000E+00  0.45593999997E+02  0.45594000000E+02  0.51100000000E-03 0. -1.
         11   -1    0    0    0    0 -0.00000000000E+00 -0.00000000000E+00 -0.45593999997E+02  0.45594000000E+02  0.51100000000E-03 0.  1.
    9900012    2    1    2    0    0 -0.21833140374E+02 -0.34902372920E+02 -0.13739053672E+02  0.47787271321E+02  0.20000001263E+02 0.  0.
         12    1    1    2    0    0  0.21833140374E+02  0.34902372920E+02  0.13739053672E+02  0.43400728679E+02  0.00000000000E+00 0. -1.
         11    1    3    3    0    0 -0.42409924209E+01 -0.15267621310E+02 -0.25437108463E+01  0.16048574464E+02  0.51100000000E-03 0. -1.
        -11    1    3    3    0    0 -0.10595845262E+01 -0.80300167331E+01  0.97273148746E+00  0.81578241529E+01  0.51100000000E-03 0.  1.
        -12    1    3    3    0    0 -0.16532563427E+02 -0.11604734876E+02 -0.12168074313E+02  0.23580872705E+02  0.00000000000E+00 0.  1.
</event>
<event>
 7    1  0.2599124E-010  0.4778727E+02  0.7816164E-02  0.1312668E+00
        -11   -1    0    0    0    0  0.00000000000E+00  0.00000000000E+00  0.45593999997E+02  0.45594000000E+02  0.51100000000E-03 0. -1.
         11   -1    0    0    0    0 -0.00000000000E+00 -0.00000000000E+00 -0.45593999997E+02  0.45594000000E+02  0.51100000000E-03 0.  1.
    9900012    2    1    2    0    0 -0.47912531688E+01 -0.42485139973E+02 -0.74618911574E+01  0.47787273680E+02  0.20000012016E+02 0.  0.
         12    1    1    2    0    0  0.47912531688E+01  0.42485139973E+02  0.74618911574E+01  0.43400726320E+02  0.00000000000E+00 0. -1.
         11    1    3    3    0    0 -0.34238693427E+01 -0.14545133356E+02  0.32138056511E+01  0.15284381984E+02  0.51100000000E-03 0. -1.
        -11    1    3    3    0    0  0.45458857608E+01 -0.14597034222E+02 -0.17329807788E+01  0.15386413100E+02  0.51100000000E-03 0.  1.
        -12    1    3    3    0    0 -0.59132695869E+01 -0.13342972395E+02 -0.89427160298E+01  0.17116478596E+02  0.00000000000E+00 0.  1.
</event>
<event>
 7    1  0.2599124E-010  0.4778727E+02  0.7816164E-02  0.1312668E+00
        -11   -1    0    0    0    0  0.00000000000E+00  0.00000000000E+00  0.45593999997E+02  0.45594000000E+02  0.51100000000E-03 0.  1.
         11   -1    0    0    0    0 -0.00000000000E+00 -0.00000000000E+00 -0.45593999997E+02  0.45594000000E+02  0.51100000000E-03 0. -1.
    9900012    2    1    2    0    0  0.25351948799E+02  0.10432796252E+02  0.33646081786E+02  0.47787269993E+02  0.19999995208E+02 0.  0.
         12    1    1    2    0    0 -0.25351948799E+02 -0.10432796252E+02 -0.33646081786E+02  0.43400730007E+02  0.00000000000E+00 0. -1.
         11    1    3    3    0    0  0.14176044039E+02 -0.18291246422E+01  0.14866179745E+02  0.20623026500E+02  0.51100000000E-03 0. -1.
        -11    1    3    3    0    0  0.56675739320E+01  0.41149509790E+00  0.97322935518E+01  0.11269794165E+02  0.51100000000E-03 0.  1.
        -12    1    3    3    0    0  0.55083308281E+01  0.11850425796E+02  0.90476084894E+01  0.15894449328E+02  0.00000000000E+00 0.  1.
</event>
<event>
 7    1  0.2599124E-010  0.4778727E+02  0.7816164E-02  0.1312668E+00
        -11   -1    0    0    0    0  0.00000000000E+00  0.00000000000E+00  0.45593999997E+02  0.45594000000E+02  0.51100000000E-03 0.  1.
         11   -1    0    0    0    0 -0.00000000000E+00 -0.00000000000E+00 -0.45593999997E+02  0.45594000000E+02  0.51100000000E-03 0. -1.
    9900012    2    1    2    0    0  0.64911022631E+01  0.31047420694E+02  0.29623407438E+02  0.47787274101E+02  0.20000013937E+02 0.  0.
         12    1    1    2    0    0 -0.64911022631E+01 -0.31047420694E+02 -0.29623407438E+02  0.43400725899E+02  0.00000000000E+00 0. -1.
         11    1    3    3    0    0  0.57961905790E+00  0.70800770913E+01 -0.59939697945E+00  0.71290060226E+01  0.51100000000E-03 0. -1.
        -11    1    3    3    0    0  0.79188929779E+00  0.15530787735E+02  0.10992977517E+02  0.19044106997E+02  0.51100000000E-03 0.  1.
         12    1    3    3    0    0  0.51195939074E+01  0.84365558673E+01  0.19229826900E+02  0.21614161082E+02  0.00000000000E+00 0. -1.
</event>
<event>
 7    1  0.2599124E-010  0.4778727E+02  0.7816164E-02  0.1312668E+00
        -11   -1    0    0    0    0  0.00000000000E+00  0.00000000000E+00  0.45593999997E+02  0.45594000000E+02  0.51100000000E-03 0. -1.
         11   -1    0    0    0    0 -0.00000000000E+00 -0.00000000000E+00 -0.45593999997E+02  0.45594000000E+02  0.51100000000E-03 0.  1.
    9900012    2    1    2    0    0 -0.42083115730E+02 -0.10217969379E+02 -0.28683544632E+01  0.47787274372E+02  0.20000015169E+02 0.  0.
         12    1    1    2    0    0  0.42083115730E+02  0.10217969379E+02  0.28683544632E+01  0.43400725628E+02  0.00000000000E+00 0. -1.
         11    1    3    3    0    0 -0.46734552771E+01  0.87025814859E+00 -0.37460051450E+01  0.60523622066E+01  0.51100000000E-03 0. -1.
        -11    1    3    3    0    0 -0.10547072833E+02 -0.10455317914E+02  0.60804727501E+00  0.14863517073E+02  0.51100000000E-03 0.  1.
         12    1    3    3    0    0 -0.26862587620E+02 -0.63290961382E+00  0.26960340674E+00  0.26871395092E+02  0.00000000000E+00 0. -1.
</event>
<event>
 7    1  0.2599124E-010  0.4778727E+02  0.7816164E-02  0.1312668E+00
        -11   -1    0    0    0    0  0.00000000000E+00  0.00000000000E+00  0.45593999997E+02  0.45594000000E+02  0.51100000000E-03 0.  1.
         11   -1    0    0    0    0 -0.00000000000E+00 -0.00000000000E+00 -0.45593999997E+02  0.45594000000E+02  0.51100000000E-03 0. -1.
    9900012    2    1    2    0    0 -0.21432722530E+02  0.33657051897E+02  0.17072332182E+02  0.47787271163E+02  0.20000000540E+02 0.  0.
         12    1    1    2    0    0  0.21432722530E+02 -0.33657051897E+02 -0.17072332182E+02  0.43400728837E+02  0.00000000000E+00 0. -1.
         11    1    3    3    0    0 -0.43451104790E+01  0.94320325075E+01  0.88981251096E+00  0.10422810987E+02  0.51100000000E-03 0. -1.
        -11    1    3    3    0    0  0.22036104325E+01  0.62608394323E+01  0.64779315520E+01  0.92745677413E+01  0.51100000000E-03 0.  1.
        -12    1    3    3    0    0 -0.19291222484E+02  0.17964179957E+02  0.97045881192E+01  0.28089892435E+02  0.00000000000E+00 0.  1.
</event>
<event>
 7    1  0.2599124E-010  0.4778727E+02  0.7816164E-02  0.1312668E+00
        -11   -1    0    0    0    0  0.00000000000E+00  0.00000000000E+00  0.45593999997E+02  0.45594000000E+02  0.51100000000E-03 0.  1.
         11   -1    0    0    0    0 -0.00000000000E+00 -0.00000000000E+00 -0.45593999997E+02  0.45594000000E+02  0.51100000000E-03 0. -1.
    9900012    2    1    2    0    0 -0.70042366678E+01  0.11534975189E+02  0.41249345456E+02  0.47787268618E+02  0.19999988938E+02 0.  0.
         12    1    1    2    0    0  0.70042366678E+01 -0.11534975189E+02 -0.41249345456E+02  0.43400731382E+02  0.00000000000E+00 0. -1.
         11    1    3    3    0    0 -0.19971508481E+01 -0.29928309747E+01  0.11254339732E+02  0.11815490334E+02  0.51100000000E-03 0. -1.
        -11    1    3    3    0    0 -0.45754341180E+01  0.90426172049E+00  0.25191724625E+01  0.53008034093E+01  0.51100000000E-03 0.  1.
        -12    1    3    3    0    0 -0.43165170170E+00  0.13623544443E+02  0.27475833261E+02  0.30670974875E+02  0.00000000000E+00 0.  1.
</event>
<event>
 7    1  0.2599124E-010  0.4778727E+02  0.7816164E-02  0.1312668E+00
        -11   -1    0    0    0    0  0.00000000000E+00  0.00000000000E+00  0.45593999997E+02  0.45594000000E+02  0.51100000000E-03 0.  1.
         11   -1    0    0    0    0 -0.00000000000E+00 -0.00000000000E+00 -0.45593999997E+02  0.45594000000E+02  0.51100000000E-03 0. -1.
    9900012    2    1    2    0    0 -0.10949995622E+02  0.32335301273E+02  0.26798311052E+02  0.47787267428E+02  0.19999983512E+02 0.  0.
         12    1    1    2    0    0  0.10949995622E+02 -0.32335301273E+02 -0.26798311052E+02  0.43400732572E+02  0.00000000000E+00 0. -1.
         11    1    3    3    0    0 -0.10232322521E+02  0.65462454850E+01  0.11798514896E+02  0.16933951345E+02  0.51100000000E-03 0.  1.
        -11    1    3    3    0    0  0.11306390206E+01  0.35933431384E+01  0.54373803598E+01  0.66147989345E+01  0.51100000000E-03 0. -1.
         12    1    3    3    0    0 -0.18483121213E+01  0.22195712650E+02  0.95624157958E+01  0.24238517149E+02  0.00000000000E+00 0. -1.
</event>
<event>
 7    1  0.2599124E-010  0.4778727E+02  0.7816164E-02  0.1312668E+00
        -11   -1    0    0    0    0  0.00000000000E+00  0.00000000000E+00  0.45593999997E+02  0.45594000000E+02  0.51100000000E-03 0.  1.
         11   -1    0    0    0    0 -0.00000000000E+00 -0.00000000000E+00 -0.45593999997E+02  0.45594000000E+02  0.51100000000E-03 0. -1.
    9900012    2    1    2    0    0 -0.75968907477E+01 -0.13897953606E+02  0.40407392253E+02  0.47787271755E+02  0.20000003241E+02 0.  0.
         12    1    1    2    0    0  0.75968907477E+01  0.13897953606E+02 -0.40407392253E+02  0.43400728245E+02  0.00000000000E+00 0. -1.
         11    1    3    3    0    0  0.31034963035E+01 -0.45599393572E+01  0.21902948298E+01  0.59348233293E+01  0.51100000000E-03 0. -1.
        -11    1    3    3    0    0 -0.71974197300E+00  0.78068219151E+00  0.11860826907E+02  0.11908262189E+02  0.51100000000E-03 0.  1.
        -12    1    3    3    0    0 -0.99806450783E+01 -0.10118696440E+02  0.26356270517E+02  0.29944186236E+02  0.00000000000E+00 0.  1.
</event>
<event>
 7    1  0.2599124E-010  0.4778727E+02  0.7816164E-02  0.1312668E+00
        -11   -1    0    0    0    0  0.00000000000E+00  0.00000000000E+00  0.45593999997E+02  0.45594000000E+02  0.51100000000E-03 0.  1.
         11   -1    0    0    0    0 -0.00000000000E+00 -0.00000000000E+00 -0.45593999997E+02  0.45594000000E+02  0.51100000000E-03 0. -1.
    9900012    2    1    2    0    0 -0.24806309370E+02  0.12664122921E+02  0.33284980736E+02  0.47787274931E+02  0.20000017721E+02 0.  0.
         12    1    1    2    0    0  0.24806309370E+02 -0.12664122921E+02 -0.33284980736E+02  0.43400725069E+02  0.00000000000E+00 0. -1.
         11    1    3    3    0    0 -0.73502220479E+01  0.19983282551E+01  0.21865765929E+02  0.23154498480E+02  0.51100000000E-03 0.  1.
        -11    1    3    3    0    0 -0.46198231517E+01  0.71535694922E+01  0.42825935809E+01  0.95318901837E+01  0.51100000000E-03 0. -1.
        -12    1    3    3    0    0 -0.12836264170E+02  0.35122251739E+01  0.71366212262E+01  0.15100886267E+02  0.00000000000E+00 0.  1.
</event>
<event>
 7    1  0.2599124E-010  0.4778727E+02  0.7816164E-02  0.1312668E+00
        -11   -1    0    0    0    0  0.00000000000E+00  0.00000000000E+00  0.45593999997E+02  0.45594000000E+02  0.51100000000E-03 0.  1.
         11   -1    0    0    0    0 -0.00000000000E+00 -0.00000000000E+00 -0.45593999997E+02  0.45594000000E+02  0.51100000000E-03 0. -1.
    9900012    2    1    2    0    0  0.43291877842E+02 -0.53179527196E+00  0.30255217294E+01  0.47787271032E+02  0.19999999941E+02 0.  0.
         12    1    1    2    0    0 -0.43291877842E+02  0.53179527196E+00 -0.30255217294E+01  0.43400728968E+02  0.00000000000E+00 0. -1.
         11    1    3    3    0    0  0.13528175149E+02  0.17919508797E+01 -0.17071494658E+01  0.13752707748E+02  0.51100000000E-03 0. -1.
        -11    1    3    3    0    0  0.29629566377E+02 -0.12292355632E+01  0.78929149171E+01  0.30687462096E+02  0.51100000000E-03 0.  1.
         12    1    3    3    0    0  0.13413631503E+00 -0.10945105884E+01 -0.31602437219E+01  0.33471011878E+01  0.00000000000E+00 0. -1.
</event>
<event>
 7    1  0.2599124E-010  0.4778727E+02  0.7816164E-02  0.1312668E+00
        -11   -1    0    0    0    0  0.00000000000E+00  0.00000000000E+00  0.45593999997E+02  0.45594000000E+02  0.51100000000E-03 0. -1.
         11   -1    0    0    0    0 -0.00000000000E+00 -0.00000000000E+00 -0.45593999997E+02  0.45594000000E+02  0.51100000000E-03 0.  1.
    9900012    2    1    2    0    0  0.12674697586E+02 -0.20190920639E+02  0.36267098539E+02  0.47787266463E+02  0.19999979111E+02 0.  0.
         12    1    1    2    0    0 -0.12674697586E+02  0.20190920639E+02 -0.36267098539E+02  0.43400733537E+02  0.00000000000E+00 0. -1.
         11    1    3    3    0    0 -0.10504731279E+00 -0.10240073310E+02  0.11000012136E+02  0.15028985447E+02  0.51100000000E-03 0.  1.
        -11    1    3    3    0    0  0.10505211655E+02 -0.11965551474E+02  0.14379651437E+02  0.21454795960E+02  0.51100000000E-03 0. -1.
        -12    1    3    3    0    0  0.22745332440E+01  0.20147041443E+01  0.10887434966E+02  0.11303485056E+02  0.00000000000E+00 0.  1.
</event>
<event>
 7    1  0.2599124E-010  0.4778727E+02  0.7816164E-02  0.1312668E+00
        -11   -1    0    0    0    0  0.00000000000E+00  0.00000000000E+00  0.45593999997E+02  0.45594000000E+02  0.51100000000E-03 0.  1.
         11   -1    0    0    0    0 -0.00000000000E+00 -0.00000000000E+00 -0.45593999997E+02  0.45594000000E+02  0.51100000000E-03 0. -1.
    9900012    2    1    2    0    0  0.20279189103E+02 -0.34617090048E+02  0.16553992529E+02  0.47787273016E+02  0.20000008990E+02 0.  0.
         12    1    1    2    0    0 -0.20279189103E+02  0.34617090048E+02 -0.16553992529E+02  0.43400726984E+02  0.00000000000E+00 0. -1.
         11    1    3    3    0    0  0.17170917956E+02 -0.19110005544E+02  0.45170089200E+01  0.26085170216E+02  0.51100000000E-03 0.  1.
        -11    1    3    3    0    0 -0.39705038942E-02 -0.52341664860E+00 -0.13007180214E+01  0.14020871532E+01  0.51100000000E-03 0. -1.
        -12    1    3    3    0    0  0.31122416505E+01 -0.14983667856E+02  0.13337701630E+02  0.20300015647E+02  0.00000000000E+00 0.  1.
</event>
<event>
 7    1  0.2599124E-010  0.4778727E+02  0.7816164E-02  0.1312668E+00
        -11   -1    0    0    0    0  0.00000000000E+00  0.00000000000E+00  0.45593999997E+02  0.45594000000E+02  0.51100000000E-03 0. -1.
         11   -1    0    0    0    0 -0.00000000000E+00 -0.00000000000E+00 -0.45593999997E+02  0.45594000000E+02  0.51100000000E-03 0.  1.
    9900012    2    1    2    0    0 -0.27324776787E+02  0.11846839227E+02 -0.31569484892E+02  0.47787269563E+02  0.19999993246E+02 0.  0.
         12    1    1    2    0    0  0.27324776787E+02 -0.11846839227E+02  0.31569484892E+02  0.43400730437E+02  0.00000000000E+00 0. -1.
         11    1    3    3    0    0 -0.12041329897E+02  0.66268496702E+01 -0.17535028905E+02  0.22279721749E+02  0.51100000000E-03 0.  1.
        -11    1    3    3    0    0 -0.16295029881E+02  0.73972099816E+01 -0.92274017340E+01  0.20134340251E+02  0.51100000000E-03 0. -1.
         12    1    3    3    0    0  0.10115829910E+01 -0.21772204252E+01 -0.48070542530E+01  0.53732075634E+01  0.00000000000E+00 0. -1.
</event>
<event>
 7    1  0.2599124E-010  0.4778727E+02  0.7816164E-02  0.1312668E+00
        -11   -1    0    0    0    0  0.00000000000E+00  0.00000000000E+00  0.45593999997E+02  0.45594000000E+02  0.51100000000E-03 0.  1.
         11   -1    0    0    0    0 -0.00000000000E+00 -0.00000000000E+00 -0.45593999997E+02  0.45594000000E+02  0.51100000000E-03 0. -1.
    9900012    2    1    2    0    0 -0.12828843011E+01  0.18647928775E+02  0.39169277685E+02  0.47787270120E+02  0.19999995784E+02 0.  0.
         12    1    1    2    0    0  0.12828843011E+01 -0.18647928775E+02 -0.39169277685E+02  0.43400729880E+02  0.00000000000E+00 0. -1.
         11    1    3    3    0    0 -0.66287950681E+01  0.41287673543E+01  0.60766693344E+01  0.98951278103E+01  0.51100000000E-03 0. -1.
        -11    1    3    3    0    0  0.15454207103E+01  0.77229520624E+01  0.65902339365E+01  0.10269542216E+02  0.51100000000E-03 0.  1.
        -12    1    3    3    0    0  0.38004900567E+01  0.67962093586E+01  0.26502374414E+02  0.27622600093E+02  0.00000000000E+00 0.  1.
</event>
<event>
 7    1  0.2599124E-010  0.4778727E+02  0.7816164E-02  0.1312668E+00
        -11   -1    0    0    0    0  0.00000000000E+00  0.00000000000E+00  0.45593999997E+02  0.45594000000E+02  0.51100000000E-03 0. -1.
         11   -1    0    0    0    0 -0.00000000000E+00 -0.00000000000E+00 -0.45593999997E+02  0.45594000000E+02  0.51100000000E-03 0.  1.
    9900012    2    1    2    0    0 -0.76187742327E+00  0.38238490663E+02 -0.20514881340E+02  0.47787274409E+02  0.20000015341E+02 0.  0.
         12    1    1    2    0    0  0.76187742327E+00 -0.38238490663E+02  0.20514881340E+02  0.43400725591E+02  0.00000000000E+00 0. -1.
         11    1    3    3    0    0  0.47242352367E+01  0.30183322829E+01 -0.27676369537E+01  0.62520830857E+01  0.51100000000E-03 0. -1.
        -11    1    3    3    0    0 -0.37978137552E+01  0.73802462246E+01 -0.91398421160E+01  0.12346179078E+02  0.51100000000E-03 0.  1.
        -12    1    3    3    0    0 -0.16882989047E+01  0.27839912156E+02 -0.86074022708E+01  0.29189012246E+02  0.00000000000E+00 0.  1.
</event>
<event>
 7    1  0.2599124E-010  0.4778727E+02  0.7816164E-02  0.1312668E+00
        -11   -1    0    0    0    0  0.00000000000E+00  0.00000000000E+00  0.45593999997E+02  0.45594000000E+02  0.51100000000E-03 0.  1.
         11   -1    0    0    0    0 -0.00000000000E+00 -0.00000000000E+00 -0.45593999997E+02  0.45594000000E+02  0.51100000000E-03 0. -1.
    9900012    2    1    2    0    0 -0.13281604574E+02 -0.31764260842E+02  0.26424492021E+02  0.47787273446E+02  0.20000010948E+02 0.  0.
         12    1    1    2    0    0  0.13281604574E+02  0.31764260842E+02 -0.26424492021E+02  0.43400726554E+02  0.00000000000E+00 0. -1.
         11    1    3    3    0    0 -0.50269813320E+00 -0.31840527314E+01 -0.19097047278E+01  0.37467145098E+01  0.51100000000E-03 0. -1.
        -11    1    3    3    0    0 -0.62443005861E+01 -0.38668007330E+01  0.26626612644E+01  0.78123749902E+01  0.51100000000E-03 0.  1.
        -12    1    3    3    0    0 -0.65346058549E+01 -0.24713407378E+02  0.25671535484E+02  0.36228183946E+02  0.00000000000E+00 0.  1.
</event>
<event>
 7    1  0.2599124E-010  0.4778727E+02  0.7816164E-02  0.1312668E+00
        -11   -1    0    0    0    0  0.00000000000E+00  0.00000000000E+00  0.45593999997E+02  0.45594000000E+02  0.51100000000E-03 0. -1.
         11   -1    0    0    0    0 -0.00000000000E+00 -0.00000000000E+00 -0.45593999997E+02  0.45594000000E+02  0.51100000000E-03 0.  1.
    9900012    2    1    2    0    0  0.15582791529E+02  0.39885592219E+02  0.70667783352E+01  0.47787271728E+02  0.20000003118E+02 0.  0.
         12    1    1    2    0    0 -0.15582791529E+02 -0.39885592219E+02 -0.70667783352E+01  0.43400728272E+02  0.00000000000E+00 0. -1.
         11    1    3    3    0    0  0.29175095136E+00 -0.50257021043E+00  0.15062685436E+01  0.16144784361E+01  0.51100000000E-03 0. -1.
        -11    1    3    3    0    0  0.94140687005E+01  0.13769714541E+02 -0.42303609067E+01  0.17208302697E+02  0.51100000000E-03 0.  1.
        -12    1    3    3    0    0  0.58769718773E+01  0.26618447888E+02  0.97908706983E+01  0.28964490595E+02  0.00000000000E+00 0.  1.
</event>
<event>
 7    1  0.2599124E-010  0.4778727E+02  0.7816164E-02  0.1312668E+00
        -11   -1    0    0    0    0  0.00000000000E+00  0.00000000000E+00  0.45593999997E+02  0.45594000000E+02  0.51100000000E-03 0. -1.
         11   -1    0    0    0    0 -0.00000000000E+00 -0.00000000000E+00 -0.45593999997E+02  0.45594000000E+02  0.51100000000E-03 0.  1.
    9900012    2    1    2    0    0 -0.26952398714E+02 -0.28032344668E+02  0.19271202422E+02  0.47787269743E+02  0.19999994068E+02 0.  0.
         12    1    1    2    0    0  0.26952398714E+02  0.28032344668E+02 -0.19271202422E+02  0.43400730257E+02  0.00000000000E+00 0. -1.
         11    1    3    3    0    0 -0.18557213980E+02 -0.11024983385E+02  0.14117562707E+02  0.25791976008E+02  0.51100000000E-03 0. -1.
        -11    1    3    3    0    0 -0.49201240927E+01 -0.34941499701E+01  0.53149485781E+01  0.80414789529E+01  0.51100000000E-03 0.  1.
        -12    1    3    3    0    0 -0.34750606413E+01 -0.13513211313E+02 -0.16130886326E+00  0.13953814783E+02  0.00000000000E+00 0.  1.
</event>
<event>
 7    1  0.2599124E-010  0.4778728E+02  0.7816164E-02  0.1312668E+00
        -11   -1    0    0    0    0  0.00000000000E+00  0.00000000000E+00  0.45593999997E+02  0.45594000000E+02  0.51100000000E-03 0.  1.
         11   -1    0    0    0    0 -0.00000000000E+00 -0.00000000000E+00 -0.45593999997E+02  0.45594000000E+02  0.51100000000E-03 0. -1.
    9900012    2    1    2    0    0 -0.39630546683E+02 -0.56227221707E+01 -0.16775786197E+02  0.47787282984E+02  0.20000054436E+02 0.  0.
         12    1    1    2    0    0  0.39630546683E+02  0.56227221707E+01  0.16775786197E+02  0.43400717016E+02  0.00000000000E+00 0. -1.
         11    1    3    3    0    0 -0.28467032344E+02 -0.69983022381E+01 -0.12527211357E+02  0.31879134075E+02  0.51100000000E-03 0. -1.
        -11    1    3    3    0    0 -0.31009251680E+01 -0.44161778499E+01 -0.17255672685E+01  0.56653284423E+01  0.51100000000E-03 0.  1.
         12    1    3    3    0    0 -0.80625891708E+01  0.57917579173E+01 -0.25230075714E+01  0.10242820467E+02  0.00000000000E+00 0. -1.
</event>
<event>
 7    1  0.2599124E-010  0.4778727E+02  0.7816164E-02  0.1312668E+00
        -11   -1    0    0    0    0  0.00000000000E+00  0.00000000000E+00  0.45593999997E+02  0.45594000000E+02  0.51100000000E-03 0. -1.
         11   -1    0    0    0    0 -0.00000000000E+00 -0.00000000000E+00 -0.45593999997E+02  0.45594000000E+02  0.51100000000E-03 0.  1.
    9900012    2    1    2    0    0  0.38016440717E+02  0.20321143902E+02 -0.50423248378E+01  0.47787266204E+02  0.19999977932E+02 0.  0.
         12    1    1    2    0    0 -0.38016440717E+02 -0.20321143902E+02  0.50423248378E+01  0.43400733796E+02  0.00000000000E+00 0. -1.
         11    1    3    3    0    0  0.23081405885E+02  0.90233891358E+01 -0.58239975554E+01  0.25457647121E+02  0.51100000000E-03 0. -1.
        -11    1    3    3    0    0  0.32994895147E+01  0.22159166930E+01 -0.50782409688E+01  0.64486781161E+01  0.51100000000E-03 0.  1.
         12    1    3    3    0    0  0.11635545316E+02  0.90818380730E+01  0.58599136864E+01  0.15880940967E+02  0.00000000000E+00 0. -1.
</event>
<event>
 7    1  0.2599124E-010  0.4778727E+02  0.7816164E-02  0.1312668E+00
        -11   -1    0    0    0    0  0.00000000000E+00  0.00000000000E+00  0.45593999997E+02  0.45594000000E+02  0.51100000000E-03 0. -1.
         11   -1    0    0    0    0 -0.00000000000E+00 -0.00000000000E+00 -0.45593999997E+02  0.45594000000E+02  0.51100000000E-03 0.  1.
    9900012    2    1    2    0    0  0.33459512966E+01 -0.25074370341E+01 -0.43198854973E+02  0.47787266117E+02  0.19999977535E+02 0.  0.
         12    1    1    2    0    0 -0.33459512966E+01  0.25074370341E+01  0.43198854973E+02  0.43400733883E+02  0.00000000000E+00 0. -1.
         11    1    3    3    0    0  0.68682961940E+00 -0.52364749099E+01 -0.87427039108E+01  0.10214072466E+02  0.51100000000E-03 0. -1.
        -11    1    3    3    0    0 -0.33571698344E+01 -0.39002642713E+01 -0.69565481137E+01  0.86531042177E+01  0.51100000000E-03 0.  1.
        -12    1    3    3    0    0  0.60162915117E+01  0.66293021470E+01 -0.27499602949E+02  0.28920089434E+02  0.00000000000E+00 0.  1.
</event>
<event>
 7    1 -0.2599124E-010  0.4778727E+02  0.7816164E-02  0.1312668E+00
        -11   -1    0    0    0    0  0.00000000000E+00  0.00000000000E+00  0.45593999997E+02  0.45594000000E+02  0.51100000000E-03 0. -1.
         11   -1    0    0    0    0 -0.00000000000E+00 -0.00000000000E+00 -0.45593999997E+02  0.45594000000E+02  0.51100000000E-03 0.  1.
    9900012    2    1    2    0    0  0.16879030618E+02 -0.16248126395E+02 -0.36533820082E+02  0.47787270793E+02  0.19999998852E+02 0.  0.
         12    1    1    2    0    0 -0.16879030618E+02  0.16248126395E+02  0.36533820082E+02  0.43400729207E+02  0.00000000000E+00 0. -1.
         11    1    3    3    0    0 -0.13843657118E+01 -0.42159568842E+01 -0.41610018304E+01  0.60831486392E+01  0.51100000000E-03 0. -1.
        -11    1    3    3    0    0  0.10427434424E+02 -0.87176750060E+01 -0.29899626172E+02  0.32843825777E+02  0.51100000000E-03 0.  1.
        -12    1    3    3    0    0  0.78359619066E+01 -0.33144945043E+01 -0.24731920793E+01  0.88602963766E+01  0.00000000000E+00 0.  1.
</event>
<event>
 7    1  0.2599124E-010  0.4778725E+02  0.7816164E-02  0.1312668E+00
        -11   -1    0    0    0    0  0.00000000000E+00  0.00000000000E+00  0.45593999997E+02  0.45594000000E+02  0.51100000000E-03 0.  1.
         11   -1    0    0    0    0 -0.00000000000E+00 -0.00000000000E+00 -0.45593999997E+02  0.45594000000E+02  0.51100000000E-03 0. -1.
    9900012    2    1    2    0    0  0.23538404707E+02 -0.19949180957E+01  0.36408632628E+02  0.47787254337E+02  0.19999923822E+02 0.  0.
         12    1    1    2    0    0 -0.23538404707E+02  0.19949180957E+01 -0.36408632628E+02  0.43400745663E+02  0.00000000000E+00 0. -1.
         11    1    3    3    0    0  0.15655404297E+02 -0.33207506698E+01  0.24739154760E+02  0.29464297840E+02  0.51100000000E-03 0.  1.
        -11    1    3    3    0    0  0.10361949041E+02  0.28070724488E+01  0.69457106313E+01  0.12786420144E+02  0.51100000000E-03 0. -1.
        -12    1    3    3    0    0 -0.24789486312E+01 -0.14812398747E+01  0.47237672364E+01  0.55365363528E+01  0.00000000000E+00 0.  1.
</event>
<event>
 7    1  0.2599124E-010  0.4778729E+02  0.7816164E-02  0.1312668E+00
        -11   -1    0    0    0    0  0.00000000000E+00  0.00000000000E+00  0.45593999997E+02  0.45594000000E+02  0.51100000000E-03 0.  1.
         11   -1    0    0    0    0 -0.00000000000E+00 -0.00000000000E+00 -0.45593999997E+02  0.45594000000E+02  0.51100000000E-03 0. -1.
    9900012    2    1    2    0    0 -0.26745174638E+02  0.18896331701E+02  0.28482382529E+02  0.47787287647E+02  0.20000075698E+02 0.  0.
         12    1    1    2    0    0  0.26745174638E+02 -0.18896331701E+02 -0.28482382529E+02  0.43400712353E+02  0.00000000000E+00 0. -1.
         11    1    3    3    0    0 -0.20258310939E+02  0.68703162465E+01  0.11508687557E+02  0.24290950927E+02  0.51100000000E-03 0. -1.
        -11    1    3    3    0    0 -0.69113765223E+01  0.91854871016E+01  0.78208443407E+01  0.13903449399E+02  0.51100000000E-03 0.  1.
         12    1    3    3    0    0  0.42451282270E+00  0.28405283532E+01  0.91528506319E+01  0.95928873210E+01  0.00000000000E+00 0. -1.
</event>
<event>
 7    1  0.2599124E-010  0.4778727E+02  0.7816164E-02  0.1312668E+00
        -11   -1    0    0    0    0  0.00000000000E+00  0.00000000000E+00  0.45593999997E+02  0.45594000000E+02  0.51100000000E-03 0.  1.
         11   -1    0    0    0    0 -0.00000000000E+00 -0.00000000000E+00 -0.45593999997E+02  0.45594000000E+02  0.51100000000E-03 0. -1.
    9900012    2    1    2    0    0  0.73034926429E+01  0.33984816277E+02  0.25986814433E+02  0.47787271128E+02  0.20000000382E+02 0.  0.
         12    1    1    2    0    0 -0.73034926429E+01 -0.33984816277E+02 -0.25986814433E+02  0.43400728872E+02  0.00000000000E+00 0. -1.
         11    1    3    3    0    0  0.47355966433E+01  0.69297037087E+01  0.69280379746E+01  0.10883215494E+02  0.51100000000E-03 0. -1.
        -11    1    3    3    0    0 -0.56287830762E+01  0.14635149888E+02  0.14457161870E+02  0.21327923967E+02  0.51100000000E-03 0.  1.
        -12    1    3    3    0    0  0.81966790758E+01  0.12419962681E+02  0.46016145887E+01  0.15576131667E+02  0.00000000000E+00 0.  1.
</event>
<event>
 7    1  0.2599124E-010  0.4778727E+02  0.7816164E-02  0.1312668E+00
        -11   -1    0    0    0    0  0.00000000000E+00  0.00000000000E+00  0.45593999997E+02  0.45594000000E+02  0.51100000000E-03 0.  1.
         11   -1    0    0    0    0 -0.00000000000E+00 -0.00000000000E+00 -0.45593999997E+02  0.45594000000E+02  0.51100000000E-03 0. -1.
    9900012    2    1    2    0    0 -0.10907374991E+02  0.40925061776E+02 -0.94758547352E+01  0.47787270357E+02  0.19999996866E+02 0.  0.
         12    1    1    2    0    0  0.10907374991E+02 -0.40925061776E+02  0.94758547352E+01  0.43400729643E+02  0.00000000000E+00 0. -1.
         11    1    3    3    0    0  0.29503784262E+01  0.44429229289E+01 -0.45523537265E+01  0.70120055420E+01  0.51100000000E-03 0. -1.
        -11    1    3    3    0    0 -0.37650562082E+01  0.16787418238E+02 -0.69441940880E+01  0.18553029163E+02  0.51100000000E-03 0.  1.
         12    1    3    3    0    0 -0.10092697209E+02  0.19694720610E+02  0.20206930792E+01  0.22222235652E+02  0.00000000000E+00 0. -1.
</event>
<event>
 7    1  0.2599124E-010  0.4778727E+02  0.7816164E-02  0.1312668E+00
        -11   -1    0    0    0    0  0.00000000000E+00  0.00000000000E+00  0.45593999997E+02  0.45594000000E+02  0.51100000000E-03 0.  1.
         11   -1    0    0    0    0 -0.00000000000E+00 -0.00000000000E+00 -0.45593999997E+02  0.45594000000E+02  0.51100000000E-03 0. -1.
    9900012    2    1    2    0    0  0.20849896402E+02  0.37243456389E+02  0.78632118286E+01  0.47787270466E+02  0.19999997364E+02 0.  0.
         12    1    1    2    0    0 -0.20849896402E+02 -0.37243456389E+02 -0.78632118286E+01  0.43400729534E+02  0.00000000000E+00 0. -1.
         11    1    3    3    0    0  0.28040861962E+01  0.36151302347E+01 -0.12824722828E+01  0.47515051749E+01  0.51100000000E-03 0. -1.
        -11    1    3    3    0    0  0.20234148684E+02  0.21469120686E+02  0.45310660954E+01  0.29847520436E+02  0.51100000000E-03 0.  1.
         12    1    3    3    0    0 -0.21883384778E+01  0.12159205469E+02  0.46146180160E+01  0.13188244855E+02  0.00000000000E+00 0. -1.
</event>
<event>
 7    1  0.2599124E-010  0.4778727E+02  0.7816164E-02  0.1312668E+00
        -11   -1    0    0    0    0  0.00000000000E+00  0.00000000000E+00  0.45593999997E+02  0.45594000000E+02  0.51100000000E-03 0. -1.
         11   -1    0    0    0    0 -0.00000000000E+00 -0.00000000000E+00 -0.45593999997E+02  0.45594000000E+02  0.51100000000E-03 0.  1.
    9900012    2    1    2    0    0 -0.24615936095E+02 -0.22640601627E+02 -0.27660125795E+02  0.47787266010E+02  0.19999977048E+02 0.  0.
         12    1    1    2    0    0  0.24615936095E+02  0.22640601627E+02  0.27660125795E+02  0.43400733990E+02  0.00000000000E+00 0. -1.
         11    1    3    3    0    0 -0.19847342104E+01 -0.24643569880E+01  0.73237150780E+00  0.32478598395E+01  0.51100000000E-03 0. -1.
        -11    1    3    3    0    0 -0.14339237556E+02 -0.45152741388E+01 -0.19758119717E+02  0.24827096674E+02  0.51100000000E-03 0.  1.
        -12    1    3    3    0    0 -0.82919643281E+01 -0.15660970500E+02 -0.86343775862E+01  0.19712309497E+02  0.00000000000E+00 0.  1.
</event>
<event>
 7    1  0.2599124E-010  0.4778727E+02  0.7816164E-02  0.1312668E+00
        -11   -1    0    0    0    0  0.00000000000E+00  0.00000000000E+00  0.45593999997E+02  0.45594000000E+02  0.51100000000E-03 0. -1.
         11   -1    0    0    0    0 -0.00000000000E+00 -0.00000000000E+00 -0.45593999997E+02  0.45594000000E+02  0.51100000000E-03 0.  1.
    9900012    2    1    2    0    0  0.33591039671E+01 -0.43258284788E+02 -0.10297711120E+01  0.47787271771E+02  0.20000003311E+02 0.  0.
         12    1    1    2    0    0 -0.33591039671E+01  0.43258284788E+02  0.10297711120E+01  0.43400728229E+02  0.00000000000E+00 0. -1.
         11    1    3    3    0    0  0.98035950657E+00  0.55578677765E-01  0.90251093925E-01  0.98607265078E+00  0.51100000000E-03 0. -1.
        -11    1    3    3    0    0 -0.38108409845E+01 -0.34541421420E+02 -0.55416849228E+01  0.35190091997E+02  0.51100000000E-03 0.  1.
         12    1    3    3    0    0  0.61895854450E+01 -0.87724420466E+01  0.44216627169E+01  0.11611107123E+02  0.00000000000E+00 0. -1.
</event>
<event>
 7    1  0.2599124E-010  0.4778727E+02  0.7816164E-02  0.1312668E+00
        -11   -1    0    0    0    0  0.00000000000E+00  0.00000000000E+00  0.45593999997E+02  0.45594000000E+02  0.51100000000E-03 0. -1.
         11   -1    0    0    0    0 -0.00000000000E+00 -0.00000000000E+00 -0.45593999997E+02  0.45594000000E+02  0.51100000000E-03 0.  1.
    9900012    2    1    2    0    0  0.19806285761E+02 -0.28507056584E+02 -0.26051531959E+02  0.47787267885E+02  0.19999985594E+02 0.  0.
         12    1    1    2    0    0 -0.19806285761E+02  0.28507056584E+02  0.26051531959E+02  0.43400732115E+02  0.00000000000E+00 0. -1.
         11    1    3    3    0    0  0.12958573295E+02 -0.22612177719E+02 -0.17228002959E+02  0.31241627507E+02  0.51100000000E-03 0.  1.
        -11    1    3    3    0    0  0.71349058241E+00 -0.73750272422E+01 -0.63835251749E+01  0.97800557030E+01  0.51100000000E-03 0. -1.
         12    1    3    3    0    0  0.61342218831E+01  0.14801483774E+01 -0.24400038252E+01  0.67655846752E+01  0.00000000000E+00 0. -1.
</event>
<event>
 7    1  0.2599124E-010  0.4778729E+02  0.7816164E-02  0.1312668E+00
        -11   -1    0    0    0    0  0.00000000000E+00  0.00000000000E+00  0.45593999997E+02  0.45594000000E+02  0.51100000000E-03 0.  1.
         11   -1    0    0    0    0 -0.00000000000E+00 -0.00000000000E+00 -0.45593999997E+02  0.45594000000E+02  0.51100000000E-03 0. -1.
    9900012    2    1    2    0    0  0.23166200420E+02 -0.30202553271E+02  0.20850777790E+02  0.47787285715E+02  0.20000066891E+02 0.  0.
         12    1    1    2    0    0 -0.23166200420E+02  0.30202553271E+02 -0.20850777790E+02  0.43400714285E+02  0.00000000000E+00 0. -1.
         11    1    3    3    0    0 -0.11090908007E+00  0.13927870335E+01  0.12170846180E+01  0.18529575745E+01  0.51100000000E-03 0. -1.
        -11    1    3    3    0    0  0.65149704566E+01 -0.14648421407E+02  0.14357446539E+02  0.21521091077E+02  0.51100000000E-03 0.  1.
        -12    1    3    3    0    0  0.16762139043E+02 -0.16946918897E+02  0.52762466333E+01  0.24413237064E+02  0.00000000000E+00 0.  1.
</event>
<event>
 7    1  0.2599124E-010  0.4778728E+02  0.7816164E-02  0.1312668E+00
        -11   -1    0    0    0    0  0.00000000000E+00  0.00000000000E+00  0.45593999997E+02  0.45594000000E+02  0.51100000000E-03 0.  1.
         11   -1    0    0    0    0 -0.00000000000E+00 -0.00000000000E+00 -0.45593999997E+02  0.45594000000E+02  0.51100000000E-03 0. -1.
    9900012    2    1    2    0    0  0.13177815318E+02  0.30176017411E+02  0.28273225440E+02  0.47787284336E+02  0.20000060603E+02 0.  0.
         12    1    1    2    0    0 -0.13177815318E+02 -0.30176017411E+02 -0.28273225440E+02  0.43400715664E+02  0.00000000000E+00 0. -1.
         11    1    3    3    0    0  0.34265717782E+01  0.20404207767E+01  0.17846598429E+01  0.43691786543E+01  0.51100000000E-03 0. -1.
        -11    1    3    3    0    0 -0.41308468809E+01  0.12507648920E+02  0.13203602032E+02  0.18650476786E+02  0.51100000000E-03 0.  1.
        -12    1    3    3    0    0  0.13882090420E+02  0.15627947714E+02  0.13284963565E+02  0.24767628896E+02  0.00000000000E+00 0.  1.
</event>
<event>
 7    1  0.2599124E-010  0.4778727E+02  0.7816164E-02  0.1312668E+00
        -11   -1    0    0    0    0  0.00000000000E+00  0.00000000000E+00  0.45593999997E+02  0.45594000000E+02  0.51100000000E-03 0.  1.
         11   -1    0    0    0    0 -0.00000000000E+00 -0.00000000000E+00 -0.45593999997E+02  0.45594000000E+02  0.51100000000E-03 0. -1.
    9900012    2    1    2    0    0 -0.93923317803E+01 -0.42296459049E+02  0.25331518130E+01  0.47787271867E+02  0.20000003751E+02 0.  0.
         12    1    1    2    0    0  0.93923317803E+01  0.42296459049E+02 -0.25331518130E+01  0.43400728133E+02  0.00000000000E+00 0. -1.
         11    1    3    3    0    0 -0.55503018203E+00 -0.39161873370E+01 -0.13515459135E+01  0.41798634402E+01  0.51100000000E-03 0. -1.
        -11    1    3    3    0    0 -0.77518139245E+01 -0.25713746035E+02  0.11019042617E+02  0.29029410168E+02  0.51100000000E-03 0.  1.
        -12    1    3    3    0    0 -0.10854876738E+01 -0.12666525677E+02 -0.71343448903E+01  0.14577998259E+02  0.00000000000E+00 0.  1.
</event>
<event>
 7    1  0.2599124E-010  0.4778727E+02  0.7816164E-02  0.1312668E+00
        -11   -1    0    0    0    0  0.00000000000E+00  0.00000000000E+00  0.45593999997E+02  0.45594000000E+02  0.51100000000E-03 0. -1.
         11   -1    0    0    0    0 -0.00000000000E+00 -0.00000000000E+00 -0.45593999997E+02  0.45594000000E+02  0.51100000000E-03 0.  1.
    9900012    2    1    2    0    0  0.11807224881E+02 -0.29190036741E+02  0.29868955852E+02  0.47787270420E+02  0.19999997155E+02 0.  0.
         12    1    1    2    0    0 -0.11807224881E+02  0.29190036741E+02 -0.29868955852E+02  0.43400729580E+02  0.00000000000E+00 0. -1.
         11    1    3    3    0    0  0.10749190809E+01 -0.17247383072E+01  0.72109592608E+01  0.74918693916E+01  0.51100000000E-03 0. -1.
        -11    1    3    3    0    0  0.14647790036E+02 -0.19217111955E+02  0.17175503609E+02  0.29645456133E+02  0.51100000000E-03 0.  1.
        -12    1    3    3    0    0 -0.39154842360E+01 -0.82481864782E+01  0.54824929828E+01  0.10649944896E+02  0.00000000000E+00 0.  1.
</event>
<event>
 7    1  0.2599124E-010  0.4778727E+02  0.7816164E-02  0.1312668E+00
        -11   -1    0    0    0    0  0.00000000000E+00  0.00000000000E+00  0.45593999997E+02  0.45594000000E+02  0.51100000000E-03 0.  1.
         11   -1    0    0    0    0 -0.00000000000E+00 -0.00000000000E+00 -0.45593999997E+02  0.45594000000E+02  0.51100000000E-03 0. -1.
    9900012    2    1    2    0    0 -0.12873464482E+02  0.27985488280E+02  0.30573016294E+02  0.47787274576E+02  0.20000016103E+02 0.  0.
         12    1    1    2    0    0  0.12873464482E+02 -0.27985488280E+02 -0.30573016294E+02  0.43400725424E+02  0.00000000000E+00 0. -1.
         11    1    3    3    0    0  0.19832658543E+01  0.62798070322E+01  0.82800937638E+01  0.10579663171E+02  0.51100000000E-03 0.  1.
        -11    1    3    3    0    0  0.16413850040E+01  0.42252373971E+01  0.81315575611E+01  0.93096189194E+01  0.51100000000E-03 0. -1.
        -12    1    3    3    0    0 -0.16498115340E+02  0.17480443851E+02  0.14161364969E+02  0.27897992486E+02  0.00000000000E+00 0.  1.
</event>
<event>
 7    1  0.2599124E-010  0.4778727E+02  0.7816164E-02  0.1312668E+00
        -11   -1    0    0    0    0  0.00000000000E+00  0.00000000000E+00  0.45593999997E+02  0.45594000000E+02  0.51100000000E-03 0. -1.
         11   -1    0    0    0    0 -0.00000000000E+00 -0.00000000000E+00 -0.45593999997E+02  0.45594000000E+02  0.51100000000E-03 0.  1.
    9900012    2    1    2    0    0  0.24358902207E+01  0.41990526928E+02 -0.10699776235E+02  0.47787272767E+02  0.20000007854E+02 0.  0.
         12    1    1    2    0    0 -0.24358902207E+01 -0.41990526928E+02  0.10699776235E+02  0.43400727233E+02  0.00000000000E+00 0. -1.
         11    1    3    3    0    0  0.32871647129E+01  0.61058618576E+01  0.27241235107E+01  0.74503590542E+01  0.51100000000E-03 0. -1.
        -11    1    3    3    0    0  0.25994244018E+00  0.17048467530E+02  0.22000698262E+00  0.17051868476E+02  0.51100000000E-03 0.  1.
        -12    1    3    3    0    0 -0.11112169324E+01  0.18836197541E+02 -0.13643906729E+02  0.23285045237E+02  0.00000000000E+00 0.  1.
</event>
<event>
 7    1  0.2599124E-010  0.4778727E+02  0.7816164E-02  0.1312668E+00
        -11   -1    0    0    0    0  0.00000000000E+00  0.00000000000E+00  0.45593999997E+02  0.45594000000E+02  0.51100000000E-03 0. -1.
         11   -1    0    0    0    0 -0.00000000000E+00 -0.00000000000E+00 -0.45593999997E+02  0.45594000000E+02  0.51100000000E-03 0.  1.
    9900012    2    1    2    0    0 -0.12956952309E+02 -0.41679177370E+01 -0.41211275286E+02  0.47787270028E+02  0.19999995367E+02 0.  0.
         12    1    1    2    0    0  0.12956952309E+02  0.41679177370E+01  0.41211275286E+02  0.43400729972E+02  0.00000000000E+00 0. -1.
         11    1    3    3    0    0  0.31200332514E+01  0.23341707646E+00 -0.54388557138E+01  0.62745711214E+01  0.51100000000E-03 0. -1.
        -11    1    3    3    0    0 -0.11450889029E+02 -0.13512079628E+01 -0.33664178619E+02  0.35584063074E+02  0.51100000000E-03 0.  1.
         12    1    3    3    0    0 -0.46260965316E+01 -0.30501268506E+01 -0.21082409532E+01  0.59286358331E+01  0.00000000000E+00 0. -1.
</event>
<event>
 7    1  0.2599124E-010  0.4778727E+02  0.7816164E-02  0.1312668E+00
        -11   -1    0    0    0    0  0.00000000000E+00  0.00000000000E+00  0.45593999997E+02  0.45594000000E+02  0.51100000000E-03 0.  1.
         11   -1    0    0    0    0 -0.00000000000E+00 -0.00000000000E+00 -0.45593999997E+02  0.45594000000E+02  0.51100000000E-03 0. -1.
    9900012    2    1    2    0    0 -0.85478725897E+01 -0.29078208906E+02  0.31064687727E+02  0.47787272096E+02  0.20000004796E+02 0.  0.
         12    1    1    2    0    0  0.85478725897E+01  0.29078208906E+02 -0.31064687727E+02  0.43400727904E+02  0.00000000000E+00 0. -1.
         11    1    3    3    0    0  0.80847446500E+00 -0.12025350204E+01 -0.12958273815E+01  0.19439368044E+01  0.51100000000E-03 0. -1.
        -11    1    3    3    0    0 -0.83820468435E+01 -0.12042728141E+02  0.78311791334E+01  0.16631697966E+02  0.51100000000E-03 0.  1.
        -12    1    3    3    0    0 -0.97430021121E+00 -0.15832945744E+02  0.24529335976E+02  0.29211637326E+02  0.00000000000E+00 0.  1.
</event>
<event>
 7    1  0.2599124E-010  0.4778727E+02  0.7816164E-02  0.1312668E+00
        -11   -1    0    0    0    0  0.00000000000E+00  0.00000000000E+00  0.45593999997E+02  0.45594000000E+02  0.51100000000E-03 0.  1.
         11   -1    0    0    0    0 -0.00000000000E+00 -0.00000000000E+00 -0.45593999997E+02  0.45594000000E+02  0.51100000000E-03 0. -1.
    9900012    2    1    2    0    0 -0.37855313219E+02  0.76976720421E+01  0.19782427238E+02  0.47787270499E+02  0.19999997514E+02 0.  0.
         12    1    1    2    0    0  0.37855313219E+02 -0.76976720421E+01 -0.19782427238E+02  0.43400729501E+02  0.00000000000E+00 0. -1.
         11    1    3    3    0    0 -0.26840093730E+02  0.45156894879E+01  0.22332156073E+02  0.35206636847E+02  0.51100000000E-03 0.  1.
        -11    1    3    3    0    0 -0.60182935666E+01  0.38810537759E+01 -0.65519602627E+00  0.71910860070E+01  0.51100000000E-03 0. -1.
        -12    1    3    3    0    0 -0.49969259228E+01 -0.69907122167E+00 -0.18945328089E+01  0.53895476447E+01  0.00000000000E+00 0.  1.
</event>
<event>
 7    1  0.2599124E-010  0.4778727E+02  0.7816164E-02  0.1312668E+00
        -11   -1    0    0    0    0  0.00000000000E+00  0.00000000000E+00  0.45593999997E+02  0.45594000000E+02  0.51100000000E-03 0. -1.
         11   -1    0    0    0    0 -0.00000000000E+00 -0.00000000000E+00 -0.45593999997E+02  0.45594000000E+02  0.51100000000E-03 0.  1.
    9900012    2    1    2    0    0 -0.39913913843E+02 -0.32768280638E+00 -0.17040990137E+02  0.47787271445E+02  0.20000001827E+02 0.  0.
         12    1    1    2    0    0  0.39913913843E+02  0.32768280638E+00  0.17040990137E+02  0.43400728555E+02  0.00000000000E+00 0. -1.
         11    1    3    3    0    0  0.62673014682E+00  0.16174388173E+01 -0.18851059133E+01  0.25617422919E+01  0.51100000000E-03 0. -1.
        -11    1    3    3    0    0 -0.37370469747E+01 -0.27924677263E+01  0.13856705998E+01  0.48665675138E+01  0.51100000000E-03 0.  1.
        -12    1    3    3    0    0 -0.36803597015E+02  0.84734610263E+00 -0.16541554823E+02  0.40358961639E+02  0.00000000000E+00 0.  1.
</event>
<event>
 7    1  0.2599124E-010  0.4778727E+02  0.7816164E-02  0.1312668E+00
        -11   -1    0    0    0    0  0.00000000000E+00  0.00000000000E+00  0.45593999997E+02  0.45594000000E+02  0.51100000000E-03 0.  1.
         11   -1    0    0    0    0 -0.00000000000E+00 -0.00000000000E+00 -0.45593999997E+02  0.45594000000E+02  0.51100000000E-03 0. -1.
    9900012    2    1    2    0    0  0.39089411045E+02  0.70034677983E+01  0.17509782395E+02  0.47787273087E+02  0.20000009312E+02 0.  0.
         12    1    1    2    0    0 -0.39089411045E+02 -0.70034677983E+01 -0.17509782395E+02  0.43400726913E+02  0.00000000000E+00 0. -1.
         11    1    3    3    0    0  0.81133581940E+01  0.94607943088E+01  0.70985765306E+01  0.14343047067E+02  0.51100000000E-03 0. -1.
        -11    1    3    3    0    0  0.18175519838E+02  0.18293685397E+01  0.65081660810E+01  0.19392068911E+02  0.51100000000E-03 0.  1.
         12    1    3    3    0    0  0.12800533013E+02 -0.42866950502E+01  0.39030397835E+01  0.14052157109E+02  0.00000000000E+00 0. -1.
</event>
<event>
 7    1  0.2599124E-010  0.4778728E+02  0.7816164E-02  0.1312668E+00
        -11   -1    0    0    0    0  0.00000000000E+00  0.00000000000E+00  0.45593999997E+02  0.45594000000E+02  0.51100000000E-03 0.  1.
         11   -1    0    0    0    0 -0.00000000000E+00 -0.00000000000E+00 -0.45593999997E+02  0.45594000000E+02  0.51100000000E-03 0. -1.
    9900012    2    1    2    0    0 -0.32366252141E+02 -0.27490846288E+02 -0.89611067890E+01  0.47787281778E+02  0.20000048939E+02 0.  0.
         12    1    1    2    0    0  0.32366252141E+02  0.27490846288E+02  0.89611067890E+01  0.43400718222E+02  0.00000000000E+00 0. -1.
         11    1    3    3    0    0 -0.10753081813E+02 -0.23496309273E+01  0.85424693491E+00  0.11039894567E+02  0.51100000000E-03 0. -1.
        -11    1    3    3    0    0  0.16363169749E+01 -0.13516940443E+01 -0.93069799538E+00  0.23175006044E+01  0.51100000000E-03 0.  1.
        -12    1    3    3    0    0 -0.23249487304E+02 -0.23789521316E+02 -0.88846557285E+01  0.34429886607E+02  0.00000000000E+00 0.  1.
</event>
<event>
 7    1  0.2599124E-010  0.4778727E+02  0.7816164E-02  0.1312668E+00
        -11   -1    0    0    0    0  0.00000000000E+00  0.00000000000E+00  0.45593999997E+02  0.45594000000E+02  0.51100000000E-03 0.  1.
         11   -1    0    0    0    0 -0.00000000000E+00 -0.00000000000E+00 -0.45593999997E+02  0.45594000000E+02  0.51100000000E-03 0. -1.
    9900012    2    1    2    0    0  0.25521361986E+01 -0.90201412726E+00  0.43316233214E+02  0.47787273180E+02  0.20000009736E+02 0.  0.
         12    1    1    2    0    0 -0.25521361986E+01  0.90201412726E+00 -0.43316233214E+02  0.43400726820E+02  0.00000000000E+00 0. -1.
         11    1    3    3    0    0 -0.42368152263E+01 -0.26989184848E+01  0.24949510671E+01  0.56088809346E+01  0.51100000000E-03 0. -1.
        -11    1    3    3    0    0  0.29292580066E+01  0.32185449230E+01  0.80595911608E+01  0.91595083837E+01  0.51100000000E-03 0.  1.
         12    1    3    3    0    0  0.38596934183E+01 -0.14216405654E+01  0.32761690986E+02  0.33018883861E+02  0.00000000000E+00 0. -1.
</event>
<event>
 7    1  0.2599124E-010  0.4778728E+02  0.7816164E-02  0.1312668E+00
        -11   -1    0    0    0    0  0.00000000000E+00  0.00000000000E+00  0.45593999997E+02  0.45594000000E+02  0.51100000000E-03 0. -1.
         11   -1    0    0    0    0 -0.00000000000E+00 -0.00000000000E+00 -0.45593999997E+02  0.45594000000E+02  0.51100000000E-03 0.  1.
    9900012    2    1    2    0    0 -0.77370117864E+01  0.42256680025E+02  0.61753046733E+01  0.47787277127E+02  0.20000027733E+02 0.  0.
         12    1    1    2    0    0  0.77370117864E+01 -0.42256680025E+02 -0.61753046733E+01  0.43400722873E+02  0.00000000000E+00 0. -1.
         11    1    3    3    0    0 -0.10465674846E+02  0.14296257613E+02  0.68054315838E+01  0.18979653079E+02  0.51100000000E-03 0. -1.
        -11    1    3    3    0    0  0.12516538316E+01  0.23486717973E+01 -0.16529953765E+01  0.31329364024E+01  0.51100000000E-03 0.  1.
         12    1    3    3    0    0  0.14770092277E+01  0.25611750614E+02  0.10228684660E+01  0.25674687645E+02  0.00000000000E+00 0. -1.
</event>
<event>
 7    1  0.2599124E-010  0.4778727E+02  0.7816164E-02  0.1312668E+00
        -11   -1    0    0    0    0  0.00000000000E+00  0.00000000000E+00  0.45593999997E+02  0.45594000000E+02  0.51100000000E-03 0.  1.
         11   -1    0    0    0    0 -0.00000000000E+00 -0.00000000000E+00 -0.45593999997E+02  0.45594000000E+02  0.51100000000E-03 0. -1.
    9900012    2    1    2    0    0 -0.10999236192E+01  0.25144515641E+02  0.35357696181E+02  0.47787272149E+02  0.20000005037E+02 0.  0.
         12    1    1    2    0    0  0.10999236192E+01 -0.25144515641E+02 -0.35357696181E+02  0.43400727851E+02  0.00000000000E+00 0. -1.
         11    1    3    3    0    0 -0.10274723110E+01 -0.11255538559E+01  0.14924169727E+00  0.15312884045E+01  0.51100000000E-03 0. -1.
        -11    1    3    3    0    0 -0.55701313836E+01  0.35994138896E+01  0.88124455058E+01  0.11029113293E+02  0.51100000000E-03 0.  1.
        -12    1    3    3    0    0  0.54976800754E+01  0.22670655607E+02  0.26396008978E+02  0.35226870452E+02  0.00000000000E+00 0.  1.
</event>
<event>
 7    1  0.2599124E-010  0.4778727E+02  0.7816164E-02  0.1312668E+00
        -11   -1    0    0    0    0  0.00000000000E+00  0.00000000000E+00  0.45593999997E+02  0.45594000000E+02  0.51100000000E-03 0.  1.
         11   -1    0    0    0    0 -0.00000000000E+00 -0.00000000000E+00 -0.45593999997E+02  0.45594000000E+02  0.51100000000E-03 0. -1.
    9900012    2    1    2    0    0  0.36840561076E+02  0.27078115043E+01  0.22782978410E+02  0.47787270873E+02  0.19999999218E+02 0.  0.
         12    1    1    2    0    0 -0.36840561076E+02 -0.27078115043E+01 -0.22782978410E+02  0.43400729127E+02  0.00000000000E+00 0. -1.
         11    1    3    3    0    0  0.84594754363E+01 -0.20059238934E+01  0.12883027627E+02  0.15542163827E+02  0.51100000000E-03 0. -1.
        -11    1    3    3    0    0  0.60638852366E+01  0.33723058157E+01  0.67260197423E+01  0.96634617251E+01  0.51100000000E-03 0.  1.
        -12    1    3    3    0    0  0.22317200403E+02  0.13414295820E+01  0.31739310408E+01  0.22581645321E+02  0.00000000000E+00 0.  1.
</event>
<event>
 7    1  0.2599124E-010  0.4778727E+02  0.7816164E-02  0.1312668E+00
        -11   -1    0    0    0    0  0.00000000000E+00  0.00000000000E+00  0.45593999997E+02  0.45594000000E+02  0.51100000000E-03 0.  1.
         11   -1    0    0    0    0 -0.00000000000E+00 -0.00000000000E+00 -0.45593999997E+02  0.45594000000E+02  0.51100000000E-03 0. -1.
    9900012    2    1    2    0    0  0.21148417016E+02  0.25762788746E+02  0.27796522596E+02  0.47787268501E+02  0.19999988401E+02 0.  0.
         12    1    1    2    0    0 -0.21148417016E+02 -0.25762788746E+02 -0.27796522596E+02  0.43400731499E+02  0.00000000000E+00 0. -1.
         11    1    3    3    0    0  0.28049834977E+01  0.11309487390E+02  0.11079532722E+02  0.16078820947E+02  0.51100000000E-03 0.  1.
        -11    1    3    3    0    0  0.34568105774E+01  0.10941040256E+02  0.53984818792E+01  0.12680674592E+02  0.51100000000E-03 0. -1.
         12    1    3    3    0    0  0.14886622941E+02  0.35122610993E+01  0.11318507995E+02  0.19027772961E+02  0.00000000000E+00 0. -1.
</event>
<event>
 7    1  0.2599124E-010  0.4778727E+02  0.7816164E-02  0.1312668E+00
        -11   -1    0    0    0    0  0.00000000000E+00  0.00000000000E+00  0.45593999997E+02  0.45594000000E+02  0.51100000000E-03 0.  1.
         11   -1    0    0    0    0 -0.00000000000E+00 -0.00000000000E+00 -0.45593999997E+02  0.45594000000E+02  0.51100000000E-03 0. -1.
    9900012    2    1    2    0    0 -0.30399811942E+02  0.61149794643E+00  0.30969352694E+02  0.47787270719E+02  0.19999998516E+02 0.  0.
         12    1    1    2    0    0  0.30399811942E+02 -0.61149794643E+00 -0.30969352694E+02  0.43400729281E+02  0.00000000000E+00 0. -1.
         11    1    3    3    0    0  0.12958228125E+01 -0.17099173203E+01  0.27626648553E+01  0.34978981357E+01  0.51100000000E-03 0. -1.
        -11    1    3    3    0    0 -0.13981945100E+02  0.79935283943E+00  0.20695779210E+02  0.24988978193E+02  0.51100000000E-03 0.  1.
        -12    1    3    3    0    0 -0.17713689654E+02  0.15220624273E+01  0.75109086287E+01  0.19300394391E+02  0.00000000000E+00 0.  1.
</event>
<event>
 7    1  0.2599124E-010  0.4778727E+02  0.7816164E-02  0.1312668E+00
        -11   -1    0    0    0    0  0.00000000000E+00  0.00000000000E+00  0.45593999997E+02  0.45594000000E+02  0.51100000000E-03 0.  1.
         11   -1    0    0    0    0 -0.00000000000E+00 -0.00000000000E+00 -0.45593999997E+02  0.45594000000E+02  0.51100000000E-03 0. -1.
    9900012    2    1    2    0    0  0.41111699491E+02 -0.75686580831E+01  0.11669051211E+02  0.47787272168E+02  0.20000005123E+02 0.  0.
         12    1    1    2    0    0 -0.41111699491E+02  0.75686580831E+01 -0.11669051211E+02  0.43400727832E+02  0.00000000000E+00 0. -1.
         11    1    3    3    0    0  0.24431630917E+01 -0.21577161789E+01  0.41665070402E+01  0.52900440621E+01  0.51100000000E-03 0. -1.
        -11    1    3    3    0    0  0.40534092356E+01 -0.19456300897E+01 -0.38336113347E+01  0.59086528925E+01  0.51100000000E-03 0.  1.
        -12    1    3    3    0    0  0.34615127163E+02 -0.34653118144E+01  0.11336155506E+02  0.36588575213E+02  0.00000000000E+00 0.  1.
</event>
<event>
 7    1  0.2599124E-010  0.4778727E+02  0.7816164E-02  0.1312668E+00
        -11   -1    0    0    0    0  0.00000000000E+00  0.00000000000E+00  0.45593999997E+02  0.45594000000E+02  0.51100000000E-03 0.  1.
         11   -1    0    0    0    0 -0.00000000000E+00 -0.00000000000E+00 -0.45593999997E+02  0.45594000000E+02  0.51100000000E-03 0. -1.
    9900012    2    1    2    0    0 -0.17965387922E+01 -0.32323461328E+02  0.28906569537E+02  0.47787268828E+02  0.19999989895E+02 0.  0.
         12    1    1    2    0    0  0.17965387922E+01  0.32323461328E+02 -0.28906569537E+02  0.43400731172E+02  0.00000000000E+00 0. -1.
         11    1    3    3    0    0  0.70853284539E+00  0.80462245407E+00  0.64318023594E+01  0.65205458313E+01  0.51100000000E-03 0. -1.
        -11    1    3    3    0    0  0.17409544557E+01 -0.73348727528E+01  0.93678278379E+01  0.12024453392E+02  0.51100000000E-03 0.  1.
        -12    1    3    3    0    0 -0.42460260933E+01 -0.25793211029E+02  0.13106939340E+02  0.29242269605E+02  0.00000000000E+00 0.  1.
</event>
<event>
 7    1  0.2599124E-010  0.4778727E+02  0.7816164E-02  0.1312668E+00
        -11   -1    0    0    0    0  0.00000000000E+00  0.00000000000E+00  0.45593999997E+02  0.45594000000E+02  0.51100000000E-03 0. -1.
         11   -1    0    0    0    0 -0.00000000000E+00 -0.00000000000E+00 -0.45593999997E+02  0.45594000000E+02  0.51100000000E-03 0.  1.
    9900012    2    1    2    0    0 -0.18721660291E+02 -0.26542810996E+02 -0.28785447682E+02  0.47787269847E+02  0.19999994540E+02 0.  0.
         12    1    1    2    0    0  0.18721660291E+02  0.26542810996E+02  0.28785447682E+02  0.43400730153E+02  0.00000000000E+00 0. -1.
         11    1    3    3    0    0 -0.13013916583E+01 -0.25372995104E+01  0.25304897027E+01  0.38124647474E+01  0.51100000000E-03 0. -1.
        -11    1    3    3    0    0  0.43302323576E+00 -0.42118221935E+00  0.30383795774E+00  0.67618144776E+00  0.51100000000E-03 0.  1.
        -12    1    3    3    0    0 -0.17853291868E+02 -0.23584329266E+02 -0.31619775342E+02  0.43298623652E+02  0.00000000000E+00 0.  1.
</event>
<event>
 7    1  0.2599124E-010  0.4778727E+02  0.7816164E-02  0.1312668E+00
        -11   -1    0    0    0    0  0.00000000000E+00  0.00000000000E+00  0.45593999997E+02  0.45594000000E+02  0.51100000000E-03 0. -1.
         11   -1    0    0    0    0 -0.00000000000E+00 -0.00000000000E+00 -0.45593999997E+02  0.45594000000E+02  0.51100000000E-03 0.  1.
    9900012    2    1    2    0    0  0.93768334275E+01 -0.39722034875E+02 -0.14760029834E+02  0.47787267974E+02  0.19999985999E+02 0.  0.
         12    1    1    2    0    0 -0.93768334275E+01  0.39722034875E+02  0.14760029834E+02  0.43400732026E+02  0.00000000000E+00 0. -1.
         11    1    3    3    0    0  0.64735923878E+01 -0.13215784998E+02 -0.12022622378E+02  0.19002837173E+02  0.51100000000E-03 0.  1.
        -11    1    3    3    0    0 -0.13488528501E+01 -0.34554080216E+00 -0.17842733458E+01  0.22632794991E+01  0.51100000000E-03 0. -1.
        -12    1    3    3    0    0  0.42520938897E+01 -0.26160709075E+02 -0.95313411044E+00  0.26521151302E+02  0.00000000000E+00 0.  1.
</event>
<event>
 7    1  0.2599124E-010  0.4778727E+02  0.7816164E-02  0.1312668E+00
        -11   -1    0    0    0    0  0.00000000000E+00  0.00000000000E+00  0.45593999997E+02  0.45594000000E+02  0.51100000000E-03 0.  1.
         11   -1    0    0    0    0 -0.00000000000E+00 -0.00000000000E+00 -0.45593999997E+02  0.45594000000E+02  0.51100000000E-03 0. -1.
    9900012    2    1    2    0    0  0.18056998222E+02 -0.18495373234E+02  0.34863873552E+02  0.47787266194E+02  0.19999977885E+02 0.  0.
         12    1    1    2    0    0 -0.18056998222E+02  0.18495373234E+02 -0.34863873552E+02  0.43400733806E+02  0.00000000000E+00 0. -1.
         11    1    3    3    0    0  0.40135251764E+01 -0.19301479804E+01  0.15766219662E+02  0.16383147996E+02  0.51100000000E-03 0. -1.
        -11    1    3    3    0    0 -0.79470585088E+00 -0.71363802646E+01  0.72504167301E+01  0.10204313975E+02  0.51100000000E-03 0.  1.
         12    1    3    3    0    0  0.14838178896E+02 -0.94288449893E+01  0.11847237160E+02  0.21199804223E+02  0.00000000000E+00 0. -1.
</event>
<event>
 7    1  0.2599124E-010  0.4778727E+02  0.7816164E-02  0.1312668E+00
        -11   -1    0    0    0    0  0.00000000000E+00  0.00000000000E+00  0.45593999997E+02  0.45594000000E+02  0.51100000000E-03 0.  1.
         11   -1    0    0    0    0 -0.00000000000E+00 -0.00000000000E+00 -0.45593999997E+02  0.45594000000E+02  0.51100000000E-03 0. -1.
    9900012    2    1    2    0    0  0.34463863852E+01 -0.13782808732E+02  0.41009510547E+02  0.47787270157E+02  0.19999995952E+02 0.  0.
         12    1    1    2    0    0 -0.34463863852E+01  0.13782808732E+02 -0.41009510547E+02  0.43400729843E+02  0.00000000000E+00 0. -1.
         11    1    3    3    0    0  0.98006951008E+01 -0.26706700128E+01  0.19191299610E+02  0.21713868466E+02  0.51100000000E-03 0. -1.
        -11    1    3    3    0    0 -0.21024442975E+01 -0.23712445002E+01  0.11367966870E+02  0.11801429724E+02  0.51100000000E-03 0.  1.
         12    1    3    3    0    0 -0.42518644181E+01 -0.87408942186E+01  0.10450244067E+02  0.14271971967E+02  0.00000000000E+00 0. -1.
</event>
<event>
 7    1  0.2599124E-010  0.4778727E+02  0.7816164E-02  0.1312668E+00
        -11   -1    0    0    0    0  0.00000000000E+00  0.00000000000E+00  0.45593999997E+02  0.45594000000E+02  0.51100000000E-03 0.  1.
         11   -1    0    0    0    0 -0.00000000000E+00 -0.00000000000E+00 -0.45593999997E+02  0.45594000000E+02  0.51100000000E-03 0. -1.
    9900012    2    1    2    0    0 -0.42000081646E+01  0.42629677896E+02  0.69780842949E+01  0.47787272281E+02  0.20000005639E+02 0.  0.
         12    1    1    2    0    0  0.42000081646E+01 -0.42629677896E+02 -0.69780842949E+01  0.43400727719E+02  0.00000000000E+00 0. -1.
         11    1    3    3    0    0 -0.17378341621E+01  0.92844225795E+01 -0.14275851149E+01  0.95529351370E+01  0.51100000000E-03 0. -1.
        -11    1    3    3    0    0 -0.19868422066E+01  0.26432533013E+02 -0.10307978116E+01  0.26527134935E+02  0.51100000000E-03 0.  1.
         12    1    3    3    0    0 -0.47533179583E+00  0.69127223030E+01  0.94364672214E+01  0.11707202210E+02  0.00000000000E+00 0. -1.
</event>
<event>
 7    1  0.2599124E-010  0.4778727E+02  0.7816164E-02  0.1312668E+00
        -11   -1    0    0    0    0  0.00000000000E+00  0.00000000000E+00  0.45593999997E+02  0.45594000000E+02  0.51100000000E-03 0.  1.
         11   -1    0    0    0    0 -0.00000000000E+00 -0.00000000000E+00 -0.45593999997E+02  0.45594000000E+02  0.51100000000E-03 0. -1.
    9900012    2    1    2    0    0 -0.25203975680E+02  0.30145727036E+02 -0.18428732357E+02  0.47787269305E+02  0.19999992067E+02 0.  0.
         12    1    1    2    0    0  0.25203975680E+02 -0.30145727036E+02  0.18428732357E+02  0.43400730695E+02  0.00000000000E+00 0. -1.
         11    1    3    3    0    0 -0.13800676753E+02  0.41577474422E+01 -0.11096433724E+02  0.18190007814E+02  0.51100000000E-03 0. -1.
        -11    1    3    3    0    0 -0.27703249934E+01  0.11063149897E+02 -0.22789133548E+01  0.11630194863E+02  0.51100000000E-03 0.  1.
        -12    1    3    3    0    0 -0.86329739342E+01  0.14924829696E+02 -0.50533852781E+01  0.17967066627E+02  0.00000000000E+00 0.  1.
</event>
<event>
 7    1  0.2599124E-010  0.4778727E+02  0.7816164E-02  0.1312668E+00
        -11   -1    0    0    0    0  0.00000000000E+00  0.00000000000E+00  0.45593999997E+02  0.45594000000E+02  0.51100000000E-03 0.  1.
         11   -1    0    0    0    0 -0.00000000000E+00 -0.00000000000E+00 -0.45593999997E+02  0.45594000000E+02  0.51100000000E-03 0. -1.
    9900012    2    1    2    0    0  0.32597271069E+02 -0.25485928481E+02  0.13096142194E+02  0.47787267609E+02  0.19999984338E+02 0.  0.
         12    1    1    2    0    0 -0.32597271069E+02  0.25485928481E+02 -0.13096142194E+02  0.43400732391E+02  0.00000000000E+00 0. -1.
         11    1    3    3    0    0  0.83346367860E+01 -0.77475691254E+01  0.12578195707E+01  0.11448716436E+02  0.51100000000E-03 0. -1.
        -11    1    3    3    0    0  0.13115732429E+02 -0.10526523738E+02 -0.22648954518E+01  0.16969380980E+02  0.51100000000E-03 0.  1.
         12    1    3    3    0    0  0.11146901854E+02 -0.72118356176E+01  0.14103218075E+02  0.19369170194E+02  0.00000000000E+00 0. -1.
</event>
<event>
 7    1  0.2599124E-010  0.4778727E+02  0.7816164E-02  0.1312668E+00
        -11   -1    0    0    0    0  0.00000000000E+00  0.00000000000E+00  0.45593999997E+02  0.45594000000E+02  0.51100000000E-03 0. -1.
         11   -1    0    0    0    0 -0.00000000000E+00 -0.00000000000E+00 -0.45593999997E+02  0.45594000000E+02  0.51100000000E-03 0.  1.
    9900012    2    1    2    0    0  0.30318042967E+02 -0.23785910920E+02 -0.19966721380E+02  0.47787271316E+02  0.20000001239E+02 0.  0.
         12    1    1    2    0    0 -0.30318042967E+02  0.23785910920E+02  0.19966721380E+02  0.43400728684E+02  0.00000000000E+00 0. -1.
         11    1    3    3    0    0  0.10057490038E+02 -0.48426937725E+01 -0.65480132761E+01  0.12941455365E+02  0.51100000000E-03 0. -1.
        -11    1    3    3    0    0  0.13162047343E+02 -0.20005001761E+02 -0.13835740344E+02  0.27656234321E+02  0.51100000000E-03 0.  1.
         12    1    3    3    0    0  0.70985055859E+01  0.10617846139E+01  0.41703224018E+00  0.71895816296E+01  0.00000000000E+00 0. -1.
</event>
<event>
 7    1  0.2599124E-010  0.4778727E+02  0.7816164E-02  0.1312668E+00
        -11   -1    0    0    0    0  0.00000000000E+00  0.00000000000E+00  0.45593999997E+02  0.45594000000E+02  0.51100000000E-03 0. -1.
         11   -1    0    0    0    0 -0.00000000000E+00 -0.00000000000E+00 -0.45593999997E+02  0.45594000000E+02  0.51100000000E-03 0.  1.
    9900012    2    1    2    0    0  0.34634705808E+02 -0.22156327356E+02  0.13898112752E+02  0.47787271592E+02  0.20000002495E+02 0.  0.
         12    1    1    2    0    0 -0.34634705808E+02  0.22156327356E+02 -0.13898112752E+02  0.43400728408E+02  0.00000000000E+00 0. -1.
         11    1    3    3    0    0  0.99860143415E+01 -0.84664598460E+01 -0.39166974420E+01  0.13665355607E+02  0.51100000000E-03 0. -1.
        -11    1    3    3    0    0  0.20516797086E+02 -0.10197257868E+02  0.10984026677E+02  0.25408106443E+02  0.51100000000E-03 0.  1.
         12    1    3    3    0    0  0.41318943800E+01 -0.34926096420E+01  0.68307835166E+01  0.87138095418E+01  0.00000000000E+00 0. -1.
</event>
<event>
 7    1  0.2599124E-010  0.4778726E+02  0.7816164E-02  0.1312668E+00
        -11   -1    0    0    0    0  0.00000000000E+00  0.00000000000E+00  0.45593999997E+02  0.45594000000E+02  0.51100000000E-03 0.  1.
         11   -1    0    0    0    0 -0.00000000000E+00 -0.00000000000E+00 -0.45593999997E+02  0.45594000000E+02  0.51100000000E-03 0. -1.
    9900012    2    1    2    0    0 -0.25897204639E+02  0.14732087491E+02  0.31558272989E+02  0.47787260329E+02  0.19999951143E+02 0.  0.
         12    1    1    2    0    0  0.25897204639E+02 -0.14732087491E+02 -0.31558272989E+02  0.43400739671E+02  0.00000000000E+00 0. -1.
         11    1    3    3    0    0 -0.12684823711E+02  0.21290900938E+01  0.61888397366E+01  0.14273735137E+02  0.51100000000E-03 0. -1.
        -11    1    3    3    0    0 -0.83336361207E+01 -0.13545152074E-01  0.87236391107E+01  0.12064474877E+02  0.51100000000E-03 0.  1.
        -12    1    3    3    0    0 -0.48787448066E+01  0.12616542549E+02  0.16645794142E+02  0.21449050315E+02  0.00000000000E+00 0.  1.
</event>
<event>
 7    1  0.2599124E-010  0.4778728E+02  0.7816164E-02  0.1312668E+00
        -11   -1    0    0    0    0  0.00000000000E+00  0.00000000000E+00  0.45593999997E+02  0.45594000000E+02  0.51100000000E-03 0. -1.
         11   -1    0    0    0    0 -0.00000000000E+00 -0.00000000000E+00 -0.45593999997E+02  0.45594000000E+02  0.51100000000E-03 0.  1.
    9900012    2    1    2    0    0 -0.26232329886E+01  0.42801528167E+02 -0.66910633025E+01  0.47787280042E+02  0.20000041024E+02 0.  0.
         12    1    1    2    0    0  0.26232329886E+01 -0.42801528167E+02  0.66910633025E+01  0.43400719958E+02  0.00000000000E+00 0. -1.
         11    1    3    3    0    0 -0.24047535383E+01  0.89960617121E+01  0.51724496251E+01  0.10652051506E+02  0.51100000000E-03 0.  1.
        -11    1    3    3    0    0  0.28061022143E+01  0.82997175582E+01  0.18949493231E+00  0.87633001645E+01  0.51100000000E-03 0. -1.
         12    1    3    3    0    0 -0.30245816647E+01  0.25505748897E+02 -0.12053007860E+02  0.28371928371E+02  0.00000000000E+00 0. -1.
</event>
<event>
 7    1  0.2599124E-010  0.4778727E+02  0.7816164E-02  0.1312668E+00
        -11   -1    0    0    0    0  0.00000000000E+00  0.00000000000E+00  0.45593999997E+02  0.45594000000E+02  0.51100000000E-03 0.  1.
         11   -1    0    0    0    0 -0.00000000000E+00 -0.00000000000E+00 -0.45593999997E+02  0.45594000000E+02  0.51100000000E-03 0. -1.
    9900012    2    1    2    0    0 -0.70399531130E+01  0.93676250500E+01  0.41788874244E+02  0.47787270173E+02  0.19999996028E+02 0.  0.
         12    1    1    2    0    0  0.70399531130E+01 -0.93676250500E+01 -0.41788874244E+02  0.43400729827E+02  0.00000000000E+00 0. -1.
         11    1    3    3    0    0  0.64380896771E+01  0.25039150537E+01  0.78014164102E+01  0.10420205735E+02  0.51100000000E-03 0. -1.
        -11    1    3    3    0    0 -0.28283999558E+01  0.31750104839E+01  0.88340539298E+01  0.98041341779E+01  0.51100000000E-03 0.  1.
        -12    1    3    3    0    0 -0.10649642834E+02  0.36886995124E+01  0.25153403904E+02  0.27562930261E+02  0.00000000000E+00 0.  1.
</event>
<event>
 7    1  0.2599124E-010  0.4778727E+02  0.7816164E-02  0.1312668E+00
        -11   -1    0    0    0    0  0.00000000000E+00  0.00000000000E+00  0.45593999997E+02  0.45594000000E+02  0.51100000000E-03 0.  1.
         11   -1    0    0    0    0 -0.00000000000E+00 -0.00000000000E+00 -0.45593999997E+02  0.45594000000E+02  0.51100000000E-03 0. -1.
    9900012    2    1    2    0    0 -0.11356857338E+02  0.19839105705E+01  0.41841477878E+02  0.47787269813E+02  0.19999994385E+02 0.  0.
         12    1    1    2    0    0  0.11356857338E+02 -0.19839105705E+01 -0.41841477878E+02  0.43400730187E+02  0.00000000000E+00 0. -1.
         11    1    3    3    0    0 -0.40410518789E+01  0.54059605657E+01  0.16258191287E+02  0.17603502325E+02  0.51100000000E-03 0.  1.
        -11    1    3    3    0    0 -0.70896853380E+01  0.50528580226E+00  0.25255151819E+02  0.26236265847E+02  0.51100000000E-03 0. -1.
         12    1    3    3    0    0 -0.22612012073E+00 -0.39273357975E+01  0.32813477209E+00  0.39475016408E+01  0.00000000000E+00 0. -1.
</event>
<event>
 7    1  0.2599124E-010  0.4778727E+02  0.7816164E-02  0.1312668E+00
        -11   -1    0    0    0    0  0.00000000000E+00  0.00000000000E+00  0.45593999997E+02  0.45594000000E+02  0.51100000000E-03 0.  1.
         11   -1    0    0    0    0 -0.00000000000E+00 -0.00000000000E+00 -0.45593999997E+02  0.45594000000E+02  0.51100000000E-03 0. -1.
    9900012    2    1    2    0    0  0.32221805648E+02 -0.26143616995E+02 -0.12723594420E+02  0.47787270469E+02  0.19999997378E+02 0.  0.
         12    1    1    2    0    0 -0.32221805648E+02  0.26143616995E+02  0.12723594420E+02  0.43400729531E+02  0.00000000000E+00 0. -1.
         11    1    3    3    0    0  0.19643241533E+02 -0.14084203080E+02 -0.13330552988E+02  0.27602995445E+02  0.51100000000E-03 0. -1.
        -11    1    3    3    0    0  0.11125571309E+02 -0.37641294432E+01  0.64746778284E-01  0.11745262867E+02  0.51100000000E-03 0.  1.
        -12    1    3    3    0    0  0.14529928069E+01 -0.82952844718E+01  0.54221178996E+00  0.84390121572E+01  0.00000000000E+00 0.  1.
</event>
<event>
 7    1  0.2599124E-010  0.4778727E+02  0.7816164E-02  0.1312668E+00
        -11   -1    0    0    0    0  0.00000000000E+00  0.00000000000E+00  0.45593999997E+02  0.45594000000E+02  0.51100000000E-03 0. -1.
         11   -1    0    0    0    0 -0.00000000000E+00 -0.00000000000E+00 -0.45593999997E+02  0.45594000000E+02  0.51100000000E-03 0.  1.
    9900012    2    1    2    0    0 -0.15576734929E+02  0.39861032007E+02 -0.72171217198E+01  0.47787269711E+02  0.19999993920E+02 0.  0.
         12    1    1    2    0    0  0.15576734929E+02 -0.39861032007E+02  0.72171217198E+01  0.43400730289E+02  0.00000000000E+00 0. -1.
         11    1    3    3    0    0  0.11196006697E+01  0.39607361992E+01 -0.22112603945E+01  0.46723238001E+01  0.51100000000E-03 0. -1.
        -11    1    3    3    0    0 -0.15949927868E+02  0.27587617451E+02 -0.99876646132E+01  0.33395063712E+02  0.51100000000E-03 0.  1.
        -12    1    3    3    0    0 -0.74640773011E+00  0.83126783569E+01  0.49818032879E+01  0.97198821991E+01  0.00000000000E+00 0.  1.
</event>
<event>
 7    1  0.2599124E-010  0.4778728E+02  0.7816164E-02  0.1312668E+00
        -11   -1    0    0    0    0  0.00000000000E+00  0.00000000000E+00  0.45593999997E+02  0.45594000000E+02  0.51100000000E-03 0.  1.
         11   -1    0    0    0    0 -0.00000000000E+00 -0.00000000000E+00 -0.45593999997E+02  0.45594000000E+02  0.51100000000E-03 0. -1.
    9900012    2    1    2    0    0  0.90590368284E+01  0.24547041412E+02  0.34626571244E+02  0.47787276199E+02  0.20000023501E+02 0.  0.
         12    1    1    2    0    0 -0.90590368284E+01 -0.24547041412E+02 -0.34626571244E+02  0.43400723801E+02  0.00000000000E+00 0. -1.
         11    1    3    3    0    0  0.14271226907E+01  0.14489516103E+02  0.20731289869E+02  0.25333162770E+02  0.51100000000E-03 0. -1.
        -11    1    3    3    0    0  0.76115230069E+00  0.15857377165E+01  0.11039485134E+02  0.11178736477E+02  0.51100000000E-03 0.  1.
         12    1    3    3    0    0  0.68707618370E+01  0.84717875928E+01  0.28557962414E+01  0.11275376952E+02  0.00000000000E+00 0. -1.
</event>
<event>
 7    1  0.2599124E-010  0.4778727E+02  0.7816164E-02  0.1312668E+00
        -11   -1    0    0    0    0  0.00000000000E+00  0.00000000000E+00  0.45593999997E+02  0.45594000000E+02  0.51100000000E-03 0. -1.
         11   -1    0    0    0    0 -0.00000000000E+00 -0.00000000000E+00 -0.45593999997E+02  0.45594000000E+02  0.51100000000E-03 0.  1.
    9900012    2    1    2    0    0 -0.38572675699E+02  0.40591631469E+01 -0.19475503952E+02  0.47787269934E+02  0.19999994939E+02 0.  0.
         12    1    1    2    0    0  0.38572675699E+02 -0.40591631469E+01  0.19475503952E+02  0.43400730066E+02  0.00000000000E+00 0. -1.
         11    1    3    3    0    0 -0.60001506798E+01  0.18162477907E+01 -0.48335065490E-01  0.62692025616E+01  0.51100000000E-03 0. -1.
        -11    1    3    3    0    0 -0.20287305138E+02  0.91947386480E+01 -0.92598286965E+01  0.24121824067E+02  0.51100000000E-03 0.  1.
         12    1    3    3    0    0 -0.12285219881E+02 -0.69518232919E+01 -0.10167340190E+02  0.17396243305E+02  0.00000000000E+00 0. -1.
</event>
<event>
 7    1  0.2599124E-010  0.4778727E+02  0.7816164E-02  0.1312668E+00
        -11   -1    0    0    0    0  0.00000000000E+00  0.00000000000E+00  0.45593999997E+02  0.45594000000E+02  0.51100000000E-03 0. -1.
         11   -1    0    0    0    0 -0.00000000000E+00 -0.00000000000E+00 -0.45593999997E+02  0.45594000000E+02  0.51100000000E-03 0.  1.
    9900012    2    1    2    0    0  0.36111707083E+02 -0.23700164221E+02 -0.42273201668E+01  0.47787269495E+02  0.19999992934E+02 0.  0.
         12    1    1    2    0    0 -0.36111707083E+02  0.23700164221E+02  0.42273201668E+01  0.43400730505E+02  0.00000000000E+00 0. -1.
         11    1    3    3    0    0  0.50099883748E+01 -0.59849919683E+01 -0.27001254362E+01  0.82589823833E+01  0.51100000000E-03 0. -1.
        -11    1    3    3    0    0  0.46615367040E+01  0.31926599918E+01  0.95066065178E+00  0.57294640414E+01  0.51100000000E-03 0.  1.
        -12    1    3    3    0    0  0.26440182005E+02 -0.20907832245E+02 -0.24778553824E+01  0.33798823070E+02  0.00000000000E+00 0.  1.
</event>
<event>
 7    1  0.2599124E-010  0.4778727E+02  0.7816164E-02  0.1312668E+00
        -11   -1    0    0    0    0  0.00000000000E+00  0.00000000000E+00  0.45593999997E+02  0.45594000000E+02  0.51100000000E-03 0.  1.
         11   -1    0    0    0    0 -0.00000000000E+00 -0.00000000000E+00 -0.45593999997E+02  0.45594000000E+02  0.51100000000E-03 0. -1.
    9900012    2    1    2    0    0  0.16808801158E+02  0.33881205763E+02  0.21287346207E+02  0.47787274097E+02  0.20000013919E+02 0.  0.
         12    1    1    2    0    0 -0.16808801158E+02 -0.33881205763E+02 -0.21287346207E+02  0.43400725903E+02  0.00000000000E+00 0. -1.
         11    1    3    3    0    0  0.93340917858E+01  0.18229004713E+02  0.36699360104E+01  0.20806016267E+02  0.51100000000E-03 0. -1.
        -11    1    3    3    0    0  0.32433531532E+01  0.12804355318E+02  0.64398415054E+01  0.14694979199E+02  0.51100000000E-03 0.  1.
         12    1    3    3    0    0  0.42313562195E+01  0.28478457320E+01  0.11177568691E+02  0.12286278631E+02  0.00000000000E+00 0. -1.
</event>
<event>
 7    1  0.2599124E-010  0.4778726E+02  0.7816164E-02  0.1312668E+00
        -11   -1    0    0    0    0  0.00000000000E+00  0.00000000000E+00  0.45593999997E+02  0.45594000000E+02  0.51100000000E-03 0.  1.
         11   -1    0    0    0    0 -0.00000000000E+00 -0.00000000000E+00 -0.45593999997E+02  0.45594000000E+02  0.51100000000E-03 0. -1.
    9900012    2    1    2    0    0 -0.24611234940E+02  0.10396801309E+02  0.34202594231E+02  0.47787264811E+02  0.19999971581E+02 0.  0.
         12    1    1    2    0    0  0.24611234940E+02 -0.10396801309E+02 -0.34202594231E+02  0.43400735189E+02  0.00000000000E+00 0. -1.
         11    1    3    3    0    0 -0.82027908735E-01  0.62666222888E+00  0.51239657769E+01  0.51627957224E+01  0.51100000000E-03 0.  1.
        -11    1    3    3    0    0 -0.20417141509E+01  0.36045633803E+00  0.13581087643E+02  0.13738430306E+02  0.51100000000E-03 0. -1.
         12    1    3    3    0    0 -0.22487492881E+02  0.94096827417E+01  0.15497540811E+02  0.28886038783E+02  0.00000000000E+00 0. -1.
</event>
<event>
 7    1  0.2599124E-010  0.4778727E+02  0.7816164E-02  0.1312668E+00
        -11   -1    0    0    0    0  0.00000000000E+00  0.00000000000E+00  0.45593999997E+02  0.45594000000E+02  0.51100000000E-03 0.  1.
         11   -1    0    0    0    0 -0.00000000000E+00 -0.00000000000E+00 -0.45593999997E+02  0.45594000000E+02  0.51100000000E-03 0. -1.
    9900012    2    1    2    0    0  0.80027251279E+01 -0.41748705460E+02  0.87535852684E+01  0.47787271065E+02  0.20000000094E+02 0.  0.
         12    1    1    2    0    0 -0.80027251279E+01  0.41748705460E+02 -0.87535852684E+01  0.43400728935E+02  0.00000000000E+00 0. -1.
         11    1    3    3    0    0  0.55367600430E+01 -0.22615653946E+02  0.13227617852E+02  0.26778599468E+02  0.51100000000E-03 0. -1.
        -11    1    3    3    0    0  0.29845035904E+01 -0.75890017327E+01  0.10111605483E+01  0.82172169800E+01  0.51100000000E-03 0.  1.
         12    1    3    3    0    0 -0.51853850544E+00 -0.11544049781E+02 -0.54851931316E+01  0.12791454617E+02  0.00000000000E+00 0. -1.
</event>
<event>
 7    1  0.2599124E-010  0.4778727E+02  0.7816164E-02  0.1312668E+00
        -11   -1    0    0    0    0  0.00000000000E+00  0.00000000000E+00  0.45593999997E+02  0.45594000000E+02  0.51100000000E-03 0.  1.
         11   -1    0    0    0    0 -0.00000000000E+00 -0.00000000000E+00 -0.45593999997E+02  0.45594000000E+02  0.51100000000E-03 0. -1.
    9900012    2    1    2    0    0  0.42160209120E+02  0.89613489657E+01 -0.50827296771E+01  0.47787272479E+02  0.20000006543E+02 0.  0.
         12    1    1    2    0    0 -0.42160209120E+02 -0.89613489657E+01  0.50827296771E+01  0.43400727521E+02  0.00000000000E+00 0. -1.
         11    1    3    3    0    0  0.12418429490E+02  0.92814780262E+01 -0.23308886593E+01  0.15677891043E+02  0.51100000000E-03 0. -1.
        -11    1    3    3    0    0  0.12959140805E+02  0.18870164175E+00 -0.70826040840E+01  0.14769503024E+02  0.51100000000E-03 0.  1.
         12    1    3    3    0    0  0.16782638825E+02 -0.50883070225E+00  0.43307630662E+01  0.17339878413E+02  0.00000000000E+00 0. -1.
</event>
<event>
 7    1  0.2599124E-010  0.4778727E+02  0.7816164E-02  0.1312668E+00
        -11   -1    0    0    0    0  0.00000000000E+00  0.00000000000E+00  0.45593999997E+02  0.45594000000E+02  0.51100000000E-03 0.  1.
         11   -1    0    0    0    0 -0.00000000000E+00 -0.00000000000E+00 -0.45593999997E+02  0.45594000000E+02  0.51100000000E-03 0. -1.
    9900012    2    1    2    0    0  0.36743301577E+02 -0.29349789463E+01  0.22911546801E+02  0.47787270870E+02  0.19999999206E+02 0.  0.
         12    1    1    2    0    0 -0.36743301577E+02  0.29349789463E+01 -0.22911546801E+02  0.43400729130E+02  0.00000000000E+00 0. -1.
         11    1    3    3    0    0  0.17790659536E+02 -0.55904805308E+01  0.31593538940E+01  0.18914083552E+02  0.51100000000E-03 0.  1.
        -11    1    3    3    0    0 -0.33920589678E+00 -0.61190290749E+00 -0.38241909633E+00  0.79732705646E+00  0.51100000000E-03 0. -1.
        -12    1    3    3    0    0  0.19291847937E+02  0.32674044920E+01  0.20134612003E+02  0.28075860262E+02  0.00000000000E+00 0.  1.
</event>
<event>
 7    1  0.2599124E-010  0.4778727E+02  0.7816164E-02  0.1312668E+00
        -11   -1    0    0    0    0  0.00000000000E+00  0.00000000000E+00  0.45593999997E+02  0.45594000000E+02  0.51100000000E-03 0.  1.
         11   -1    0    0    0    0 -0.00000000000E+00 -0.00000000000E+00 -0.45593999997E+02  0.45594000000E+02  0.51100000000E-03 0. -1.
    9900012    2    1    2    0    0 -0.15052123129E+02  0.38733092750E+02  0.12522160591E+02  0.47787269701E+02  0.19999993873E+02 0.  0.
         12    1    1    2    0    0  0.15052123129E+02 -0.38733092750E+02 -0.12522160591E+02  0.43400730299E+02  0.00000000000E+00 0. -1.
         11    1    3    3    0    0 -0.11614747072E+02  0.19990647577E+02  0.97773309259E+01  0.25102281577E+02  0.51100000000E-03 0. -1.
        -11    1    3    3    0    0 -0.67241438906E+01  0.11182263472E+02 -0.19577055107E+01  0.13194307050E+02  0.51100000000E-03 0.  1.
         12    1    3    3    0    0  0.32867678336E+01  0.75601817013E+01  0.47025351758E+01  0.94906810729E+01  0.00000000000E+00 0. -1.
</event>
<event>
 7    1  0.2599124E-010  0.4778727E+02  0.7816164E-02  0.1312668E+00
        -11   -1    0    0    0    0  0.00000000000E+00  0.00000000000E+00  0.45593999997E+02  0.45594000000E+02  0.51100000000E-03 0.  1.
         11   -1    0    0    0    0 -0.00000000000E+00 -0.00000000000E+00 -0.45593999997E+02  0.45594000000E+02  0.51100000000E-03 0. -1.
    9900012    2    1    2    0    0 -0.41793986682E+02  0.14765439128E+00  0.11698896484E+02  0.47787270703E+02  0.19999998441E+02 0.  0.
         12    1    1    2    0    0  0.41793986682E+02 -0.14765439128E+00 -0.11698896484E+02  0.43400729297E+02  0.00000000000E+00 0. -1.
         11    1    3    3    0    0 -0.29427153080E+02 -0.29110190991E+01  0.59866535165E+01  0.30170704188E+02  0.51100000000E-03 0. -1.
        -11    1    3    3    0    0 -0.12610320024E+02  0.41332081055E+01  0.77009748256E+01  0.15343030792E+02  0.51100000000E-03 0.  1.
        -12    1    3    3    0    0  0.24348642245E+00 -0.10745346151E+01 -0.19887318586E+01  0.22735357226E+01  0.00000000000E+00 0.  1.
</event>
<event>
 7    1  0.2599124E-010  0.4778725E+02  0.7816164E-02  0.1312668E+00
        -11   -1    0    0    0    0  0.00000000000E+00  0.00000000000E+00  0.45593999997E+02  0.45594000000E+02  0.51100000000E-03 0.  1.
         11   -1    0    0    0    0 -0.00000000000E+00 -0.00000000000E+00 -0.45593999997E+02  0.45594000000E+02  0.51100000000E-03 0. -1.
    9900012    2    1    2    0    0 -0.15451359363E+02 -0.11240692598E+02  0.38968282390E+02  0.47787254515E+02  0.19999924635E+02 0.  0.
         12    1    1    2    0    0  0.15451359363E+02  0.11240692598E+02 -0.38968282390E+02  0.43400745485E+02  0.00000000000E+00 0. -1.
         11    1    3    3    0    0  0.10763934701E+01 -0.26730583300E+01 -0.13793065263E+00  0.28849417436E+01  0.51100000000E-03 0. -1.
        -11    1    3    3    0    0 -0.22559168921E+00 -0.11020922253E+01  0.14030909395E+02  0.14075933987E+02  0.51100000000E-03 0.  1.
         12    1    3    3    0    0 -0.16302161144E+02 -0.74655420430E+01  0.25075303647E+02  0.30826378785E+02  0.00000000000E+00 0. -1.
</event>
<event>
 7    1  0.2599124E-010  0.4778727E+02  0.7816164E-02  0.1312668E+00
        -11   -1    0    0    0    0  0.00000000000E+00  0.00000000000E+00  0.45593999997E+02  0.45594000000E+02  0.51100000000E-03 0.  1.
         11   -1    0    0    0    0 -0.00000000000E+00 -0.00000000000E+00 -0.45593999997E+02  0.45594000000E+02  0.51100000000E-03 0. -1.
    9900012    2    1    2    0    0 -0.16511479123E+02 -0.19111350238E+02  0.35295191984E+02  0.47787271573E+02  0.20000002410E+02 0.  0.
         12    1    1    2    0    0  0.16511479123E+02  0.19111350238E+02 -0.35295191984E+02  0.43400728427E+02  0.00000000000E+00 0. -1.
         11    1    3    3    0    0 -0.10594806141E+02 -0.98309131290E+01  0.45836419987E+01  0.15162669433E+02  0.51100000000E-03 0. -1.
        -11    1    3    3    0    0 -0.11074702323E+01 -0.16829594895E+01  0.58091180372E+01  0.61485523166E+01  0.51100000000E-03 0.  1.
         12    1    3    3    0    0 -0.48092027502E+01 -0.75974776200E+01  0.24902431949E+02  0.26476049823E+02  0.00000000000E+00 0. -1.
</event>
<event>
 7    1  0.2599124E-010  0.4778727E+02  0.7816164E-02  0.1312668E+00
        -11   -1    0    0    0    0  0.00000000000E+00  0.00000000000E+00  0.45593999997E+02  0.45594000000E+02  0.51100000000E-03 0.  1.
         11   -1    0    0    0    0 -0.00000000000E+00 -0.00000000000E+00 -0.45593999997E+02  0.45594000000E+02  0.51100000000E-03 0. -1.
    9900012    2    1    2    0    0 -0.20149043808E+02 -0.33469812058E+02 -0.18905327864E+02  0.47787266052E+02  0.19999977238E+02 0.  0.
         12    1    1    2    0    0  0.20149043808E+02  0.33469812058E+02  0.18905327864E+02  0.43400733948E+02  0.00000000000E+00 0. -1.
         11    1    3    3    0    0 -0.11284773524E+02 -0.44509211166E+01 -0.68014385386E+01  0.13907421714E+02  0.51100000000E-03 0. -1.
        -11    1    3    3    0    0 -0.58817839886E+01 -0.66069514481E+01 -0.17720107841E+01  0.90214861750E+01  0.51100000000E-03 0.  1.
        -12    1    3    3    0    0 -0.29824862946E+01 -0.22411939494E+02 -0.10331878541E+02  0.24858358163E+02  0.00000000000E+00 0.  1.
</event>
<event>
 7    1  0.2599124E-010  0.4778727E+02  0.7816164E-02  0.1312668E+00
        -11   -1    0    0    0    0  0.00000000000E+00  0.00000000000E+00  0.45593999997E+02  0.45594000000E+02  0.51100000000E-03 0.  1.
         11   -1    0    0    0    0 -0.00000000000E+00 -0.00000000000E+00 -0.45593999997E+02  0.45594000000E+02  0.51100000000E-03 0. -1.
    9900012    2    1    2    0    0 -0.55014966008E+01  0.42981389876E+02  0.24406506414E+01  0.47787272863E+02  0.20000008290E+02 0.  0.
         12    1    1    2    0    0  0.55014966008E+01 -0.42981389876E+02 -0.24406506414E+01  0.43400727137E+02  0.00000000000E+00 0. -1.
         11    1    3    3    0    0  0.37083888021E+01  0.10140666874E+02  0.14894951049E+01  0.10899718716E+02  0.51100000000E-03 0. -1.
        -11    1    3    3    0    0 -0.11805477025E+01  0.21628994735E+02  0.55317681791E+01  0.22356376396E+02  0.51100000000E-03 0.  1.
         12    1    3    3    0    0 -0.80293377003E+01  0.11211728266E+02 -0.45806126425E+01  0.14531177750E+02  0.00000000000E+00 0. -1.
</event>
<event>
 7    1  0.2599124E-010  0.4778729E+02  0.7816164E-02  0.1312668E+00
        -11   -1    0    0    0    0  0.00000000000E+00  0.00000000000E+00  0.45593999997E+02  0.45594000000E+02  0.51100000000E-03 0.  1.
         11   -1    0    0    0    0 -0.00000000000E+00 -0.00000000000E+00 -0.45593999997E+02  0.45594000000E+02  0.51100000000E-03 0. -1.
    9900012    2    1    2    0    0 -0.30104061887E+02  0.12847997387E+02  0.28500801408E+02  0.47787294247E+02  0.20000105791E+02 0.  0.
         12    1    1    2    0    0  0.30104061887E+02 -0.12847997387E+02 -0.28500801408E+02  0.43400705753E+02  0.00000000000E+00 0. -1.
         11    1    3    3    0    0 -0.42837811935E+01 -0.21916408537E+01 -0.25200901755E+00  0.48184623845E+01  0.51100000000E-03 0. -1.
        -11    1    3    3    0    0 -0.12280721402E+02  0.18677386809E+01  0.15645252323E+02  0.19976948877E+02  0.51100000000E-03 0.  1.
         12    1    3    3    0    0 -0.13539559292E+02  0.13171899560E+02  0.13107558103E+02  0.22991882986E+02  0.00000000000E+00 0. -1.
</event>
<event>
 7    1  0.2599124E-010  0.4778726E+02  0.7816164E-02  0.1312668E+00
        -11   -1    0    0    0    0  0.00000000000E+00  0.00000000000E+00  0.45593999997E+02  0.45594000000E+02  0.51100000000E-03 0.  1.
         11   -1    0    0    0    0 -0.00000000000E+00 -0.00000000000E+00 -0.45593999997E+02  0.45594000000E+02  0.51100000000E-03 0. -1.
    9900012    2    1    2    0    0 -0.24053961961E+02  0.24896682267E+02  0.26176062444E+02  0.47787261308E+02  0.19999955609E+02 0.  0.
         12    1    1    2    0    0  0.24053961961E+02 -0.24896682267E+02 -0.26176062444E+02  0.43400738692E+02  0.00000000000E+00 0. -1.
         11    1    3    3    0    0 -0.52111798443E+01  0.10355295182E+02  0.14026802636E+02  0.18197245015E+02  0.51100000000E-03 0.  1.
        -11    1    3    3    0    0 -0.12283468763E+02  0.15898262321E+02  0.10597505571E+02  0.22714433171E+02  0.51100000000E-03 0. -1.
         12    1    3    3    0    0 -0.65593133531E+01 -0.13568752359E+01  0.15517542374E+01  0.68755831231E+01  0.00000000000E+00 0. -1.
</event>
<event>
 7    1  0.2599124E-010  0.4778727E+02  0.7816164E-02  0.1312668E+00
        -11   -1    0    0    0    0  0.00000000000E+00  0.00000000000E+00  0.45593999997E+02  0.45594000000E+02  0.51100000000E-03 0.  1.
         11   -1    0    0    0    0 -0.00000000000E+00 -0.00000000000E+00 -0.45593999997E+02  0.45594000000E+02  0.51100000000E-03 0. -1.
    9900012    2    1    2    0    0 -0.10131539599E+02 -0.18810952191E+02  0.37777283709E+02  0.47787272110E+02  0.20000004858E+02 0.  0.
         12    1    1    2    0    0  0.10131539599E+02  0.18810952191E+02 -0.37777283709E+02  0.43400727890E+02  0.00000000000E+00 0. -1.
         11    1    3    3    0    0 -0.10532725116E+01 -0.19085117250E+00  0.80837794730E+01  0.81543422778E+01  0.51100000000E-03 0. -1.
        -11    1    3    3    0    0 -0.28648504367E+01 -0.14395177893E+02  0.28455496463E+02  0.32017866790E+02  0.51100000000E-03 0.  1.
         12    1    3    3    0    0 -0.62134166505E+01 -0.42249231248E+01  0.12380077732E+01  0.76150630418E+01  0.00000000000E+00 0. -1.
</event>
<event>
 7    1  0.2599124E-010  0.4778727E+02  0.7816164E-02  0.1312668E+00
        -11   -1    0    0    0    0  0.00000000000E+00  0.00000000000E+00  0.45593999997E+02  0.45594000000E+02  0.51100000000E-03 0.  1.
         11   -1    0    0    0    0 -0.00000000000E+00 -0.00000000000E+00 -0.45593999997E+02  0.45594000000E+02  0.51100000000E-03 0. -1.
    9900012    2    1    2    0    0 -0.21526361373E+02 -0.24964706156E+02  0.28231229116E+02  0.47787273223E+02  0.20000009932E+02 0.  0.
         12    1    1    2    0    0  0.21526361373E+02  0.24964706156E+02 -0.28231229116E+02  0.43400726777E+02  0.00000000000E+00 0. -1.
         11    1    3    3    0    0 -0.47180748134E+01 -0.45034362139E+01  0.11723666171E+02  0.13415868084E+02  0.51100000000E-03 0.  1.
        -11    1    3    3    0    0 -0.83866046570E+00  0.22377182589E+01  0.14686605917E+01  0.28049418136E+01  0.51100000000E-03 0. -1.
        -12    1    3    3    0    0 -0.15969626094E+02 -0.22698988201E+02  0.15038902353E+02  0.31566463326E+02  0.00000000000E+00 0.  1.
</event>
<event>
 7    1  0.2599124E-010  0.4778727E+02  0.7816164E-02  0.1312668E+00
        -11   -1    0    0    0    0  0.00000000000E+00  0.00000000000E+00  0.45593999997E+02  0.45594000000E+02  0.51100000000E-03 0.  1.
         11   -1    0    0    0    0 -0.00000000000E+00 -0.00000000000E+00 -0.45593999997E+02  0.45594000000E+02  0.51100000000E-03 0. -1.
    9900012    2    1    2    0    0  0.16820326621E+02 -0.66138288085E+01  0.39458299045E+02  0.47787268639E+02  0.19999989031E+02 0.  0.
         12    1    1    2    0    0 -0.16820326621E+02  0.66138288085E+01 -0.39458299045E+02  0.43400731361E+02  0.00000000000E+00 0. -1.
         11    1    3    3    0    0  0.14609229349E+01 -0.26686715481E+00  0.12183999142E+01  0.19209405280E+01  0.51100000000E-03 0. -1.
        -11    1    3    3    0    0  0.16765164709E+02 -0.10347335921E+02  0.24229236601E+02  0.31228096563E+02  0.51100000000E-03 0.  1.
        -12    1    3    3    0    0 -0.14057610231E+01  0.40003742671E+01  0.14010662530E+02  0.14638231548E+02  0.00000000000E+00 0.  1.
</event>
<event>
 7    1  0.2599124E-010  0.4778728E+02  0.7816164E-02  0.1312668E+00
        -11   -1    0    0    0    0  0.00000000000E+00  0.00000000000E+00  0.45593999997E+02  0.45594000000E+02  0.51100000000E-03 0.  1.
         11   -1    0    0    0    0 -0.00000000000E+00 -0.00000000000E+00 -0.45593999997E+02  0.45594000000E+02  0.51100000000E-03 0. -1.
    9900012    2    1    2    0    0 -0.24217828600E+02  0.20479734976E+02  0.29625996587E+02  0.47787280644E+02  0.20000043770E+02 0.  0.
         12    1    1    2    0    0  0.24217828600E+02 -0.20479734976E+02 -0.29625996587E+02  0.43400719356E+02  0.00000000000E+00 0. -1.
         11    1    3    3    0    0 -0.29236151579E+01 -0.55351040520E+00  0.88816465315E+01  0.93668321610E+01  0.51100000000E-03 0.  1.
        -11    1    3    3    0    0 -0.41547003374E+01 -0.82224641400E+00  0.47734254394E+01  0.63814743395E+01  0.51100000000E-03 0. -1.
         12    1    3    3    0    0 -0.17139513105E+02  0.21855491796E+02  0.15970924616E+02  0.32038974144E+02  0.00000000000E+00 0. -1.
</event>
<event>
 7    1  0.2599124E-010  0.4778728E+02  0.7816164E-02  0.1312668E+00
        -11   -1    0    0    0    0  0.00000000000E+00  0.00000000000E+00  0.45593999997E+02  0.45594000000E+02  0.51100000000E-03 0. -1.
         11   -1    0    0    0    0 -0.00000000000E+00 -0.00000000000E+00 -0.45593999997E+02  0.45594000000E+02  0.51100000000E-03 0.  1.
    9900012    2    1    2    0    0  0.35593203472E+02  0.18656410649E+02 -0.16391592766E+02  0.47787284510E+02  0.20000061393E+02 0.  0.
         12    1    1    2    0    0 -0.35593203472E+02 -0.18656410649E+02  0.16391592766E+02  0.43400715490E+02  0.00000000000E+00 0. -1.
         11    1    3    3    0    0 -0.80778199870E+00  0.13437577471E+01 -0.32578713017E+01  0.36155113497E+01  0.51100000000E-03 0. -1.
        -11    1    3    3    0    0  0.24908992315E+02  0.56740929276E+01 -0.55496882790E+01  0.26142920054E+02  0.51100000000E-03 0.  1.
         12    1    3    3    0    0  0.11491993155E+02  0.11638559974E+02 -0.75840331856E+01  0.18028853106E+02  0.00000000000E+00 0. -1.
</event>
<event>
 7    1  0.2599124E-010  0.4778727E+02  0.7816164E-02  0.1312668E+00
        -11   -1    0    0    0    0  0.00000000000E+00  0.00000000000E+00  0.45593999997E+02  0.45594000000E+02  0.51100000000E-03 0. -1.
         11   -1    0    0    0    0 -0.00000000000E+00 -0.00000000000E+00 -0.45593999997E+02  0.45594000000E+02  0.51100000000E-03 0.  1.
    9900012    2    1    2    0    0  0.11113831607E+01  0.36869319162E+02  0.22870094647E+02  0.47787273080E+02  0.20000009281E+02 0.  0.
         12    1    1    2    0    0 -0.11113831607E+01 -0.36869319162E+02 -0.22870094647E+02  0.43400726920E+02  0.00000000000E+00 0. -1.
         11    1    3    3    0    0  0.46742097780E+01  0.96797814126E+01  0.63225734914E+01  0.12470819583E+02  0.51100000000E-03 0. -1.
        -11    1    3    3    0    0  0.10754145916E+01  0.12074065217E+02  0.15209094682E+02  0.19448807899E+02  0.51100000000E-03 0.  1.
         12    1    3    3    0    0 -0.46382412090E+01  0.15115472533E+02  0.13384264738E+01  0.15867645598E+02  0.00000000000E+00 0. -1.
</event>
<event>
 7    1  0.2599124E-010  0.4778728E+02  0.7816164E-02  0.1312668E+00
        -11   -1    0    0    0    0  0.00000000000E+00  0.00000000000E+00  0.45593999997E+02  0.45594000000E+02  0.51100000000E-03 0.  1.
         11   -1    0    0    0    0 -0.00000000000E+00 -0.00000000000E+00 -0.45593999997E+02  0.45594000000E+02  0.51100000000E-03 0. -1.
    9900012    2    1    2    0    0  0.35031501516E+02  0.11621503238E+02  0.22833251688E+02  0.47787276290E+02  0.20000023915E+02 0.  0.
         12    1    1    2    0    0 -0.35031501516E+02 -0.11621503238E+02 -0.22833251688E+02  0.43400723710E+02  0.00000000000E+00 0. -1.
         11    1    3    3    0    0  0.15309220928E+02  0.17954216942E+01  0.89755422799E+01  0.17836932022E+02  0.51100000000E-03 0. -1.
        -11    1    3    3    0    0  0.50669040906E+01 -0.38994772154E+01  0.23803839255E+01  0.68224385311E+01  0.51100000000E-03 0.  1.
         12    1    3    3    0    0  0.14655376497E+02  0.13725558759E+02  0.11477325482E+02  0.23127905736E+02  0.00000000000E+00 0. -1.
</event>
<event>
 7    1  0.2599124E-010  0.4778727E+02  0.7816164E-02  0.1312668E+00
        -11   -1    0    0    0    0  0.00000000000E+00  0.00000000000E+00  0.45593999997E+02  0.45594000000E+02  0.51100000000E-03 0.  1.
         11   -1    0    0    0    0 -0.00000000000E+00 -0.00000000000E+00 -0.45593999997E+02  0.45594000000E+02  0.51100000000E-03 0. -1.
    9900012    2    1    2    0    0 -0.27995914832E+02  0.13168427506E+02  0.30437555429E+02  0.47787268315E+02  0.19999987557E+02 0.  0.
         12    1    1    2    0    0  0.27995914832E+02 -0.13168427506E+02 -0.30437555429E+02  0.43400731685E+02  0.00000000000E+00 0. -1.
         11    1    3    3    0    0 -0.31381628051E+01 -0.65007284788E+00  0.79707329513E+01  0.85908814764E+01  0.51100000000E-03 0. -1.
        -11    1    3    3    0    0 -0.55656163468E+01  0.96554014607E-01 -0.12290524981E+01  0.57005243883E+01  0.51100000000E-03 0.  1.
        -12    1    3    3    0    0 -0.19292135680E+02  0.13721946339E+02  0.23695874976E+02  0.33495862451E+02  0.00000000000E+00 0.  1.
</event>
<event>
 7    1  0.2599124E-010  0.4778727E+02  0.7816164E-02  0.1312668E+00
        -11   -1    0    0    0    0  0.00000000000E+00  0.00000000000E+00  0.45593999997E+02  0.45594000000E+02  0.51100000000E-03 0.  1.
         11   -1    0    0    0    0 -0.00000000000E+00 -0.00000000000E+00 -0.45593999997E+02  0.45594000000E+02  0.51100000000E-03 0. -1.
    9900012    2    1    2    0    0 -0.16793138985E+02  0.17982235198E+02  0.35752662443E+02  0.47787272224E+02  0.20000005379E+02 0.  0.
         12    1    1    2    0    0  0.16793138985E+02 -0.17982235198E+02 -0.35752662443E+02  0.43400727776E+02  0.00000000000E+00 0. -1.
         11    1    3    3    0    0 -0.19978314945E+02  0.15328488787E+02  0.35408498651E+02  0.43449481165E+02  0.51100000000E-03 0.  1.
        -11    1    3    3    0    0  0.16231775155E+01  0.68675607342E+00 -0.18092135191E+00  0.17717426303E+01  0.51100000000E-03 0. -1.
        -12    1    3    3    0    0  0.15619984448E+01  0.19669903376E+01  0.52508514396E+00  0.25660484286E+01  0.00000000000E+00 0.  1.
</event>
<event>
 7    1  0.2599124E-010  0.4778727E+02  0.7816164E-02  0.1312668E+00
        -11   -1    0    0    0    0  0.00000000000E+00  0.00000000000E+00  0.45593999997E+02  0.45594000000E+02  0.51100000000E-03 0.  1.
         11   -1    0    0    0    0 -0.00000000000E+00 -0.00000000000E+00 -0.45593999997E+02  0.45594000000E+02  0.51100000000E-03 0. -1.
    9900012    2    1    2    0    0 -0.10579067564E+02  0.19288257011E+02  0.37412161482E+02  0.47787270100E+02  0.19999995695E+02 0.  0.
         12    1    1    2    0    0  0.10579067564E+02 -0.19288257011E+02 -0.37412161482E+02  0.43400729900E+02  0.00000000000E+00 0. -1.
         11    1    3    3    0    0  0.44544145855E+01  0.48958403920E+01  0.48315150502E+01  0.81947910520E+01  0.51100000000E-03 0. -1.
        -11    1    3    3    0    0 -0.32030134282E+01  0.45717925112E+01  0.16160610756E+02  0.17097541404E+02  0.51100000000E-03 0.  1.
         12    1    3    3    0    0 -0.11830468721E+02  0.98206241083E+01  0.16420035676E+02  0.22494937645E+02  0.00000000000E+00 0. -1.
</event>
<event>
 7    1  0.2599124E-010  0.4778727E+02  0.7816164E-02  0.1312668E+00
        -11   -1    0    0    0    0  0.00000000000E+00  0.00000000000E+00  0.45593999997E+02  0.45594000000E+02  0.51100000000E-03 0.  1.
         11   -1    0    0    0    0 -0.00000000000E+00 -0.00000000000E+00 -0.45593999997E+02  0.45594000000E+02  0.51100000000E-03 0. -1.
    9900012    2    1    2    0    0 -0.32051655157E+02  0.14877723589E+01  0.29225014660E+02  0.47787267900E+02  0.19999985663E+02 0.  0.
         12    1    1    2    0    0  0.32051655157E+02 -0.14877723589E+01 -0.29225014660E+02  0.43400732100E+02  0.00000000000E+00 0. -1.
         11    1    3    3    0    0 -0.41188460296E+01 -0.20767941319E+01 -0.11979648141E+01  0.47658248435E+01  0.51100000000E-03 0. -1.
        -11    1    3    3    0    0 -0.10741755763E+02  0.17710214818E+01  0.43155007082E+01  0.11710908615E+02  0.51100000000E-03 0.  1.
        -12    1    3    3    0    0 -0.17191053365E+02  0.17935450091E+01  0.26107478766E+02  0.31310534442E+02  0.00000000000E+00 0.  1.
</event>
<event>
 7    1  0.2599124E-010  0.4778727E+02  0.7816164E-02  0.1312668E+00
        -11   -1    0    0    0    0  0.00000000000E+00  0.00000000000E+00  0.45593999997E+02  0.45594000000E+02  0.51100000000E-03 0. -1.
         11   -1    0    0    0    0 -0.00000000000E+00 -0.00000000000E+00 -0.45593999997E+02  0.45594000000E+02  0.51100000000E-03 0.  1.
    9900012    2    1    2    0    0  0.38856494626E+02  0.19102025313E+02 -0.29847531321E+01  0.47787270779E+02  0.19999998788E+02 0.  0.
         12    1    1    2    0    0 -0.38856494626E+02 -0.19102025313E+02  0.29847531321E+01  0.43400729221E+02  0.00000000000E+00 0. -1.
         11    1    3    3    0    0  0.33285924647E+00 -0.26187221527E+01  0.50132388543E+00  0.26869735560E+01  0.51100000000E-03 0. -1.
        -11    1    3    3    0    0  0.63670839282E+01  0.54433877108E+00 -0.13932046671E+01  0.65404190960E+01  0.51100000000E-03 0.  1.
        -12    1    3    3    0    0  0.32156551451E+02  0.21176408695E+02 -0.20928723504E+01  0.38559878127E+02  0.00000000000E+00 0.  1.
</event>
<event>
 7    1  0.2599124E-010  0.4778727E+02  0.7816164E-02  0.1312668E+00
        -11   -1    0    0    0    0  0.00000000000E+00  0.00000000000E+00  0.45593999997E+02  0.45594000000E+02  0.51100000000E-03 0.  1.
         11   -1    0    0    0    0 -0.00000000000E+00 -0.00000000000E+00 -0.45593999997E+02  0.45594000000E+02  0.51100000000E-03 0. -1.
    9900012    2    1    2    0    0  0.49580503816E+01  0.33922643246E+02  0.26613817256E+02  0.47787271236E+02  0.20000000872E+02 0.  0.
         12    1    1    2    0    0 -0.49580503816E+01 -0.33922643246E+02 -0.26613817256E+02  0.43400728764E+02  0.00000000000E+00 0. -1.
         11    1    3    3    0    0 -0.75168333042E+00  0.12821653079E+02  0.13145475608E+02  0.18378339009E+02  0.51100000000E-03 0. -1.
        -11    1    3    3    0    0 -0.97919962964E+00  0.17493452286E+02  0.12958208576E+02  0.21792082842E+02  0.51100000000E-03 0.  1.
        -12    1    3    3    0    0  0.66889333416E+01  0.36075378805E+01  0.51013307160E+00  0.76168493853E+01  0.00000000000E+00 0.  1.
</event>
<event>
 7    1  0.2599124E-010  0.4778728E+02  0.7816164E-02  0.1312668E+00
        -11   -1    0    0    0    0  0.00000000000E+00  0.00000000000E+00  0.45593999997E+02  0.45594000000E+02  0.51100000000E-03 0.  1.
         11   -1    0    0    0    0 -0.00000000000E+00 -0.00000000000E+00 -0.45593999997E+02  0.45594000000E+02  0.51100000000E-03 0. -1.
    9900012    2    1    2    0    0 -0.35126206071E+01  0.26128331266E+02  0.34476001790E+02  0.47787275378E+02  0.20000019759E+02 0.  0.
         12    1    1    2    0    0  0.35126206071E+01 -0.26128331266E+02 -0.34476001790E+02  0.43400724622E+02  0.00000000000E+00 0. -1.
         11    1    3    3    0    0 -0.57760886171E+01  0.82667150829E+01  0.11454719018E+02  0.15261466706E+02  0.51100000000E-03 0. -1.
        -11    1    3    3    0    0 -0.40335809786E+01  0.18481013969E+01  0.10022678974E+02  0.10960809659E+02  0.51100000000E-03 0.  1.
        -12    1    3    3    0    0  0.62970489887E+01  0.16013514786E+02  0.12998603798E+02  0.21564999013E+02  0.00000000000E+00 0.  1.
</event>
<event>
 7    1  0.2599124E-010  0.4778732E+02  0.7816164E-02  0.1312668E+00
        -11   -1    0    0    0    0  0.00000000000E+00  0.00000000000E+00  0.45593999997E+02  0.45594000000E+02  0.51100000000E-03 0. -1.
         11   -1    0    0    0    0 -0.00000000000E+00 -0.00000000000E+00 -0.45593999997E+02  0.45594000000E+02  0.51100000000E-03 0.  1.
    9900012    2    1    2    0    0  0.41164834594E+02 -0.11639530731E+02 -0.73209763140E+01  0.47787320547E+02  0.20000225702E+02 0.  0.
         12    1    1    2    0    0 -0.41164834594E+02  0.11639530731E+02  0.73209763140E+01  0.43400679453E+02  0.00000000000E+00 0. -1.
         11    1    3    3    0    0  0.91083852169E+01  0.16429177595E+01  0.19933036345E+01  0.94675825670E+01  0.51100000000E-03 0. -1.
        -11    1    3    3    0    0  0.41666702971E+01  0.25062257703E+01  0.26633024652E+00  0.48696243220E+01  0.51100000000E-03 0.  1.
        -12    1    3    3    0    0  0.27889779080E+02 -0.15788674261E+02 -0.95806101950E+01  0.33450113658E+02  0.00000000000E+00 0.  1.
</event>
<event>
 7    1  0.2599124E-010  0.4778727E+02  0.7816164E-02  0.1312668E+00
        -11   -1    0    0    0    0  0.00000000000E+00  0.00000000000E+00  0.45593999997E+02  0.45594000000E+02  0.51100000000E-03 0.  1.
         11   -1    0    0    0    0 -0.00000000000E+00 -0.00000000000E+00 -0.45593999997E+02  0.45594000000E+02  0.51100000000E-03 0. -1.
    9900012    2    1    2    0    0  0.20555894277E+02  0.26335548741E+02  0.27704102296E+02  0.47787271883E+02  0.20000003824E+02 0.  0.
         12    1    1    2    0    0 -0.20555894277E+02 -0.26335548741E+02 -0.27704102296E+02  0.43400728117E+02  0.00000000000E+00 0. -1.
         11    1    3    3    0    0  0.55075542950E+01  0.13621012177E+02  0.13451921488E+02  0.19920324270E+02  0.51100000000E-03 0. -1.
        -11    1    3    3    0    0  0.94352694608E+01  0.10143052075E+02  0.16272679501E+02  0.21370678828E+02  0.51100000000E-03 0.  1.
         12    1    3    3    0    0  0.56130705214E+01  0.25714844897E+01 -0.20204986928E+01  0.64962687850E+01  0.00000000000E+00 0. -1.
</event>
<event>
 7    1  0.2599124E-010  0.4778727E+02  0.7816164E-02  0.1312668E+00
        -11   -1    0    0    0    0  0.00000000000E+00  0.00000000000E+00  0.45593999997E+02  0.45594000000E+02  0.51100000000E-03 0.  1.
         11   -1    0    0    0    0 -0.00000000000E+00 -0.00000000000E+00 -0.45593999997E+02  0.45594000000E+02  0.51100000000E-03 0. -1.
    9900012    2    1    2    0    0  0.32808644135E+02 -0.28219353408E+02  0.32991189407E+01  0.47787271636E+02  0.20000002697E+02 0.  0.
         12    1    1    2    0    0 -0.32808644135E+02  0.28219353408E+02 -0.32991189407E+01  0.43400728364E+02  0.00000000000E+00 0. -1.
         11    1    3    3    0    0  0.19540770369E+02 -0.83859475799E+01 -0.23540513623E+00  0.21265494098E+02  0.51100000000E-03 0. -1.
        -11    1    3    3    0    0  0.81934117517E+01 -0.74566856383E+01 -0.32193759515E+01  0.11536833995E+02  0.51100000000E-03 0.  1.
         12    1    3    3    0    0  0.50744620152E+01 -0.12376720189E+02  0.67539000284E+01  0.14984943543E+02  0.00000000000E+00 0. -1.
</event>
<event>
 7    1  0.2741400E-010  0.4778730E+02  0.7816164E-02  0.1312668E+00
        -11   -1    0    0    0    0  0.00000000000E+00  0.00000000000E+00  0.45593999997E+02  0.45594000000E+02  0.51100000000E-03 0.  1.
         11   -1    0    0    0    0 -0.00000000000E+00 -0.00000000000E+00 -0.45593999997E+02  0.45594000000E+02  0.51100000000E-03 0. -1.
    9900012    2    1    2    0    0  0.38996447965E+02 -0.12798146620E+02  0.14110468926E+02  0.47787299037E+02  0.20000127629E+02 0.  0.
         12    1    1    2    0    0 -0.38996447965E+02  0.12798146620E+02 -0.14110468926E+02  0.43400700963E+02  0.00000000000E+00 0. -1.
         11    1    3    3    0    0  0.42465251433E+00  0.85317315805E+00  0.32146904234E+01  0.33529791194E+01  0.51100000000E-03 0. -1.
        -11    1    3    3    0    0  0.96968704748E+01 -0.97356974796E+01  0.15243623322E+01  0.13825222718E+02  0.51100000000E-03 0.  1.
        -12    1    3    3    0    0  0.28874924976E+02 -0.39156222981E+01  0.93714161703E+01  0.30609097200E+02  0.00000000000E+00 0.  1.
</event>
<event>
 7    1  0.2599124E-010  0.4778728E+02  0.7816164E-02  0.1312668E+00
        -11   -1    0    0    0    0  0.00000000000E+00  0.00000000000E+00  0.45593999997E+02  0.45594000000E+02  0.51100000000E-03 0. -1.
         11   -1    0    0    0    0 -0.00000000000E+00 -0.00000000000E+00 -0.45593999997E+02  0.45594000000E+02  0.51100000000E-03 0.  1.
    9900012    2    1    2    0    0  0.34751142077E+02  0.25330325855E+02 -0.58613558984E+01  0.47787276774E+02  0.20000026123E+02 0.  0.
         12    1    1    2    0    0 -0.34751142077E+02 -0.25330325855E+02  0.58613558984E+01  0.43400723226E+02  0.00000000000E+00 0. -1.
         11    1    3    3    0    0  0.90525890541E+01  0.74698379837E+01  0.27037175052E+01  0.12044000029E+02  0.51100000000E-03 0. -1.
        -11    1    3    3    0    0  0.14414314349E+02  0.15883183211E+02 -0.15795165556E-01  0.21448734620E+02  0.51100000000E-03 0.  1.
        -12    1    3    3    0    0  0.11284238674E+02  0.19773046602E+01 -0.85492782380E+01  0.14294542125E+02  0.00000000000E+00 0.  1.
</event>
<event>
 7    1  0.2599124E-010  0.4778731E+02  0.7816164E-02  0.1312668E+00
        -11   -1    0    0    0    0  0.00000000000E+00  0.00000000000E+00  0.45593999997E+02  0.45594000000E+02  0.51100000000E-03 0.  1.
         11   -1    0    0    0    0 -0.00000000000E+00 -0.00000000000E+00 -0.45593999997E+02  0.45594000000E+02  0.51100000000E-03 0. -1.
    9900012    2    1    2    0    0 -0.18450174320E+02 -0.13973517875E+02  0.36714467096E+02  0.47787306130E+02  0.20000159969E+02 0.  0.
         12    1    1    2    0    0  0.18450174320E+02  0.13973517875E+02 -0.36714467096E+02  0.43400693870E+02  0.00000000000E+00 0. -1.
         11    1    3    3    0    0 -0.18287809761E+02 -0.10645488826E+02  0.19206400612E+02  0.28577197955E+02  0.51100000000E-03 0. -1.
        -11    1    3    3    0    0  0.14523398245E+01 -0.37263078360E+01  0.42037827248E+01  0.58022797686E+01  0.51100000000E-03 0.  1.
         12    1    3    3    0    0 -0.16147043835E+01  0.39827878761E+00  0.13304283759E+02  0.13407828407E+02  0.00000000000E+00 0. -1.
</event>
<event>
 7    1  0.2599124E-010  0.4778727E+02  0.7816164E-02  0.1312668E+00
        -11   -1    0    0    0    0  0.00000000000E+00  0.00000000000E+00  0.45593999997E+02  0.45594000000E+02  0.51100000000E-03 0. -1.
         11   -1    0    0    0    0 -0.00000000000E+00 -0.00000000000E+00 -0.45593999997E+02  0.45594000000E+02  0.51100000000E-03 0.  1.
    9900012    2    1    2    0    0 -0.17693145251E+02  0.20537441901E+01 -0.39577238528E+02  0.47787273467E+02  0.20000011045E+02 0.  0.
         12    1    1    2    0    0  0.17693145251E+02 -0.20537441901E+01  0.39577238528E+02  0.43400726533E+02  0.00000000000E+00 0. -1.
         11    1    3    3    0    0  0.31887282075E+00  0.56517639552E+01 -0.10385109772E+02  0.11827705649E+02  0.51100000000E-03 0. -1.
        -11    1    3    3    0    0 -0.44912813600E+01  0.34036416051E+01 -0.61518406517E+01  0.83427530285E+01  0.51100000000E-03 0.  1.
         12    1    3    3    0    0 -0.13520736712E+02 -0.70016613702E+01 -0.23040288105E+02  0.27616814790E+02  0.00000000000E+00 0. -1.
</event>
<event>
 7    1  0.2599124E-010  0.4778727E+02  0.7816164E-02  0.1312668E+00
        -11   -1    0    0    0    0  0.00000000000E+00  0.00000000000E+00  0.45593999997E+02  0.45594000000E+02  0.51100000000E-03 0.  1.
         11   -1    0    0    0    0 -0.00000000000E+00 -0.00000000000E+00 -0.45593999997E+02  0.45594000000E+02  0.51100000000E-03 0. -1.
    9900012    2    1    2    0    0  0.86074998512E+01  0.41985601776E+02  0.68369181544E+01  0.47787271204E+02  0.20000000726E+02 0.  0.
         12    1    1    2    0    0 -0.86074998512E+01 -0.41985601776E+02 -0.68369181544E+01  0.43400728796E+02  0.00000000000E+00 0. -1.
         11    1    3    3    0    0 -0.83596422960E+00 -0.48397203197E+00 -0.59116579729E+00  0.11324938772E+01  0.51100000000E-03 0. -1.
        -11    1    3    3    0    0  0.16216905126E+00  0.32104529708E+02  0.42696933784E+01  0.32387611959E+02  0.51100000000E-03 0.  1.
         12    1    3    3    0    0  0.92812950295E+01  0.10365044100E+02  0.31583905733E+01  0.14267165368E+02  0.00000000000E+00 0. -1.
</event>
<event>
 7    1  0.2599124E-010  0.4778727E+02  0.7816164E-02  0.1312668E+00
        -11   -1    0    0    0    0  0.00000000000E+00  0.00000000000E+00  0.45593999997E+02  0.45594000000E+02  0.51100000000E-03 0. -1.
         11   -1    0    0    0    0 -0.00000000000E+00 -0.00000000000E+00 -0.45593999997E+02  0.45594000000E+02  0.51100000000E-03 0.  1.
    9900012    2    1    2    0    0 -0.23639831430E+02 -0.34165995697E+02 -0.12548560654E+02  0.47787271129E+02  0.20000000387E+02 0.  0.
         12    1    1    2    0    0  0.23639831430E+02  0.34165995697E+02  0.12548560654E+02  0.43400728871E+02  0.00000000000E+00 0. -1.
         11    1    3    3    0    0 -0.72245303085E+01 -0.10060887900E+02 -0.12991539404E+02  0.17949802224E+02  0.51100000000E-03 0. -1.
        -11    1    3    3    0    0 -0.11088575932E+02 -0.11181238280E+02 -0.10334328060E+01  0.15781146641E+02  0.51100000000E-03 0.  1.
         12    1    3    3    0    0 -0.53267251900E+01 -0.12923869516E+02  0.14764115561E+01  0.14056322265E+02  0.00000000000E+00 0. -1.
</event>
<event>
 7    1  0.2599124E-010  0.4778724E+02  0.7816164E-02  0.1312668E+00
        -11   -1    0    0    0    0  0.00000000000E+00  0.00000000000E+00  0.45593999997E+02  0.45594000000E+02  0.51100000000E-03 0.  1.
         11   -1    0    0    0    0 -0.00000000000E+00 -0.00000000000E+00 -0.45593999997E+02  0.45594000000E+02  0.51100000000E-03 0. -1.
    9900012    2    1    2    0    0 -0.20747305653E+02  0.84944626944E+01  0.37162067501E+02  0.47787241375E+02  0.19999864724E+02 0.  0.
         12    1    1    2    0    0  0.20747305653E+02 -0.84944626944E+01 -0.37162067501E+02  0.43400758625E+02  0.00000000000E+00 0. -1.
         11    1    3    3    0    0 -0.10502812998E+02  0.23286305671E+01  0.82027669859E+01  0.13528377127E+02  0.51100000000E-03 0.  1.
        -11    1    3    3    0    0 -0.53643760426E+01  0.21933028725E-01  0.13158311994E+01  0.55234430739E+01  0.51100000000E-03 0. -1.
         12    1    3    3    0    0 -0.48801166121E+01  0.61438990985E+01  0.27643469315E+02  0.28735421174E+02  0.00000000000E+00 0. -1.
</event>
<event>
 7    1  0.2599124E-010  0.4778727E+02  0.7816164E-02  0.1312668E+00
        -11   -1    0    0    0    0  0.00000000000E+00  0.00000000000E+00  0.45593999997E+02  0.45594000000E+02  0.51100000000E-03 0. -1.
         11   -1    0    0    0    0 -0.00000000000E+00 -0.00000000000E+00 -0.45593999997E+02  0.45594000000E+02  0.51100000000E-03 0.  1.
    9900012    2    1    2    0    0  0.21233095444E+02  0.77030094355E+01 -0.37059986971E+02  0.47787270389E+02  0.19999997011E+02 0.  0.
         12    1    1    2    0    0 -0.21233095444E+02 -0.77030094355E+01  0.37059986971E+02  0.43400729611E+02  0.00000000000E+00 0. -1.
         11    1    3    3    0    0  0.10277276869E+02 -0.64631582684E+00 -0.66911950785E+01  0.12280563335E+02  0.51100000000E-03 0. -1.
        -11    1    3    3    0    0  0.72531437511E+01  0.21764023294E+01 -0.48512044722E+01  0.89932756249E+01  0.51100000000E-03 0.  1.
        -12    1    3    3    0    0  0.37026748243E+01  0.61729229330E+01 -0.25517587420E+02  0.26513431429E+02  0.00000000000E+00 0.  1.
</event>
<event>
 7    1  0.2599124E-010  0.4778727E+02  0.7816164E-02  0.1312668E+00
        -11   -1    0    0    0    0  0.00000000000E+00  0.00000000000E+00  0.45593999997E+02  0.45594000000E+02  0.51100000000E-03 0.  1.
         11   -1    0    0    0    0 -0.00000000000E+00 -0.00000000000E+00 -0.45593999997E+02  0.45594000000E+02  0.51100000000E-03 0. -1.
    9900012    2    1    2    0    0  0.36417035963E+02 -0.18927475754E+02 -0.14112899130E+02  0.47787265345E+02  0.19999974014E+02 0.  0.
         12    1    1    2    0    0 -0.36417035963E+02  0.18927475754E+02  0.14112899130E+02  0.43400734655E+02  0.00000000000E+00 0. -1.
         11    1    3    3    0    0  0.15082827913E+02 -0.11767701808E+02 -0.50975830973E+01  0.19797875072E+02  0.51100000000E-03 0. -1.
        -11    1    3    3    0    0  0.17450414382E+02 -0.10934657690E+02 -0.48495924504E+01  0.21156612396E+02  0.51100000000E-03 0.  1.
         12    1    3    3    0    0  0.38837936682E+01  0.37748837441E+01 -0.41657235824E+01  0.68327778761E+01  0.00000000000E+00 0. -1.
</event>
<event>
 7    1  0.2599124E-010  0.4778726E+02  0.7816164E-02  0.1312668E+00
        -11   -1    0    0    0    0  0.00000000000E+00  0.00000000000E+00  0.45593999997E+02  0.45594000000E+02  0.51100000000E-03 0. -1.
         11   -1    0    0    0    0 -0.00000000000E+00 -0.00000000000E+00 -0.45593999997E+02  0.45594000000E+02  0.51100000000E-03 0.  1.
    9900012    2    1    2    0    0 -0.39933655274E+02 -0.64913552323E+01 -0.15709550355E+02  0.47787257050E+02  0.19999936193E+02 0.  0.
         12    1    1    2    0    0  0.39933655274E+02  0.64913552323E+01  0.15709550355E+02  0.43400742950E+02  0.00000000000E+00 0. -1.
         11    1    3    3    0    0 -0.12529472379E+02  0.21261338295E+01 -0.47346335260E+01  0.13561890652E+02  0.51100000000E-03 0.  1.
        -11    1    3    3    0    0 -0.27435827724E+02 -0.39179698833E+01 -0.95768640400E+01  0.29322200736E+02  0.51100000000E-03 0. -1.
         12    1    3    3    0    0  0.31644829974E-01 -0.46995191785E+01 -0.13980527893E+01  0.49031656617E+01  0.00000000000E+00 0. -1.
</event>
<event>
 7    1  0.2599124E-010  0.4778728E+02  0.7816164E-02  0.1312668E+00
        -11   -1    0    0    0    0  0.00000000000E+00  0.00000000000E+00  0.45593999997E+02  0.45594000000E+02  0.51100000000E-03 0.  1.
         11   -1    0    0    0    0 -0.00000000000E+00 -0.00000000000E+00 -0.45593999997E+02  0.45594000000E+02  0.51100000000E-03 0. -1.
    9900012    2    1    2    0    0  0.14788357170E+02 -0.28041988815E+02  0.29640752999E+02  0.47787275549E+02  0.20000020539E+02 0.  0.
         12    1    1    2    0    0 -0.14788357170E+02  0.28041988815E+02 -0.29640752999E+02  0.43400724451E+02  0.00000000000E+00 0. -1.
         11    1    3    3    0    0  0.21745908130E+01 -0.94580006590E+01  0.93289856802E+01  0.13461522787E+02  0.51100000000E-03 0. -1.
        -11    1    3    3    0    0  0.40703685198E+01 -0.79395879826E+01  0.18523382616E+02  0.20560171717E+02  0.51100000000E-03 0.  1.
         12    1    3    3    0    0  0.85433978374E+01 -0.10644400174E+02  0.17883847028E+01  0.13765581045E+02  0.00000000000E+00 0. -1.
</event>
<event>
 7    1  0.2599124E-010  0.4778727E+02  0.7816164E-02  0.1312668E+00
        -11   -1    0    0    0    0  0.00000000000E+00  0.00000000000E+00  0.45593999997E+02  0.45594000000E+02  0.51100000000E-03 0. -1.
         11   -1    0    0    0    0 -0.00000000000E+00 -0.00000000000E+00 -0.45593999997E+02  0.45594000000E+02  0.51100000000E-03 0.  1.
    9900012    2    1    2    0    0  0.26933772341E+02  0.11693388532E+02 -0.31960287312E+02  0.47787269673E+02  0.19999993746E+02 0.  0.
         12    1    1    2    0    0 -0.26933772341E+02 -0.11693388532E+02  0.31960287312E+02  0.43400730327E+02  0.00000000000E+00 0. -1.
         11    1    3    3    0    0  0.17801204476E+02  0.21381623577E+01 -0.77747964420E+01  0.19542315089E+02  0.51100000000E-03 0. -1.
        -11    1    3    3    0    0  0.10488903646E+01  0.27525855794E+01 -0.16998854980E+01  0.34009571207E+01  0.51100000000E-03 0.  1.
         12    1    3    3    0    0  0.80836775005E+01  0.68026405947E+01 -0.22485605372E+02  0.24843997463E+02  0.00000000000E+00 0. -1.
</event>
<event>
 7    1  0.2599124E-010  0.4778727E+02  0.7816164E-02  0.1312668E+00
        -11   -1    0    0    0    0  0.00000000000E+00  0.00000000000E+00  0.45593999997E+02  0.45594000000E+02  0.51100000000E-03 0.  1.
         11   -1    0    0    0    0 -0.00000000000E+00 -0.00000000000E+00 -0.45593999997E+02  0.45594000000E+02  0.51100000000E-03 0. -1.
    9900012    2    1    2    0    0  0.20105225022E+02  0.22917169845E+02  0.30890230696E+02  0.47787273055E+02  0.20000009168E+02 0.  0.
         12    1    1    2    0    0 -0.20105225022E+02 -0.22917169845E+02 -0.30890230696E+02  0.43400726945E+02  0.00000000000E+00 0. -1.
         11    1    3    3    0    0  0.48575402084E+01  0.66215700415E+01  0.18986309744E+01  0.84288603339E+01  0.51100000000E-03 0.  1.
        -11    1    3    3    0    0 -0.20555319689E+01  0.63115346183E+01  0.75328665252E+01  0.10040157332E+02  0.51100000000E-03 0. -1.
        -12    1    3    3    0    0  0.17303216783E+02  0.99840651854E+01  0.21458733196E+02  0.29318255389E+02  0.00000000000E+00 0.  1.
</event>
<event>
 7    1  0.2599124E-010  0.4778727E+02  0.7816164E-02  0.1312668E+00
        -11   -1    0    0    0    0  0.00000000000E+00  0.00000000000E+00  0.45593999997E+02  0.45594000000E+02  0.51100000000E-03 0. -1.
         11   -1    0    0    0    0 -0.00000000000E+00 -0.00000000000E+00 -0.45593999997E+02  0.45594000000E+02  0.51100000000E-03 0.  1.
    9900012    2    1    2    0    0  0.20314914372E+01 -0.26304426908E+02 -0.34461188201E+02  0.47787270459E+02  0.19999997331E+02 0.  0.
         12    1    1    2    0    0 -0.20314914372E+01  0.26304426908E+02  0.34461188201E+02  0.43400729541E+02  0.00000000000E+00 0. -1.
         11    1    3    3    0    0 -0.24153081316E+01 -0.80523052816E+01 -0.11413953502E+02  0.14175742257E+02  0.51100000000E-03 0. -1.
        -11    1    3    3    0    0 -0.17800631891E+01 -0.15834508152E+02 -0.21489548341E+02  0.26752587941E+02  0.51100000000E-03 0.  1.
         12    1    3    3    0    0  0.62268627580E+01 -0.24176134751E+01 -0.15576863578E+01  0.68589402615E+01  0.00000000000E+00 0. -1.
</event>
<event>
 7    1  0.2599124E-010  0.4778727E+02  0.7816164E-02  0.1312668E+00
        -11   -1    0    0    0    0  0.00000000000E+00  0.00000000000E+00  0.45593999997E+02  0.45594000000E+02  0.51100000000E-03 0. -1.
         11   -1    0    0    0    0 -0.00000000000E+00 -0.00000000000E+00 -0.45593999997E+02  0.45594000000E+02  0.51100000000E-03 0.  1.
    9900012    2    1    2    0    0 -0.42008361866E+02 -0.65678034137E+01  0.87054315532E+01  0.47787273660E+02  0.20000011924E+02 0.  0.
         12    1    1    2    0    0  0.42008361866E+02  0.65678034137E+01 -0.87054315532E+01  0.43400726340E+02  0.00000000000E+00 0. -1.
         11    1    3    3    0    0 -0.23086932496E+02 -0.56690076545E+01  0.91480818707E+01  0.25472171129E+02  0.51100000000E-03 0. -1.
        -11    1    3    3    0    0 -0.13816982928E+02  0.20720463894E+01  0.44315804920E+01  0.14657465654E+02  0.51100000000E-03 0.  1.
        -12    1    3    3    0    0 -0.51044464421E+01 -0.29708421486E+01 -0.48742308095E+01  0.76576368768E+01  0.00000000000E+00 0.  1.
</event>
<event>
 7    1  0.2599124E-010  0.4778727E+02  0.7816164E-02  0.1312668E+00
        -11   -1    0    0    0    0  0.00000000000E+00  0.00000000000E+00  0.45593999997E+02  0.45594000000E+02  0.51100000000E-03 0.  1.
         11   -1    0    0    0    0 -0.00000000000E+00 -0.00000000000E+00 -0.45593999997E+02  0.45594000000E+02  0.51100000000E-03 0. -1.
    9900012    2    1    2    0    0  0.14025147141E+01  0.35677633420E+01  0.43231092865E+02  0.47787269901E+02  0.19999994788E+02 0.  0.
         12    1    1    2    0    0 -0.14025147141E+01 -0.35677633420E+01 -0.43231092865E+02  0.43400730099E+02  0.00000000000E+00 0. -1.
         11    1    3    3    0    0  0.32673183599E+01  0.85166533726E+00  0.26575128127E+01  0.42968683622E+01  0.51100000000E-03 0. -1.
        -11    1    3    3    0    0 -0.49637846673E+01 -0.51159000734E+01  0.16082583710E+02  0.17591506213E+02  0.51100000000E-03 0.  1.
         12    1    3    3    0    0  0.30989810215E+01  0.78319980782E+01  0.24490996343E+02  0.25898895327E+02  0.00000000000E+00 0. -1.
</event>
<event>
 7    1  0.2599124E-010  0.4778727E+02  0.7816164E-02  0.1312668E+00
        -11   -1    0    0    0    0  0.00000000000E+00  0.00000000000E+00  0.45593999997E+02  0.45594000000E+02  0.51100000000E-03 0.  1.
         11   -1    0    0    0    0 -0.00000000000E+00 -0.00000000000E+00 -0.45593999997E+02  0.45594000000E+02  0.51100000000E-03 0. -1.
    9900012    2    1    2    0    0 -0.13136118798E+02  0.38100205189E+02  0.16107141009E+02  0.47787271389E+02  0.20000001571E+02 0.  0.
         12    1    1    2    0    0  0.13136118798E+02 -0.38100205189E+02 -0.16107141009E+02  0.43400728611E+02  0.00000000000E+00 0. -1.
         11    1    3    3    0    0 -0.44777939762E+01  0.74874413325E+01  0.32210345744E+01  0.92998645469E+01  0.51100000000E-03 0. -1.
        -11    1    3    3    0    0 -0.95610390247E+01  0.32229155851E+02  0.10026501916E+02  0.35080802371E+02  0.51100000000E-03 0.  1.
         12    1    3    3    0    0  0.90271420311E+00 -0.16163919948E+01  0.28596045191E+01  0.34066044706E+01  0.00000000000E+00 0. -1.
</event>
<event>
 7    1  0.2599124E-010  0.4778727E+02  0.7816164E-02  0.1312668E+00
        -11   -1    0    0    0    0  0.00000000000E+00  0.00000000000E+00  0.45593999997E+02  0.45594000000E+02  0.51100000000E-03 0.  1.
         11   -1    0    0    0    0 -0.00000000000E+00 -0.00000000000E+00 -0.45593999997E+02  0.45594000000E+02  0.51100000000E-03 0. -1.
    9900012    2    1    2    0    0  0.26431947687E+02 -0.33067282586E+02  0.95671349616E+01  0.47787272961E+02  0.20000008737E+02 0.  0.
         12    1    1    2    0    0 -0.26431947687E+02  0.33067282586E+02 -0.95671349616E+01  0.43400727039E+02  0.00000000000E+00 0. -1.
         11    1    3    3    0    0  0.75600037142E+01 -0.24158347576E+01  0.16079795876E+01  0.80978708529E+01  0.51100000000E-03 0. -1.
        -11    1    3    3    0    0  0.12495295055E+02 -0.73136312125E+01  0.98895825981E+00  0.14512051500E+02  0.51100000000E-03 0.  1.
        -12    1    3    3    0    0  0.63766489175E+01 -0.23337816616E+02  0.69701971142E+01  0.25177350608E+02  0.00000000000E+00 0.  1.
</event>
<event>
 7    1  0.2599124E-010  0.4778727E+02  0.7816164E-02  0.1312668E+00
        -11   -1    0    0    0    0  0.00000000000E+00  0.00000000000E+00  0.45593999997E+02  0.45594000000E+02  0.51100000000E-03 0.  1.
         11   -1    0    0    0    0 -0.00000000000E+00 -0.00000000000E+00 -0.45593999997E+02  0.45594000000E+02  0.51100000000E-03 0. -1.
    9900012    2    1    2    0    0  0.26141644844E+02 -0.25507585268E+02  0.23443568784E+02  0.47787269376E+02  0.19999992393E+02 0.  0.
         12    1    1    2    0    0 -0.26141644844E+02  0.25507585268E+02 -0.23443568784E+02  0.43400730624E+02  0.00000000000E+00 0. -1.
         11    1    3    3    0    0  0.85382417507E+01 -0.11351333878E+01  0.82044603163E+01  0.11895514673E+02  0.51100000000E-03 0. -1.
        -11    1    3    3    0    0  0.70768118487E+01 -0.17953645922E+02  0.13235659160E+02  0.23400797882E+02  0.51100000000E-03 0.  1.
         12    1    3    3    0    0  0.10526591245E+02 -0.64188059576E+01  0.20034493072E+01  0.12490956820E+02  0.00000000000E+00 0. -1.
</event>
<event>
 7    1  0.2599124E-010  0.4778726E+02  0.7816164E-02  0.1312668E+00
        -11   -1    0    0    0    0  0.00000000000E+00  0.00000000000E+00  0.45593999997E+02  0.45594000000E+02  0.51100000000E-03 0. -1.
         11   -1    0    0    0    0 -0.00000000000E+00 -0.00000000000E+00 -0.45593999997E+02  0.45594000000E+02  0.51100000000E-03 0.  1.
    9900012    2    1    2    0    0  0.21340459824E+02  0.36932232135E+02 -0.80137094444E+01  0.47787256515E+02  0.19999933756E+02 0.  0.
         12    1    1    2    0    0 -0.21340459824E+02 -0.36932232135E+02  0.80137094444E+01  0.43400743485E+02  0.00000000000E+00 0. -1.
         11    1    3    3    0    0  0.77624888296E+01  0.15023361614E+02  0.25724895416E+01  0.17104833520E+02  0.51100000000E-03 0. -1.
        -11    1    3    3    0    0  0.75857719342E+01  0.21097138614E+02 -0.63570667600E+01  0.23303336491E+02  0.51100000000E-03 0.  1.
         12    1    3    3    0    0  0.59921990601E+01  0.81173190625E+00 -0.42291322261E+01  0.73790865051E+01  0.00000000000E+00 0. -1.
</event>
<event>
 7    1  0.2599124E-010  0.4778725E+02  0.7816164E-02  0.1312668E+00
        -11   -1    0    0    0    0  0.00000000000E+00  0.00000000000E+00  0.45593999997E+02  0.45594000000E+02  0.51100000000E-03 0.  1.
         11   -1    0    0    0    0 -0.00000000000E+00 -0.00000000000E+00 -0.45593999997E+02  0.45594000000E+02  0.51100000000E-03 0. -1.
    9900012    2    1    2    0    0 -0.20765470451E+02 -0.22978597296E+01  0.38041300734E+02  0.47787245584E+02  0.19999883914E+02 0.  0.
         12    1    1    2    0    0  0.20765470451E+02  0.22978597296E+01 -0.38041300734E+02  0.43400754416E+02  0.00000000000E+00 0. -1.
         11    1    3    3    0    0 -0.12961390434E+02  0.55548330101E+01  0.20970013291E+02  0.25270442605E+02  0.51100000000E-03 0. -1.
        -11    1    3    3    0    0 -0.51317831665E+01 -0.35151137770E+01  0.16193489584E+02  0.17347055326E+02  0.51100000000E-03 0.  1.
         12    1    3    3    0    0 -0.26722968499E+01 -0.43375789627E+01  0.87779785964E+00  0.51697476529E+01  0.00000000000E+00 0. -1.
</event>
<event>
 7    1  0.2599124E-010  0.4778721E+02  0.7816164E-02  0.1312668E+00
        -11   -1    0    0    0    0  0.00000000000E+00  0.00000000000E+00  0.45593999997E+02  0.45594000000E+02  0.51100000000E-03 0.  1.
         11   -1    0    0    0    0 -0.00000000000E+00 -0.00000000000E+00 -0.45593999997E+02  0.45594000000E+02  0.51100000000E-03 0. -1.
    9900012    2    1    2    0    0  0.35974855233E+02  0.72352695833E+01  0.23175180922E+02  0.47787212614E+02  0.19999733590E+02 0.  0.
         12    1    1    2    0    0 -0.35974855233E+02 -0.72352695833E+01 -0.23175180922E+02  0.43400787386E+02  0.00000000000E+00 0. -1.
         11    1    3    3    0    0  0.16196740072E+01  0.14977968040E+01 -0.52903298152E+00  0.22686152852E+01  0.51100000000E-03 0. -1.
        -11    1    3    3    0    0  0.35535175828E+02  0.73649755769E+01  0.20346063555E+02  0.41604733972E+02  0.51100000000E-03 0.  1.
         12    1    3    3    0    0 -0.11799946023E+01 -0.16275027977E+01  0.33581503480E+01  0.39138633570E+01  0.00000000000E+00 0. -1.
</event>
<event>
 7    1  0.2599124E-010  0.4778727E+02  0.7816164E-02  0.1312668E+00
        -11   -1    0    0    0    0  0.00000000000E+00  0.00000000000E+00  0.45593999997E+02  0.45594000000E+02  0.51100000000E-03 0.  1.
         11   -1    0    0    0    0 -0.00000000000E+00 -0.00000000000E+00 -0.45593999997E+02  0.45594000000E+02  0.51100000000E-03 0. -1.
    9900012    2    1    2    0    0  0.38877174526E+02  0.82852089299E+01  0.17422504010E+02  0.47787273830E+02  0.20000012699E+02 0.  0.
         12    1    1    2    0    0 -0.38877174526E+02 -0.82852089299E+01 -0.17422504010E+02  0.43400726170E+02  0.00000000000E+00 0. -1.
         11    1    3    3    0    0  0.19693684161E+02  0.29773689279E+00  0.45023621834E+01  0.20203987442E+02  0.51100000000E-03 0. -1.
        -11    1    3    3    0    0  0.28783545544E+00 -0.64808843019E+00 -0.19234173624E+01  0.20499762130E+01  0.51100000000E-03 0.  1.
        -12    1    3    3    0    0  0.18895654910E+02  0.86355604673E+01  0.14843559189E+02  0.25533310174E+02  0.00000000000E+00 0.  1.
</event>
<event>
 7    1  0.2599124E-010  0.4778727E+02  0.7816164E-02  0.1312668E+00
        -11   -1    0    0    0    0  0.00000000000E+00  0.00000000000E+00  0.45593999997E+02  0.45594000000E+02  0.51100000000E-03 0.  1.
         11   -1    0    0    0    0 -0.00000000000E+00 -0.00000000000E+00 -0.45593999997E+02  0.45594000000E+02  0.51100000000E-03 0. -1.
    9900012    2    1    2    0    0 -0.31122339323E+02 -0.12753424784E+02  0.27429428964E+02  0.47787269339E+02  0.19999992223E+02 0.  0.
         12    1    1    2    0    0  0.31122339323E+02  0.12753424784E+02 -0.27429428964E+02  0.43400730661E+02  0.00000000000E+00 0. -1.
         11    1    3    3    0    0 -0.92282845537E+01 -0.91834317234E+00  0.13420492221E+02  0.16313007132E+02  0.51100000000E-03 0.  1.
        -11    1    3    3    0    0 -0.86896781669E+01  0.11553222481E+01  0.96471628902E+00  0.88190676333E+01  0.51100000000E-03 0. -1.
         12    1    3    3    0    0 -0.13204376602E+02 -0.12990403860E+02  0.13044220454E+02  0.22655194573E+02  0.00000000000E+00 0. -1.
</event>
<event>
 7    1  0.2599124E-010  0.4778728E+02  0.7816164E-02  0.1312668E+00
        -11   -1    0    0    0    0  0.00000000000E+00  0.00000000000E+00  0.45593999997E+02  0.45594000000E+02  0.51100000000E-03 0. -1.
         11   -1    0    0    0    0 -0.00000000000E+00 -0.00000000000E+00 -0.45593999997E+02  0.45594000000E+02  0.51100000000E-03 0.  1.
    9900012    2    1    2    0    0 -0.23575416510E+02 -0.12084123093E+02 -0.34377269141E+02  0.47787275027E+02  0.20000018160E+02 0.  0.
         12    1    1    2    0    0  0.23575416510E+02  0.12084123093E+02  0.34377269141E+02  0.43400724973E+02  0.00000000000E+00 0. -1.
         11    1    3    3    0    0 -0.75966955594E+00 -0.52438815017E+01 -0.11181310808E+01  0.54153124022E+01  0.51100000000E-03 0. -1.
        -11    1    3    3    0    0 -0.33465607064E+01 -0.43679243758E+01 -0.13238323231E+02  0.14336367536E+02  0.51100000000E-03 0.  1.
        -12    1    3    3    0    0 -0.19469186247E+02 -0.24723172151E+01 -0.20020814830E+02  0.28035595089E+02  0.00000000000E+00 0.  1.
</event>
<event>
 7    1  0.2599124E-010  0.4778727E+02  0.7816164E-02  0.1312668E+00
        -11   -1    0    0    0    0  0.00000000000E+00  0.00000000000E+00  0.45593999997E+02  0.45594000000E+02  0.51100000000E-03 0.  1.
         11   -1    0    0    0    0 -0.00000000000E+00 -0.00000000000E+00 -0.45593999997E+02  0.45594000000E+02  0.51100000000E-03 0. -1.
    9900012    2    1    2    0    0  0.88574210736E+01  0.31487611285E+02  0.28525430569E+02  0.47787265425E+02  0.19999974379E+02 0.  0.
         12    1    1    2    0    0 -0.88574210736E+01 -0.31487611285E+02 -0.28525430569E+02  0.43400734575E+02  0.00000000000E+00 0. -1.
         11    1    3    3    0    0  0.97195677511E-01  0.12630611668E+02  0.34181309467E+01  0.13085313047E+02  0.51100000000E-03 0. -1.
        -11    1    3    3    0    0  0.15295665845E+00  0.13748044747E+02  0.16690280786E+02  0.21624005250E+02  0.51100000000E-03 0.  1.
         12    1    3    3    0    0  0.86072687376E+01  0.51089548704E+01  0.84170188362E+01  0.13077947128E+02  0.00000000000E+00 0. -1.
</event>
<event>
 7    1  0.2599124E-010  0.4778727E+02  0.7816164E-02  0.1312668E+00
        -11   -1    0    0    0    0  0.00000000000E+00  0.00000000000E+00  0.45593999997E+02  0.45594000000E+02  0.51100000000E-03 0. -1.
         11   -1    0    0    0    0 -0.00000000000E+00 -0.00000000000E+00 -0.45593999997E+02  0.45594000000E+02  0.51100000000E-03 0.  1.
    9900012    2    1    2    0    0 -0.28616287017E+02 -0.11595652436E+01 -0.32609609858E+02  0.47787272710E+02  0.20000007595E+02 0.  0.
         12    1    1    2    0    0  0.28616287017E+02  0.11595652436E+01  0.32609609858E+02  0.43400727290E+02  0.00000000000E+00 0. -1.
         11    1    3    3    0    0  0.79056458339E+00 -0.19271371404E+00 -0.82380353358E-01  0.81787390215E+00  0.51100000000E-03 0. -1.
        -11    1    3    3    0    0 -0.20365056027E+02 -0.29475698607E+01 -0.31542410045E+02  0.37660952016E+02  0.51100000000E-03 0.  1.
        -12    1    3    3    0    0 -0.90417955737E+01  0.19807183311E+01 -0.98481945932E+00  0.93084467915E+01  0.00000000000E+00 0.  1.
</event>
<event>
 7    1  0.2599124E-010  0.4778727E+02  0.7816164E-02  0.1312668E+00
        -11   -1    0    0    0    0  0.00000000000E+00  0.00000000000E+00  0.45593999997E+02  0.45594000000E+02  0.51100000000E-03 0.  1.
         11   -1    0    0    0    0 -0.00000000000E+00 -0.00000000000E+00 -0.45593999997E+02  0.45594000000E+02  0.51100000000E-03 0. -1.
    9900012    2    1    2    0    0 -0.26955294590E+02 -0.23045111315E+02  0.25019157490E+02  0.47787270703E+02  0.19999998446E+02 0.  0.
         12    1    1    2    0    0  0.26955294590E+02  0.23045111315E+02 -0.25019157490E+02  0.43400729297E+02  0.00000000000E+00 0. -1.
         11    1    3    3    0    0 -0.10536457254E+01 -0.34574332274E+01 -0.12295808160E+00  0.36165083696E+01  0.51100000000E-03 0. -1.
        -11    1    3    3    0    0 -0.20355799054E+02 -0.87805148269E+01  0.88995455139E+01  0.23888447132E+02  0.51100000000E-03 0.  1.
        -12    1    3    3    0    0 -0.55458498103E+01 -0.10807163260E+02  0.16242570058E+02  0.20282315202E+02  0.00000000000E+00 0.  1.
</event>
<event>
 7    1  0.2599124E-010  0.4778727E+02  0.7816164E-02  0.1312668E+00
        -11   -1    0    0    0    0  0.00000000000E+00  0.00000000000E+00  0.45593999997E+02  0.45594000000E+02  0.51100000000E-03 0.  1.
         11   -1    0    0    0    0 -0.00000000000E+00 -0.00000000000E+00 -0.45593999997E+02  0.45594000000E+02  0.51100000000E-03 0. -1.
    9900012    2    1    2    0    0  0.34477073129E+02  0.11006100019E+02  0.23954543800E+02  0.47787274455E+02  0.20000015550E+02 0.  0.
         12    1    1    2    0    0 -0.34477073129E+02 -0.11006100019E+02 -0.23954543800E+02  0.43400725545E+02  0.00000000000E+00 0. -1.
         11    1    3    3    0    0  0.69836600937E+01 -0.53110403538E+01  0.22109373004E+01  0.90480330433E+01  0.51100000000E-03 0. -1.
        -11    1    3    3    0    0  0.67271510676E+01  0.42940207446E+01  0.42340381529E+01  0.90343928951E+01  0.51100000000E-03 0.  1.
        -12    1    3    3    0    0  0.20766261968E+02  0.12023119628E+02  0.17509568346E+02  0.29704848517E+02  0.00000000000E+00 0.  1.
</event>
<event>
 7    1  0.2599124E-010  0.4778727E+02  0.7816164E-02  0.1312668E+00
        -11   -1    0    0    0    0  0.00000000000E+00  0.00000000000E+00  0.45593999997E+02  0.45594000000E+02  0.51100000000E-03 0. -1.
         11   -1    0    0    0    0 -0.00000000000E+00 -0.00000000000E+00 -0.45593999997E+02  0.45594000000E+02  0.51100000000E-03 0.  1.
    9900012    2    1    2    0    0 -0.54972020285E+01  0.21484134946E+01 -0.42997535487E+02  0.47787274561E+02  0.20000016033E+02 0.  0.
         12    1    1    2    0    0  0.54972020285E+01 -0.21484134946E+01  0.42997535487E+02  0.43400725439E+02  0.00000000000E+00 0. -1.
         11    1    3    3    0    0  0.34369957754E+01  0.16427116205E+01 -0.20671052179E+02  0.21019130331E+02  0.51100000000E-03 0. -1.
        -11    1    3    3    0    0 -0.74984885030E+01  0.23522354933E+01 -0.23023249866E+02  0.24327564126E+02  0.51100000000E-03 0.  1.
         12    1    3    3    0    0 -0.14357093010E+01 -0.18465336192E+01  0.69676655851E+00  0.24405801033E+01  0.00000000000E+00 0. -1.
</event>
<event>
 7    1  0.2599124E-010  0.4778727E+02  0.7816164E-02  0.1312668E+00
        -11   -1    0    0    0    0  0.00000000000E+00  0.00000000000E+00  0.45593999997E+02  0.45594000000E+02  0.51100000000E-03 0. -1.
         11   -1    0    0    0    0 -0.00000000000E+00 -0.00000000000E+00 -0.45593999997E+02  0.45594000000E+02  0.51100000000E-03 0.  1.
    9900012    2    1    2    0    0 -0.25804577569E+02  0.32630488756E+02  0.12369239911E+02  0.47787272864E+02  0.20000008296E+02 0.  0.
         12    1    1    2    0    0  0.25804577569E+02 -0.32630488756E+02 -0.12369239911E+02  0.43400727136E+02  0.00000000000E+00 0. -1.
         11    1    3    3    0    0  0.22520911078E+01  0.76127176228E+01  0.63080307514E+00  0.79638744806E+01  0.51100000000E-03 0. -1.
        -11    1    3    3    0    0 -0.21866773100E+01  0.44012338288E+01  0.78418966321E+00  0.49766826866E+01  0.51100000000E-03 0.  1.
        -12    1    3    3    0    0 -0.25869991367E+02  0.20616537304E+02  0.10954247173E+02  0.34846715697E+02  0.00000000000E+00 0.  1.
</event>
<event>
 7    1  0.2599124E-010  0.4778727E+02  0.7816164E-02  0.1312668E+00
        -11   -1    0    0    0    0  0.00000000000E+00  0.00000000000E+00  0.45593999997E+02  0.45594000000E+02  0.51100000000E-03 0. -1.
         11   -1    0    0    0    0 -0.00000000000E+00 -0.00000000000E+00 -0.45593999997E+02  0.45594000000E+02  0.51100000000E-03 0.  1.
    9900012    2    1    2    0    0  0.28073409479E+02 -0.26726371007E+02 -0.19524553877E+02  0.47787269234E+02  0.19999991744E+02 0.  0.
         12    1    1    2    0    0 -0.28073409479E+02  0.26726371007E+02  0.19524553877E+02  0.43400730766E+02  0.00000000000E+00 0. -1.
         11    1    3    3    0    0  0.17361903496E+02 -0.81221778362E+01 -0.30076027118E+01  0.19402348830E+02  0.51100000000E-03 0.  1.
        -11    1    3    3    0    0  0.59002212922E+01 -0.27385136624E+01 -0.47445006570E+01  0.80512331429E+01  0.51100000000E-03 0. -1.
        -12    1    3    3    0    0  0.48112846909E+01 -0.15865679508E+02 -0.11772450508E+02  0.20333687260E+02  0.00000000000E+00 0.  1.
</event>
<event>
 7    1  0.2599124E-010  0.4778727E+02  0.7816164E-02  0.1312668E+00
        -11   -1    0    0    0    0  0.00000000000E+00  0.00000000000E+00  0.45593999997E+02  0.45594000000E+02  0.51100000000E-03 0.  1.
         11   -1    0    0    0    0 -0.00000000000E+00 -0.00000000000E+00 -0.45593999997E+02  0.45594000000E+02  0.51100000000E-03 0. -1.
    9900012    2    1    2    0    0 -0.14155097278E+02  0.40906941081E+02  0.31430382494E+01  0.47787270779E+02  0.19999998788E+02 0.  0.
         12    1    1    2    0    0  0.14155097278E+02 -0.40906941081E+02 -0.31430382494E+01  0.43400729221E+02  0.00000000000E+00 0. -1.
         11    1    3    3    0    0  0.23468413965E+01 -0.46908956372E+00  0.65674700240E+00  0.24817385933E+01  0.51100000000E-03 0. -1.
        -11    1    3    3    0    0 -0.33682026704E+01  0.12158645639E+02 -0.25691582931E+01  0.12875481645E+02  0.51100000000E-03 0.  1.
         12    1    3    3    0    0 -0.13133736004E+02  0.29217385006E+02  0.50554495400E+01  0.32430050540E+02  0.00000000000E+00 0. -1.
</event>
<event>
 7    1  0.2599124E-010  0.4778727E+02  0.7816164E-02  0.1312668E+00
        -11   -1    0    0    0    0  0.00000000000E+00  0.00000000000E+00  0.45593999997E+02  0.45594000000E+02  0.51100000000E-03 0.  1.
         11   -1    0    0    0    0 -0.00000000000E+00 -0.00000000000E+00 -0.45593999997E+02  0.45594000000E+02  0.51100000000E-03 0. -1.
    9900012    2    1    2    0    0 -0.21585072605E+02 -0.15928157201E+02 -0.34117470302E+02  0.47787270386E+02  0.19999996998E+02 0.  0.
         12    1    1    2    0    0  0.21585072605E+02  0.15928157201E+02  0.34117470302E+02  0.43400729614E+02  0.00000000000E+00 0. -1.
         11    1    3    3    0    0 -0.85610350866E+01 -0.28664837409E+01 -0.75664539563E+01  0.11779612749E+02  0.51100000000E-03 0. -1.
        -11    1    3    3    0    0 -0.15142604904E+02 -0.53437221693E+01 -0.20108548175E+02  0.25733393866E+02  0.51100000000E-03 0.  1.
         12    1    3    3    0    0  0.21185673851E+01 -0.77179512913E+01 -0.64424681708E+01  0.10274263771E+02  0.00000000000E+00 0. -1.
</event>
<event>
 7    1  0.2599124E-010  0.4778727E+02  0.7816164E-02  0.1312668E+00
        -11   -1    0    0    0    0  0.00000000000E+00  0.00000000000E+00  0.45593999997E+02  0.45594000000E+02  0.51100000000E-03 0.  1.
         11   -1    0    0    0    0 -0.00000000000E+00 -0.00000000000E+00 -0.45593999997E+02  0.45594000000E+02  0.51100000000E-03 0. -1.
    9900012    2    1    2    0    0 -0.34908991130E+02 -0.98100855439E+01  0.23848439256E+02  0.47787268496E+02  0.19999988382E+02 0.  0.
         12    1    1    2    0    0  0.34908991130E+02  0.98100855439E+01 -0.23848439256E+02  0.43400731504E+02  0.00000000000E+00 0. -1.
         11    1    3    3    0    0  0.98245806926E+00  0.15869186204E+01 -0.10007114556E+01  0.21177720001E+01  0.51100000000E-03 0. -1.
        -11    1    3    3    0    0 -0.10854508806E+02 -0.32530645688E+00  0.57310491275E+01  0.12278888796E+02  0.51100000000E-03 0.  1.
        -12    1    3    3    0    0 -0.25036940393E+02 -0.11071697707E+02  0.19118101584E+02  0.33390607700E+02  0.00000000000E+00 0.  1.
</event>
<event>
 7    1  0.2599124E-010  0.4778727E+02  0.7816164E-02  0.1312668E+00
        -11   -1    0    0    0    0  0.00000000000E+00  0.00000000000E+00  0.45593999997E+02  0.45594000000E+02  0.51100000000E-03 0. -1.
         11   -1    0    0    0    0 -0.00000000000E+00 -0.00000000000E+00 -0.45593999997E+02  0.45594000000E+02  0.51100000000E-03 0.  1.
    9900012    2    1    2    0    0  0.21334687212E+02  0.27927740942E+02 -0.25465577588E+02  0.47787271499E+02  0.20000002071E+02 0.  0.
         12    1    1    2    0    0 -0.21334687212E+02 -0.27927740942E+02  0.25465577588E+02  0.43400728501E+02  0.00000000000E+00 0. -1.
         11    1    3    3    0    0 -0.12229899111E+01  0.21161743104E+00 -0.17951580152E+01  0.21824478964E+01  0.51100000000E-03 0. -1.
        -11    1    3    3    0    0  0.15300535917E+02  0.97223490769E+01 -0.53034336572E+01  0.18888008887E+02  0.51100000000E-03 0.  1.
         12    1    3    3    0    0  0.72571412061E+01  0.17993774434E+02 -0.18366985916E+02  0.26716814715E+02  0.00000000000E+00 0. -1.
</event>
<event>
 7    1  0.2599124E-010  0.4778727E+02  0.7816164E-02  0.1312668E+00
        -11   -1    0    0    0    0  0.00000000000E+00  0.00000000000E+00  0.45593999997E+02  0.45594000000E+02  0.51100000000E-03 0. -1.
         11   -1    0    0    0    0 -0.00000000000E+00 -0.00000000000E+00 -0.45593999997E+02  0.45594000000E+02  0.51100000000E-03 0.  1.
    9900012    2    1    2    0    0 -0.13059233887E+02 -0.39575755212E+02  0.12117745316E+02  0.47787265653E+02  0.19999975416E+02 0.  0.
         12    1    1    2    0    0  0.13059233887E+02  0.39575755212E+02 -0.12117745316E+02  0.43400734347E+02  0.00000000000E+00 0. -1.
         11    1    3    3    0    0 -0.45323644063E+01 -0.11360242919E+02  0.10772188086E+02  0.16298388961E+02  0.51100000000E-03 0. -1.
        -11    1    3    3    0    0  0.72106429786E+00 -0.61207936448E+01  0.40649501726E+01  0.73829444486E+01  0.51100000000E-03 0.  1.
        -12    1    3    3    0    0 -0.92479337789E+01 -0.22094718649E+02 -0.27193929427E+01  0.24105932243E+02  0.00000000000E+00 0.  1.
</event>
<event>
 7    1  0.2599124E-010  0.4778727E+02  0.7816164E-02  0.1312668E+00
        -11   -1    0    0    0    0  0.00000000000E+00  0.00000000000E+00  0.45593999997E+02  0.45594000000E+02  0.51100000000E-03 0.  1.
         11   -1    0    0    0    0 -0.00000000000E+00 -0.00000000000E+00 -0.45593999997E+02  0.45594000000E+02  0.51100000000E-03 0. -1.
    9900012    2    1    2    0    0  0.24792017616E+02 -0.15288269598E+01  0.35589915030E+02  0.47787268426E+02  0.19999988063E+02 0.  0.
         12    1    1    2    0    0 -0.24792017616E+02  0.15288269598E+01 -0.35589915030E+02  0.43400731574E+02  0.00000000000E+00 0. -1.
         11    1    3    3    0    0  0.99243383824E+01 -0.27811886266E+01  0.52114143758E+01  0.11549300523E+02  0.51100000000E-03 0. -1.
        -11    1    3    3    0    0  0.17081449852E+02  0.10013668123E+01  0.23950128963E+02  0.29434458414E+02  0.51100000000E-03 0.  1.
        -12    1    3    3    0    0 -0.22137706193E+01  0.25099485449E+00  0.64283716911E+01  0.68035094893E+01  0.00000000000E+00 0.  1.
</event>
<event>
 7    1  0.2599124E-010  0.4778727E+02  0.7816164E-02  0.1312668E+00
        -11   -1    0    0    0    0  0.00000000000E+00  0.00000000000E+00  0.45593999997E+02  0.45594000000E+02  0.51100000000E-03 0. -1.
         11   -1    0    0    0    0 -0.00000000000E+00 -0.00000000000E+00 -0.45593999997E+02  0.45594000000E+02  0.51100000000E-03 0.  1.
    9900012    2    1    2    0    0 -0.21991949767E+02  0.96923443767E+01 -0.36139120741E+02  0.47787269107E+02  0.19999991168E+02 0.  0.
         12    1    1    2    0    0  0.21991949767E+02 -0.96923443767E+01  0.36139120741E+02  0.43400730893E+02  0.00000000000E+00 0. -1.
         11    1    3    3    0    0 -0.15554488776E+02  0.66314238614E+01 -0.18028065415E+02  0.24716978909E+02  0.51100000000E-03 0. -1.
        -11    1    3    3    0    0 -0.72440543144E+01  0.32136904292E+00 -0.18785074974E+02  0.20136003651E+02  0.51100000000E-03 0.  1.
         12    1    3    3    0    0  0.80659332374E+00  0.27395514724E+01  0.67401964747E+00  0.29342865478E+01  0.00000000000E+00 0. -1.
</event>
<event>
 7    1  0.2599124E-010  0.4778727E+02  0.7816164E-02  0.1312668E+00
        -11   -1    0    0    0    0  0.00000000000E+00  0.00000000000E+00  0.45593999997E+02  0.45594000000E+02  0.51100000000E-03 0. -1.
         11   -1    0    0    0    0 -0.00000000000E+00 -0.00000000000E+00 -0.45593999997E+02  0.45594000000E+02  0.51100000000E-03 0.  1.
    9900012    2    1    2    0    0 -0.17315213432E+02 -0.39139031036E+02 -0.72071290635E+01  0.47787273324E+02  0.20000010395E+02 0.  0.
         12    1    1    2    0    0  0.17315213432E+02  0.39139031036E+02  0.72071290635E+01  0.43400726676E+02  0.00000000000E+00 0. -1.
         11    1    3    3    0    0  0.33553122777E+01 -0.50376716026E+01  0.87635530742E+00  0.61159017767E+01  0.51100000000E-03 0. -1.
        -11    1    3    3    0    0 -0.62182190697E+01 -0.14705393462E+02  0.58486677694E+00  0.15976761708E+02  0.51100000000E-03 0.  1.
        -12    1    3    3    0    0 -0.14452306640E+02 -0.19395965971E+02 -0.86683511479E+01  0.25694609839E+02  0.00000000000E+00 0.  1.
</event>
<event>
 7    1  0.2599124E-010  0.4778727E+02  0.7816164E-02  0.1312668E+00
        -11   -1    0    0    0    0  0.00000000000E+00  0.00000000000E+00  0.45593999997E+02  0.45594000000E+02  0.51100000000E-03 0. -1.
         11   -1    0    0    0    0 -0.00000000000E+00 -0.00000000000E+00 -0.45593999997E+02  0.45594000000E+02  0.51100000000E-03 0.  1.
    9900012    2    1    2    0    0  0.23154635540E+02  0.15951987132E+02 -0.33060860263E+02  0.47787268188E+02  0.19999986978E+02 0.  0.
         12    1    1    2    0    0 -0.23154635540E+02 -0.15951987132E+02  0.33060860263E+02  0.43400731812E+02  0.00000000000E+00 0. -1.
         11    1    3    3    0    0  0.16697397087E+02  0.71854176413E+01 -0.12978636345E+02  0.22335583668E+02  0.51100000000E-03 0. -1.
        -11    1    3    3    0    0  0.62620787861E+01  0.11340975414E+02 -0.17732529089E+02  0.21960736377E+02  0.51100000000E-03 0.  1.
        -12    1    3    3    0    0  0.19515966679E+00 -0.25744059227E+01 -0.23496948285E+01  0.34909481430E+01  0.00000000000E+00 0.  1.
</event>
<event>
 7    1  0.2599124E-010  0.4778727E+02  0.7816164E-02  0.1312668E+00
        -11   -1    0    0    0    0  0.00000000000E+00  0.00000000000E+00  0.45593999997E+02  0.45594000000E+02  0.51100000000E-03 0. -1.
         11   -1    0    0    0    0 -0.00000000000E+00 -0.00000000000E+00 -0.45593999997E+02  0.45594000000E+02  0.51100000000E-03 0.  1.
    9900012    2    1    2    0    0 -0.28463239884E+02  0.10841635316E+02 -0.30918057997E+02  0.47787269691E+02  0.19999993829E+02 0.  0.
         12    1    1    2    0    0  0.28463239884E+02 -0.10841635316E+02  0.30918057997E+02  0.43400730309E+02  0.00000000000E+00 0. -1.
         11    1    3    3    0    0 -0.43304571253E+01 -0.42273746057E+01 -0.86946140588E+01  0.10593387978E+02  0.51100000000E-03 0. -1.
        -11    1    3    3    0    0 -0.30345289894E+01  0.48742406915E+01 -0.15542052283E+01  0.59482890530E+01  0.51100000000E-03 0.  1.
        -12    1    3    3    0    0 -0.21098253769E+02  0.10194769231E+02 -0.20669238710E+02  0.31245592659E+02  0.00000000000E+00 0.  1.
</event>
<event>
 7    1  0.2599124E-010  0.4778727E+02  0.7816164E-02  0.1312668E+00
        -11   -1    0    0    0    0  0.00000000000E+00  0.00000000000E+00  0.45593999997E+02  0.45594000000E+02  0.51100000000E-03 0.  1.
         11   -1    0    0    0    0 -0.00000000000E+00 -0.00000000000E+00 -0.45593999997E+02  0.45594000000E+02  0.51100000000E-03 0. -1.
    9900012    2    1    2    0    0 -0.38898961409E+02 -0.15094987545E+02  0.11943001071E+02  0.47787272792E+02  0.20000007966E+02 0.  0.
         12    1    1    2    0    0  0.38898961409E+02  0.15094987545E+02 -0.11943001071E+02  0.43400727208E+02  0.00000000000E+00 0. -1.
         11    1    3    3    0    0 -0.11031556734E+02 -0.79020837915E+01 -0.40117852944E+01  0.14150356665E+02  0.51100000000E-03 0. -1.
        -11    1    3    3    0    0 -0.98488684963E+01 -0.46263611429E+01  0.91120063019E+01  0.14192677238E+02  0.51100000000E-03 0.  1.
        -12    1    3    3    0    0 -0.18018536178E+02 -0.25665426103E+01  0.68427800630E+01  0.19444238889E+02  0.00000000000E+00 0.  1.
</event>
<event>
 7    1  0.2599124E-010  0.4778727E+02  0.7816164E-02  0.1312668E+00
        -11   -1    0    0    0    0  0.00000000000E+00  0.00000000000E+00  0.45593999997E+02  0.45594000000E+02  0.51100000000E-03 0.  1.
         11   -1    0    0    0    0 -0.00000000000E+00 -0.00000000000E+00 -0.45593999997E+02  0.45594000000E+02  0.51100000000E-03 0. -1.
    9900012    2    1    2    0    0 -0.41249393544E+02  0.13466291382E+02 -0.87753453245E+00  0.47787267999E+02  0.19999986115E+02 0.  0.
         12    1    1    2    0    0  0.41249393544E+02 -0.13466291382E+02  0.87753453245E+00  0.43400732001E+02  0.00000000000E+00 0. -1.
         11    1    3    3    0    0 -0.14418785238E+02 -0.24182052325E+01 -0.59417409152E+01  0.15781424829E+02  0.51100000000E-03 0. -1.
        -11    1    3    3    0    0 -0.89420071149E+00  0.60673863451E+00  0.12676855265E+01  0.16657591478E+01  0.51100000000E-03 0.  1.
        -12    1    3    3    0    0 -0.25936407595E+02  0.15277757980E+02  0.37965208562E+01  0.30340084022E+02  0.00000000000E+00 0.  1.
</event>
<event>
 7    1  0.2599124E-010  0.4778727E+02  0.7816164E-02  0.1312668E+00
        -11   -1    0    0    0    0  0.00000000000E+00  0.00000000000E+00  0.45593999997E+02  0.45594000000E+02  0.51100000000E-03 0.  1.
         11   -1    0    0    0    0 -0.00000000000E+00 -0.00000000000E+00 -0.45593999997E+02  0.45594000000E+02  0.51100000000E-03 0. -1.
    9900012    2    1    2    0    0  0.58055437789E+01  0.27713970910E+02  0.32891561581E+02  0.47787270220E+02  0.19999996241E+02 0.  0.
         12    1    1    2    0    0 -0.58055437789E+01 -0.27713970910E+02 -0.32891561581E+02  0.43400729780E+02  0.00000000000E+00 0. -1.
         11    1    3    3    0    0  0.10078754078E+01  0.65520545817E+01  0.15563283793E+01  0.68093604960E+01  0.51100000000E-03 0. -1.
        -11    1    3    3    0    0  0.84733568323E+01  0.11825522579E+02  0.25534475139E+02  0.29387925772E+02  0.51100000000E-03 0.  1.
        -12    1    3    3    0    0 -0.36756884612E+01  0.93363937492E+01  0.58007580626E+01  0.11589983952E+02  0.00000000000E+00 0.  1.
</event>
<event>
 7    1  0.2599124E-010  0.4778728E+02  0.7816164E-02  0.1312668E+00
        -11   -1    0    0    0    0  0.00000000000E+00  0.00000000000E+00  0.45593999997E+02  0.45594000000E+02  0.51100000000E-03 0.  1.
         11   -1    0    0    0    0 -0.00000000000E+00 -0.00000000000E+00 -0.45593999997E+02  0.45594000000E+02  0.51100000000E-03 0. -1.
    9900012    2    1    2    0    0  0.37003100336E+02 -0.22191931534E+02  0.46809189081E+01  0.47787282708E+02  0.20000053178E+02 0.  0.
         12    1    1    2    0    0 -0.37003100336E+02  0.22191931534E+02 -0.46809189081E+01  0.43400717292E+02  0.00000000000E+00 0. -1.
         11    1    3    3    0    0  0.21983432933E+02 -0.18743284797E+02  0.90267101106E+01  0.30266541662E+02  0.51100000000E-03 0. -1.
        -11    1    3    3    0    0  0.48927337710E+01  0.42033460277E+00  0.15893497995E+01  0.51615460841E+01  0.51100000000E-03 0.  1.
         12    1    3    3    0    0  0.10126933632E+02 -0.38689813393E+01 -0.59351410020E+01  0.12359194962E+02  0.00000000000E+00 0. -1.
</event>
<event>
 7    1  0.3623467E-010  0.4778728E+02  0.7816164E-02  0.1312668E+00
        -11   -1    0    0    0    0  0.00000000000E+00  0.00000000000E+00  0.45593999997E+02  0.45594000000E+02  0.51100000000E-03 0.  1.
         11   -1    0    0    0    0 -0.00000000000E+00 -0.00000000000E+00 -0.45593999997E+02  0.45594000000E+02  0.51100000000E-03 0. -1.
    9900012    2    1    2    0    0  0.83732841647E+00 -0.40366876283E+02  0.15919705464E+02  0.47787276022E+02  0.20000022696E+02 0.  0.
         12    1    1    2    0    0 -0.83732841647E+00  0.40366876283E+02 -0.15919705464E+02  0.43400723978E+02  0.00000000000E+00 0. -1.
         11    1    3    3    0    0  0.25671181654E+01 -0.92133881696E+00  0.35666583285E+01  0.44899902878E+01  0.51100000000E-03 0. -1.
        -11    1    3    3    0    0 -0.58681775788E+01 -0.12299583783E+02  0.70014025994E+01  0.15321060928E+02  0.51100000000E-03 0.  1.
        -12    1    3    3    0    0  0.41383878298E+01 -0.27145953683E+02  0.53516445360E+01  0.27976224807E+02  0.00000000000E+00 0.  1.
</event>
<event>
 7    1  0.2676536E-010  0.4778727E+02  0.7816164E-02  0.1312668E+00
        -11   -1    0    0    0    0  0.00000000000E+00  0.00000000000E+00  0.45593999997E+02  0.45594000000E+02  0.51100000000E-03 0.  1.
         11   -1    0    0    0    0 -0.00000000000E+00 -0.00000000000E+00 -0.45593999997E+02  0.45594000000E+02  0.51100000000E-03 0. -1.
    9900012    2    1    2    0    0 -0.33180003240E+02  0.24917755198E+02  0.12720697565E+02  0.47787270909E+02  0.19999999382E+02 0.  0.
         12    1    1    2    0    0  0.33180003240E+02 -0.24917755198E+02 -0.12720697565E+02  0.43400729091E+02  0.00000000000E+00 0. -1.
         11    1    3    3    0    0 -0.36716511914E+01 -0.23104539384E+01 -0.48639808426E+00  0.43652953200E+01  0.51100000000E-03 0. -1.
        -11    1    3    3    0    0 -0.84237234482E+01  0.69505100631E+01  0.83969963799E+01  0.13776002879E+02  0.51100000000E-03 0.  1.
        -12    1    3    3    0    0 -0.21084628600E+02  0.20277699073E+02  0.48100992690E+01  0.29645972710E+02  0.00000000000E+00 0.  1.
</event>
<event>
 7    1  0.2599124E-010  0.4778727E+02  0.7816164E-02  0.1312668E+00
        -11   -1    0    0    0    0  0.00000000000E+00  0.00000000000E+00  0.45593999997E+02  0.45594000000E+02  0.51100000000E-03 0. -1.
         11   -1    0    0    0    0 -0.00000000000E+00 -0.00000000000E+00 -0.45593999997E+02  0.45594000000E+02  0.51100000000E-03 0.  1.
    9900012    2    1    2    0    0  0.25243022437E+02 -0.35289707821E+02  0.10247013988E+01  0.47787266449E+02  0.19999979046E+02 0.  0.
         12    1    1    2    0    0 -0.25243022437E+02  0.35289707821E+02 -0.10247013988E+01  0.43400733551E+02  0.00000000000E+00 0. -1.
         11    1    3    3    0    0  0.10461766204E+02 -0.70268699876E+01  0.78840669056E+01  0.14865529428E+02  0.51100000000E-03 0. -1.
        -11    1    3    3    0    0  0.12532805863E+01 -0.59044293710E+01 -0.72873126482E+00  0.60798065711E+01  0.51100000000E-03 0.  1.
         12    1    3    3    0    0  0.13527975646E+02 -0.22358408462E+02 -0.61306342420E+01  0.26841930450E+02  0.00000000000E+00 0. -1.
</event>
<event>
 7    1  0.2599124E-010  0.4778727E+02  0.7816164E-02  0.1312668E+00
        -11   -1    0    0    0    0  0.00000000000E+00  0.00000000000E+00  0.45593999997E+02  0.45594000000E+02  0.51100000000E-03 0.  1.
         11   -1    0    0    0    0 -0.00000000000E+00 -0.00000000000E+00 -0.45593999997E+02  0.45594000000E+02  0.51100000000E-03 0. -1.
    9900012    2    1    2    0    0  0.19712934167E+02 -0.97917280351E+01  0.37405152296E+02  0.47787272705E+02  0.20000007571E+02 0.  0.
         12    1    1    2    0    0 -0.19712934167E+02  0.97917280351E+01 -0.37405152296E+02  0.43400727295E+02  0.00000000000E+00 0. -1.
         11    1    3    3    0    0 -0.15746627379E+01  0.20509286593E+01  0.21814035950E+01  0.33829562529E+01  0.51100000000E-03 0. -1.
        -11    1    3    3    0    0  0.65783768865E+01 -0.51652092275E+01  0.40479997635E+01  0.92919713285E+01  0.51100000000E-03 0.  1.
        -12    1    3    3    0    0  0.14709220019E+02 -0.66774474670E+01  0.31175748938E+02  0.35112345124E+02  0.00000000000E+00 0.  1.
</event>
<event>
 7    1  0.2599124E-010  0.4778727E+02  0.7816164E-02  0.1312668E+00
        -11   -1    0    0    0    0  0.00000000000E+00  0.00000000000E+00  0.45593999997E+02  0.45594000000E+02  0.51100000000E-03 0.  1.
         11   -1    0    0    0    0 -0.00000000000E+00 -0.00000000000E+00 -0.45593999997E+02  0.45594000000E+02  0.51100000000E-03 0. -1.
    9900012    2    1    2    0    0 -0.14090699071E+02 -0.39607134318E+02 -0.10786579377E+02  0.47787272082E+02  0.20000004730E+02 0.  0.
         12    1    1    2    0    0  0.14090699071E+02  0.39607134318E+02  0.10786579377E+02  0.43400727918E+02  0.00000000000E+00 0. -1.
         11    1    3    3    0    0  0.11002782689E+01 -0.17227520261E+02 -0.70357105901E+01  0.18641332849E+02  0.51100000000E-03 0. -1.
        -11    1    3    3    0    0  0.14014484020E+01 -0.77189814837E+00 -0.64883192915E+00  0.17265188990E+01  0.51100000000E-03 0.  1.
        -12    1    3    3    0    0 -0.16592425742E+02 -0.21607715909E+02 -0.31020368574E+01  0.27419420334E+02  0.00000000000E+00 0.  1.
</event>
<event>
 7    1  0.2599124E-010  0.4778727E+02  0.7816164E-02  0.1312668E+00
        -11   -1    0    0    0    0  0.00000000000E+00  0.00000000000E+00  0.45593999997E+02  0.45594000000E+02  0.51100000000E-03 0. -1.
         11   -1    0    0    0    0 -0.00000000000E+00 -0.00000000000E+00 -0.45593999997E+02  0.45594000000E+02  0.51100000000E-03 0.  1.
    9900012    2    1    2    0    0  0.38196625535E+02 -0.17540333865E+02 -0.10815634308E+02  0.47787268902E+02  0.19999990233E+02 0.  0.
         12    1    1    2    0    0 -0.38196625535E+02  0.17540333865E+02  0.10815634308E+02  0.43400731098E+02  0.00000000000E+00 0. -1.
         11    1    3    3    0    0  0.16805649115E+02 -0.90628519430E+01  0.76431624963E+00  0.19108880320E+02  0.51100000000E-03 0. -1.
        -11    1    3    3    0    0  0.16723387880E+02 -0.35307792244E+01 -0.24093521007E+01  0.17261027835E+02  0.51100000000E-03 0.  1.
        -12    1    3    3    0    0  0.46675885399E+01 -0.49467026974E+01 -0.91705984572E+01  0.11417360747E+02  0.00000000000E+00 0.  1.
</event>
<event>
 7    1  0.2599124E-010  0.4778727E+02  0.7816164E-02  0.1312668E+00
        -11   -1    0    0    0    0  0.00000000000E+00  0.00000000000E+00  0.45593999997E+02  0.45594000000E+02  0.51100000000E-03 0.  1.
         11   -1    0    0    0    0 -0.00000000000E+00 -0.00000000000E+00 -0.45593999997E+02  0.45594000000E+02  0.51100000000E-03 0. -1.
    9900012    2    1    2    0    0 -0.92179864800E+01  0.26257820374E+02  0.33304337726E+02  0.47787270549E+02  0.19999997740E+02 0.  0.
         12    1    1    2    0    0  0.92179864800E+01 -0.26257820374E+02 -0.33304337726E+02  0.43400729451E+02  0.00000000000E+00 0. -1.
         11    1    3    3    0    0 -0.54341124176E+01  0.13822012261E+02  0.19056449097E+02  0.24160419142E+02  0.51100000000E-03 0.  1.
        -11    1    3    3    0    0 -0.73122479199E+01  0.10246908527E+02  0.51028831041E+01  0.13583354528E+02  0.51100000000E-03 0. -1.
         12    1    3    3    0    0  0.35283738575E+01  0.21888995854E+01  0.91450055256E+01  0.10043496878E+02  0.00000000000E+00 0. -1.
</event>
<event>
 7    1  0.2599124E-010  0.4778726E+02  0.7816164E-02  0.1312668E+00
        -11   -1    0    0    0    0  0.00000000000E+00  0.00000000000E+00  0.45593999997E+02  0.45594000000E+02  0.51100000000E-03 0. -1.
         11   -1    0    0    0    0 -0.00000000000E+00 -0.00000000000E+00 -0.45593999997E+02  0.45594000000E+02  0.51100000000E-03 0.  1.
    9900012    2    1    2    0    0  0.92900169647E+01 -0.41484183185E+02 -0.87396956235E+01  0.47787260959E+02  0.19999954016E+02 0.  0.
         12    1    1    2    0    0 -0.92900169647E+01  0.41484183185E+02  0.87396956235E+01  0.43400739041E+02  0.00000000000E+00 0. -1.
         11    1    3    3    0    0  0.66135008331E+00 -0.10857794992E+02  0.22024920701E+01  0.11098651612E+02  0.51100000000E-03 0. -1.
        -11    1    3    3    0    0  0.36491714791E+01 -0.26107912528E+02 -0.33931087616E+01  0.26579178625E+02  0.51100000000E-03 0.  1.
        -12    1    3    3    0    0  0.49794954023E+01 -0.45184756646E+01 -0.75490789320E+01  0.10109430722E+02  0.00000000000E+00 0.  1.
</event>
<event>
 7    1  0.2599124E-010  0.4778727E+02  0.7816164E-02  0.1312668E+00
        -11   -1    0    0    0    0  0.00000000000E+00  0.00000000000E+00  0.45593999997E+02  0.45594000000E+02  0.51100000000E-03 0.  1.
         11   -1    0    0    0    0 -0.00000000000E+00 -0.00000000000E+00 -0.45593999997E+02  0.45594000000E+02  0.51100000000E-03 0. -1.
    9900012    2    1    2    0    0 -0.21969481558E+02 -0.65127876275E+01  0.36858495041E+02  0.47787272135E+02  0.20000004971E+02 0.  0.
         12    1    1    2    0    0  0.21969481558E+02  0.65127876275E+01 -0.36858495041E+02  0.43400727865E+02  0.00000000000E+00 0. -1.
         11    1    3    3    0    0 -0.17093646975E+02 -0.57139540250E+01  0.20222357725E+02  0.27088480757E+02  0.51100000000E-03 0. -1.
        -11    1    3    3    0    0 -0.78451126387E+01 -0.26097499961E+01  0.14270621837E+02  0.16492641851E+02  0.51100000000E-03 0.  1.
         12    1    3    3    0    0  0.29692780562E+01  0.18109163936E+01  0.23655154789E+01  0.42061495266E+01  0.00000000000E+00 0. -1.
</event>
<event>
 7    1  0.2599124E-010  0.4778727E+02  0.7816164E-02  0.1312668E+00
        -11   -1    0    0    0    0  0.00000000000E+00  0.00000000000E+00  0.45593999997E+02  0.45594000000E+02  0.51100000000E-03 0.  1.
         11   -1    0    0    0    0 -0.00000000000E+00 -0.00000000000E+00 -0.45593999997E+02  0.45594000000E+02  0.51100000000E-03 0. -1.
    9900012    2    1    2    0    0 -0.34915928810E+02  0.25403740980E+02 -0.43762460255E+01  0.47787266484E+02  0.19999979208E+02 0.  0.
         12    1    1    2    0    0  0.34915928810E+02 -0.25403740980E+02  0.43762460255E+01  0.43400733516E+02  0.00000000000E+00 0. -1.
         11    1    3    3    0    0 -0.16679574658E+02  0.15982172772E+02  0.34959982028E+01  0.23363648280E+02  0.51100000000E-03 0.  1.
        -11    1    3    3    0    0 -0.93535075452E+01  0.43117740873E+01  0.16546978416E+01  0.10431563851E+02  0.51100000000E-03 0. -1.
         12    1    3    3    0    0 -0.88828466064E+01  0.51097941213E+01 -0.95269420699E+01  0.13992054352E+02  0.00000000000E+00 0. -1.
</event>
<event>
 7    1  0.2599124E-010  0.4778727E+02  0.7816164E-02  0.1312668E+00
        -11   -1    0    0    0    0  0.00000000000E+00  0.00000000000E+00  0.45593999997E+02  0.45594000000E+02  0.51100000000E-03 0.  1.
         11   -1    0    0    0    0 -0.00000000000E+00 -0.00000000000E+00 -0.45593999997E+02  0.45594000000E+02  0.51100000000E-03 0. -1.
    9900012    2    1    2    0    0 -0.42124006842E+01 -0.21678846802E+02  0.37361832636E+02  0.47787271249E+02  0.20000000934E+02 0.  0.
         12    1    1    2    0    0  0.42124006842E+01  0.21678846802E+02 -0.37361832636E+02  0.43400728751E+02  0.00000000000E+00 0. -1.
         11    1    3    3    0    0 -0.50774517364E+01 -0.47061001079E+01  0.15322575325E+02  0.16813958760E+02  0.51100000000E-03 0. -1.
        -11    1    3    3    0    0 -0.11177939540E+01 -0.77392914076E+01  0.19770394339E+02  0.21260634690E+02  0.51100000000E-03 0.  1.
         12    1    3    3    0    0  0.19828450062E+01 -0.92334552862E+01  0.22688629722E+01  0.97126777990E+01  0.00000000000E+00 0. -1.
</event>
<event>
 7    1  0.2599124E-010  0.4778727E+02  0.7816164E-02  0.1312668E+00
        -11   -1    0    0    0    0  0.00000000000E+00  0.00000000000E+00  0.45593999997E+02  0.45594000000E+02  0.51100000000E-03 0.  1.
         11   -1    0    0    0    0 -0.00000000000E+00 -0.00000000000E+00 -0.45593999997E+02  0.45594000000E+02  0.51100000000E-03 0. -1.
    9900012    2    1    2    0    0  0.15722110741E+02 -0.53690770814E+01  0.40095033224E+02  0.47787269084E+02  0.19999991060E+02 0.  0.
         12    1    1    2    0    0 -0.15722110741E+02  0.53690770814E+01 -0.40095033224E+02  0.43400730916E+02  0.00000000000E+00 0. -1.
         11    1    3    3    0    0  0.28381585435E+01  0.30535252157E+01  0.40786118579E+01  0.58321724177E+01  0.51100000000E-03 0. -1.
        -11    1    3    3    0    0  0.11326875704E+02 -0.12085069316E+02  0.22996566889E+02  0.28340591076E+02  0.51100000000E-03 0.  1.
        -12    1    3    3    0    0  0.15570764932E+01  0.36624670185E+01  0.13019854476E+02  0.13614505590E+02  0.00000000000E+00 0.  1.
</event>
<event>
 7    1  0.2599124E-010  0.4778723E+02  0.7816164E-02  0.1312668E+00
        -11   -1    0    0    0    0  0.00000000000E+00  0.00000000000E+00  0.45593999997E+02  0.45594000000E+02  0.51100000000E-03 0. -1.
         11   -1    0    0    0    0 -0.00000000000E+00 -0.00000000000E+00 -0.45593999997E+02  0.45594000000E+02  0.51100000000E-03 0.  1.
    9900012    2    1    2    0    0  0.32184357701E+02  0.23766877464E+02 -0.16820504449E+02  0.47787231401E+02  0.19999819251E+02 0.  0.
         12    1    1    2    0    0 -0.32184357701E+02 -0.23766877464E+02  0.16820504449E+02  0.43400768599E+02  0.00000000000E+00 0. -1.
         11    1    3    3    0    0  0.81186720068E+01  0.10796667631E+01 -0.46347159261E+01  0.94105848623E+01  0.51100000000E-03 0. -1.
        -11    1    3    3    0    0  0.18231920004E+02  0.12307777135E+02 -0.14364945751E+02  0.26272341953E+02  0.51100000000E-03 0.  1.
         12    1    3    3    0    0  0.58337656902E+01  0.10379433566E+02  0.21791572276E+01  0.12104304586E+02  0.00000000000E+00 0. -1.
</event>
<event>
 7    1  0.2599124E-010  0.4778728E+02  0.7816164E-02  0.1312668E+00
        -11   -1    0    0    0    0  0.00000000000E+00  0.00000000000E+00  0.45593999997E+02  0.45594000000E+02  0.51100000000E-03 0.  1.
         11   -1    0    0    0    0 -0.00000000000E+00 -0.00000000000E+00 -0.45593999997E+02  0.45594000000E+02  0.51100000000E-03 0. -1.
    9900012    2    1    2    0    0  0.23695547658E+02  0.34479144504E+02  0.11546951358E+02  0.47787280303E+02  0.20000042216E+02 0.  0.
         12    1    1    2    0    0 -0.23695547658E+02 -0.34479144504E+02 -0.11546951358E+02  0.43400719697E+02  0.00000000000E+00 0. -1.
         11    1    3    3    0    0  0.10764689330E+02  0.19369700975E+02 -0.12650646295E+00  0.22160321667E+02  0.51100000000E-03 0.  1.
        -11    1    3    3    0    0  0.90979282173E+01  0.74414565605E+01  0.80028871743E+00  0.11780833412E+02  0.51100000000E-03 0. -1.
         12    1    3    3    0    0  0.38329301100E+01  0.76679869686E+01  0.10873169104E+02  0.13846125225E+02  0.00000000000E+00 0. -1.
</event>
<event>
 7    1  0.2599124E-010  0.4778726E+02  0.7816164E-02  0.1312668E+00
        -11   -1    0    0    0    0  0.00000000000E+00  0.00000000000E+00  0.45593999997E+02  0.45594000000E+02  0.51100000000E-03 0.  1.
         11   -1    0    0    0    0 -0.00000000000E+00 -0.00000000000E+00 -0.45593999997E+02  0.45594000000E+02  0.51100000000E-03 0. -1.
    9900012    2    1    2    0    0 -0.57193017825E+01 -0.32858507438E+02  0.27771071403E+02  0.47787258868E+02  0.19999944482E+02 0.  0.
         12    1    1    2    0    0  0.57193017825E+01  0.32858507438E+02 -0.27771071403E+02  0.43400741132E+02  0.00000000000E+00 0. -1.
         11    1    3    3    0    0 -0.19683722326E+01 -0.26500825180E+02  0.17973190512E+02  0.32081206366E+02  0.51100000000E-03 0. -1.
        -11    1    3    3    0    0  0.19804585154E+01 -0.59348990443E+01  0.34562468539E+01  0.71477888311E+01  0.51100000000E-03 0.  1.
        -12    1    3    3    0    0 -0.57313880653E+01 -0.42278321419E+00  0.63416340366E+01  0.85582636706E+01  0.00000000000E+00 0.  1.
</event>
<event>
 7    1  0.2599124E-010  0.4778726E+02  0.7816164E-02  0.1312668E+00
        -11   -1    0    0    0    0  0.00000000000E+00  0.00000000000E+00  0.45593999997E+02  0.45594000000E+02  0.51100000000E-03 0.  1.
         11   -1    0    0    0    0 -0.00000000000E+00 -0.00000000000E+00 -0.45593999997E+02  0.45594000000E+02  0.51100000000E-03 0. -1.
    9900012    2    1    2    0    0 -0.21224165697E+02 -0.34299130599E+02 -0.16022741943E+02  0.47787264652E+02  0.19999970853E+02 0.  0.
         12    1    1    2    0    0  0.21224165697E+02  0.34299130599E+02  0.16022741943E+02  0.43400735348E+02  0.00000000000E+00 0. -1.
         11    1    3    3    0    0  0.92552800805E+00 -0.58838320591E+01  0.21371974614E+01  0.63280087740E+01  0.51100000000E-03 0. -1.
        -11    1    3    3    0    0 -0.11617494667E+01 -0.71259089017E+01 -0.20793168928E+01  0.75134411890E+01  0.51100000000E-03 0.  1.
        -12    1    3    3    0    0 -0.20987944239E+02 -0.21289389638E+02 -0.16080622511E+02  0.33945814689E+02  0.00000000000E+00 0.  1.
</event>
<event>
 7    1  0.2599124E-010  0.4778728E+02  0.7816164E-02  0.1312668E+00
        -11   -1    0    0    0    0  0.00000000000E+00  0.00000000000E+00  0.45593999997E+02  0.45594000000E+02  0.51100000000E-03 0.  1.
         11   -1    0    0    0    0 -0.00000000000E+00 -0.00000000000E+00 -0.45593999997E+02  0.45594000000E+02  0.51100000000E-03 0. -1.
    9900012    2    1    2    0    0  0.80977671812E+01  0.42217144922E+02  0.59801003445E+01  0.47787276978E+02  0.20000027053E+02 0.  0.
         12    1    1    2    0    0 -0.80977671812E+01 -0.42217144922E+02 -0.59801003445E+01  0.43400723022E+02  0.00000000000E+00 0. -1.
         11    1    3    3    0    0  0.12973446234E+02  0.29941721386E+02  0.86957146120E+01  0.33770289303E+02  0.51100000000E-03 0. -1.
        -11    1    3    3    0    0 -0.29417627111E+01  0.11054593940E+02 -0.19441068192E+01  0.11603342907E+02  0.51100000000E-03 0.  1.
        -12    1    3    3    0    0 -0.19339163422E+01  0.12208295966E+01 -0.77150744836E+00  0.24136447679E+01  0.00000000000E+00 0.  1.
</event>
<event>
 7    1  0.2599124E-010  0.4778728E+02  0.7816164E-02  0.1312668E+00
        -11   -1    0    0    0    0  0.00000000000E+00  0.00000000000E+00  0.45593999997E+02  0.45594000000E+02  0.51100000000E-03 0.  1.
         11   -1    0    0    0    0 -0.00000000000E+00 -0.00000000000E+00 -0.45593999997E+02  0.45594000000E+02  0.51100000000E-03 0. -1.
    9900012    2    1    2    0    0  0.35778292095E+02 -0.24173093643E+02  0.43815657895E+01  0.47787276962E+02  0.20000026978E+02 0.  0.
         12    1    1    2    0    0 -0.35778292095E+02  0.24173093643E+02 -0.43815657895E+01  0.43400723038E+02  0.00000000000E+00 0. -1.
         11    1    3    3    0    0  0.26201403596E+02 -0.23819913767E+02 -0.97786958100E+00  0.35423975941E+02  0.51100000000E-03 0. -1.
        -11    1    3    3    0    0  0.38273912634E+01 -0.25988623363E+01  0.81319451322E+00  0.46972646193E+01  0.51100000000E-03 0.  1.
         12    1    3    3    0    0  0.57494972354E+01  0.22456824607E+01  0.45462408573E+01  0.76660364013E+01  0.00000000000E+00 0. -1.
</event>
<event>
 7    1  0.2599124E-010  0.4778728E+02  0.7816164E-02  0.1312668E+00
        -11   -1    0    0    0    0  0.00000000000E+00  0.00000000000E+00  0.45593999997E+02  0.45594000000E+02  0.51100000000E-03 0.  1.
         11   -1    0    0    0    0 -0.00000000000E+00 -0.00000000000E+00 -0.45593999997E+02  0.45594000000E+02  0.51100000000E-03 0. -1.
    9900012    2    1    2    0    0 -0.34189955475E+02 -0.99196106278E+01  0.24824809346E+02  0.47787275473E+02  0.20000020191E+02 0.  0.
         12    1    1    2    0    0  0.34189955475E+02  0.99196106278E+01 -0.24824809346E+02  0.43400724527E+02  0.00000000000E+00 0. -1.
         11    1    3    3    0    0 -0.15944572735E+02 -0.60141407585E+00  0.12668586325E+02  0.20373614758E+02  0.51100000000E-03 0. -1.
        -11    1    3    3    0    0 -0.17243679444E+02 -0.28025306092E+01  0.62248310636E+01  0.18545813021E+02  0.51100000000E-03 0.  1.
         12    1    3    3    0    0 -0.10017032971E+01 -0.65156659428E+01  0.59313919568E+01  0.88678476937E+01  0.00000000000E+00 0. -1.
</event>
<event>
 7    1  0.2599124E-010  0.4778727E+02  0.7816164E-02  0.1312668E+00
        -11   -1    0    0    0    0  0.00000000000E+00  0.00000000000E+00  0.45593999997E+02  0.45594000000E+02  0.51100000000E-03 0.  1.
         11   -1    0    0    0    0 -0.00000000000E+00 -0.00000000000E+00 -0.45593999997E+02  0.45594000000E+02  0.51100000000E-03 0. -1.
    9900012    2    1    2    0    0 -0.36397490492E+02 -0.17128529973E+02  0.16292934155E+02  0.47787267788E+02  0.19999985153E+02 0.  0.
         12    1    1    2    0    0  0.36397490492E+02  0.17128529973E+02 -0.16292934155E+02  0.43400732212E+02  0.00000000000E+00 0. -1.
         11    1    3    3    0    0 -0.48910589882E+01 -0.18477796871E+01 -0.39644342750E+01  0.65615156161E+01  0.51100000000E-03 0. -1.
        -11    1    3    3    0    0 -0.23171436792E+02 -0.10851659943E+02  0.10520817693E+02  0.27665169649E+02  0.51100000000E-03 0.  1.
        -12    1    3    3    0    0 -0.83349947118E+01 -0.44290903431E+01  0.97365507366E+01  0.13560582523E+02  0.00000000000E+00 0.  1.
</event>
<event>
 7    1  0.2599124E-010  0.4778727E+02  0.7816164E-02  0.1312668E+00
        -11   -1    0    0    0    0  0.00000000000E+00  0.00000000000E+00  0.45593999997E+02  0.45594000000E+02  0.51100000000E-03 0. -1.
         11   -1    0    0    0    0 -0.00000000000E+00 -0.00000000000E+00 -0.45593999997E+02  0.45594000000E+02  0.51100000000E-03 0.  1.
    9900012    2    1    2    0    0 -0.32386450392E+02  0.25929012565E+02 -0.12744703912E+02  0.47787270290E+02  0.19999996560E+02 0.  0.
         12    1    1    2    0    0  0.32386450392E+02 -0.25929012565E+02  0.12744703912E+02  0.43400729710E+02  0.00000000000E+00 0. -1.
         11    1    3    3    0    0 -0.11180842716E+02  0.12241371560E+02 -0.14408309951E+02  0.21965013486E+02  0.51100000000E-03 0. -1.
        -11    1    3    3    0    0 -0.74941187849E+01  0.69416523887E+01 -0.11656923455E+01  0.10281400350E+02  0.51100000000E-03 0.  1.
         12    1    3    3    0    0 -0.13711488890E+02  0.67459886159E+01  0.28292983841E+01  0.15540856455E+02  0.00000000000E+00 0. -1.
</event>
<event>
 7    1  0.2599124E-010  0.4778727E+02  0.7816164E-02  0.1312668E+00
        -11   -1    0    0    0    0  0.00000000000E+00  0.00000000000E+00  0.45593999997E+02  0.45594000000E+02  0.51100000000E-03 0.  1.
         11   -1    0    0    0    0 -0.00000000000E+00 -0.00000000000E+00 -0.45593999997E+02  0.45594000000E+02  0.51100000000E-03 0. -1.
    9900012    2    1    2    0    0 -0.69107673028E+01 -0.36549370496E+02  0.22360861617E+02  0.47787270506E+02  0.19999997546E+02 0.  0.
         12    1    1    2    0    0  0.69107673028E+01  0.36549370496E+02 -0.22360861617E+02  0.43400729494E+02  0.00000000000E+00 0. -1.
         11    1    3    3    0    0 -0.55097179896E+01 -0.26363351356E+01  0.17990508154E+00  0.61106154658E+01  0.51100000000E-03 0. -1.
        -11    1    3    3    0    0 -0.73874661515E-01 -0.19466249054E+01  0.49897838504E+01  0.53565613152E+01  0.51100000000E-03 0.  1.
        -12    1    3    3    0    0 -0.13271746517E+01 -0.31966410455E+02  0.17191172685E+02  0.36320093725E+02  0.00000000000E+00 0.  1.
</event>
<event>
 7    1  0.2599124E-010  0.4778727E+02  0.7816164E-02  0.1312668E+00
        -11   -1    0    0    0    0  0.00000000000E+00  0.00000000000E+00  0.45593999997E+02  0.45594000000E+02  0.51100000000E-03 0.  1.
         11   -1    0    0    0    0 -0.00000000000E+00 -0.00000000000E+00 -0.45593999997E+02  0.45594000000E+02  0.51100000000E-03 0. -1.
    9900012    2    1    2    0    0 -0.24415011556E+02 -0.91508952463E+01  0.34695699769E+02  0.47787271255E+02  0.20000000961E+02 0.  0.
         12    1    1    2    0    0  0.24415011556E+02  0.91508952463E+01 -0.34695699769E+02  0.43400728745E+02  0.00000000000E+00 0. -1.
         11    1    3    3    0    0 -0.13402352706E+02 -0.71256579979E+01  0.11797449731E+02  0.19224408453E+02  0.51100000000E-03 0. -1.
        -11    1    3    3    0    0 -0.84605057928E+01 -0.72705107822E+01  0.16353210873E+02  0.19795655872E+02  0.51100000000E-03 0.  1.
        -12    1    3    3    0    0 -0.25521530574E+01  0.52452735338E+01  0.65450391656E+01  0.87672069299E+01  0.00000000000E+00 0.  1.
</event>
<event>
 7    1  0.2599124E-010  0.4778726E+02  0.7816164E-02  0.1312668E+00
        -11   -1    0    0    0    0  0.00000000000E+00  0.00000000000E+00  0.45593999997E+02  0.45594000000E+02  0.51100000000E-03 0.  1.
         11   -1    0    0    0    0 -0.00000000000E+00 -0.00000000000E+00 -0.45593999997E+02  0.45594000000E+02  0.51100000000E-03 0. -1.
    9900012    2    1    2    0    0  0.26690796610E+02 -0.19112746140E+02  0.28388873437E+02  0.47787264710E+02  0.19999971121E+02 0.  0.
         12    1    1    2    0    0 -0.26690796610E+02  0.19112746140E+02 -0.28388873437E+02  0.43400735290E+02  0.00000000000E+00 0. -1.
         11    1    3    3    0    0  0.24927498958E+02 -0.15745808644E+02  0.19582165440E+02  0.35394517905E+02  0.51100000000E-03 0. -1.
        -11    1    3    3    0    0  0.24646017810E+01 -0.57280202697E+01  0.66850892066E+01  0.91419306555E+01  0.51100000000E-03 0.  1.
         12    1    3    3    0    0 -0.70130412924E+00  0.23610827742E+01  0.21216187903E+01  0.32508161497E+01  0.00000000000E+00 0. -1.
</event>
<event>
 7    1  0.2599124E-010  0.4778727E+02  0.7816164E-02  0.1312668E+00
        -11   -1    0    0    0    0  0.00000000000E+00  0.00000000000E+00  0.45593999997E+02  0.45594000000E+02  0.51100000000E-03 0.  1.
         11   -1    0    0    0    0 -0.00000000000E+00 -0.00000000000E+00 -0.45593999997E+02  0.45594000000E+02  0.51100000000E-03 0. -1.
    9900012    2    1    2    0    0  0.11042279797E+02  0.12143035427E+02  0.40177581870E+02  0.47787270313E+02  0.19999996664E+02 0.  0.
         12    1    1    2    0    0 -0.11042279797E+02 -0.12143035427E+02 -0.40177581870E+02  0.43400729687E+02  0.00000000000E+00 0. -1.
         11    1    3    3    0    0  0.64989182066E+01  0.63863888404E+01  0.23501407177E+02  0.25205912795E+02  0.51100000000E-03 0.  1.
        -11    1    3    3    0    0  0.60347310948E+01  0.91012113963E+01  0.92897711576E+01  0.14337010731E+02  0.51100000000E-03 0. -1.
         12    1    3    3    0    0 -0.14913695047E+01 -0.33445648096E+01  0.73864035351E+01  0.82443467873E+01  0.00000000000E+00 0. -1.
</event>
<event>
 7    1  0.2615527E-010  0.4778726E+02  0.7816164E-02  0.1312668E+00
        -11   -1    0    0    0    0  0.00000000000E+00  0.00000000000E+00  0.45593999997E+02  0.45594000000E+02  0.51100000000E-03 0. -1.
         11   -1    0    0    0    0 -0.00000000000E+00 -0.00000000000E+00 -0.45593999997E+02  0.45594000000E+02  0.51100000000E-03 0.  1.
    9900012    2    1    2    0    0  0.11035614828E+02 -0.41690991547E+02 -0.48683164289E+01  0.47787261808E+02  0.19999957886E+02 0.  0.
         12    1    1    2    0    0 -0.11035614828E+02  0.41690991547E+02  0.48683164289E+01  0.43400738192E+02  0.00000000000E+00 0. -1.
         11    1    3    3    0    0 -0.22622553866E+01 -0.31886718635E+01  0.21989969711E+01  0.44856455085E+01  0.51100000000E-03 0. -1.
        -11    1    3    3    0    0  0.95848017419E+00 -0.10901753311E+02 -0.71422559952E+01  0.13068233639E+02  0.51100000000E-03 0.  1.
        -12    1    3    3    0    0  0.12339390040E+02 -0.27600566373E+02  0.74942595206E-01  0.30233382660E+02  0.00000000000E+00 0.  1.
</event>
<event>
 7    1  0.2599124E-010  0.4778727E+02  0.7816164E-02  0.1312668E+00
        -11   -1    0    0    0    0  0.00000000000E+00  0.00000000000E+00  0.45593999997E+02  0.45594000000E+02  0.51100000000E-03 0.  1.
         11   -1    0    0    0    0 -0.00000000000E+00 -0.00000000000E+00 -0.45593999997E+02  0.45594000000E+02  0.51100000000E-03 0. -1.
    9900012    2    1    2    0    0 -0.35917321293E+02  0.20189755399E+02  0.13636087744E+02  0.47787273268E+02  0.20000010139E+02 0.  0.
         12    1    1    2    0    0  0.35917321293E+02 -0.20189755399E+02 -0.13636087744E+02  0.43400726732E+02  0.00000000000E+00 0. -1.
         11    1    3    3    0    0 -0.57662291206E+01 -0.85081818078E+00 -0.71550182607E+00  0.58724128748E+01  0.51100000000E-03 0. -1.
        -11    1    3    3    0    0 -0.15314518190E+02  0.23297370568E+01  0.61388843768E+01  0.16662774193E+02  0.51100000000E-03 0.  1.
        -12    1    3    3    0    0 -0.14836573982E+02  0.18710836523E+02  0.82127051932E+01  0.25252086201E+02  0.00000000000E+00 0.  1.
</event>
<event>
 7    1  0.2599124E-010  0.4778730E+02  0.7816164E-02  0.1312668E+00
        -11   -1    0    0    0    0  0.00000000000E+00  0.00000000000E+00  0.45593999997E+02  0.45594000000E+02  0.51100000000E-03 0. -1.
         11   -1    0    0    0    0 -0.00000000000E+00 -0.00000000000E+00 -0.45593999997E+02  0.45594000000E+02  0.51100000000E-03 0.  1.
    9900012    2    1    2    0    0 -0.11029648639E+02  0.40869501395E+02 -0.95734825743E+01  0.47787298831E+02  0.20000126689E+02 0.  0.
         12    1    1    2    0    0  0.11029648639E+02 -0.40869501395E+02  0.95734825743E+01  0.43400701169E+02  0.00000000000E+00 0. -1.
         11    1    3    3    0    0 -0.62673972208E+01  0.63995477095E+01 -0.72789121886E+01  0.11541968711E+02  0.51100000000E-03 0. -1.
        -11    1    3    3    0    0 -0.19105753318E+01  0.15857597627E+02 -0.59863969561E+01  0.17057275555E+02  0.51100000000E-03 0.  1.
        -12    1    3    3    0    0 -0.28516760866E+01  0.18612356059E+02  0.36918265704E+01  0.19188054565E+02  0.00000000000E+00 0.  1.
</event>
<event>
 7    1  0.2599124E-010  0.4778725E+02  0.7816164E-02  0.1312668E+00
        -11   -1    0    0    0    0  0.00000000000E+00  0.00000000000E+00  0.45593999997E+02  0.45594000000E+02  0.51100000000E-03 0.  1.
         11   -1    0    0    0    0 -0.00000000000E+00 -0.00000000000E+00 -0.45593999997E+02  0.45594000000E+02  0.51100000000E-03 0. -1.
    9900012    2    1    2    0    0 -0.12566906848E+02  0.39876180277E+02 -0.11644245916E+02  0.47787246964E+02  0.19999890206E+02 0.  0.
         12    1    1    2    0    0  0.12566906848E+02 -0.39876180277E+02  0.11644245916E+02  0.43400753036E+02  0.00000000000E+00 0. -1.
         11    1    3    3    0    0 -0.66887410373E+01  0.63291814847E+01 -0.25744462349E+01  0.95616718521E+01  0.51100000000E-03 0. -1.
        -11    1    3    3    0    0 -0.58067668759E+01  0.13860619404E+02  0.27297236359E+01  0.15273725911E+02  0.51100000000E-03 0.  1.
         12    1    3    3    0    0 -0.71398934364E-01  0.19686379388E+02 -0.11799523317E+02  0.22951849200E+02  0.00000000000E+00 0. -1.
</event>
<event>
 7    1  0.2599124E-010  0.4778727E+02  0.7816164E-02  0.1312668E+00
        -11   -1    0    0    0    0  0.00000000000E+00  0.00000000000E+00  0.45593999997E+02  0.45594000000E+02  0.51100000000E-03 0.  1.
         11   -1    0    0    0    0 -0.00000000000E+00 -0.00000000000E+00 -0.45593999997E+02  0.45594000000E+02  0.51100000000E-03 0. -1.
    9900012    2    1    2    0    0 -0.20115908418E+02 -0.23729311666E+02  0.30263728964E+02  0.47787270807E+02  0.19999998920E+02 0.  0.
         12    1    1    2    0    0  0.20115908418E+02  0.23729311666E+02 -0.30263728964E+02  0.43400729193E+02  0.00000000000E+00 0. -1.
         11    1    3    3    0    0 -0.89005017365E+01 -0.32511133849E+01  0.14669547977E+02  0.17463799916E+02  0.51100000000E-03 0. -1.
        -11    1    3    3    0    0 -0.76273980686E+01 -0.55666743754E+01  0.10594866161E+02  0.14192119438E+02  0.51100000000E-03 0.  1.
         12    1    3    3    0    0 -0.35880086131E+01 -0.14911523906E+02  0.49993148262E+01  0.16131351454E+02  0.00000000000E+00 0. -1.
</event>
<event>
 7    1  0.2599124E-010  0.4778727E+02  0.7816164E-02  0.1312668E+00
        -11   -1    0    0    0    0  0.00000000000E+00  0.00000000000E+00  0.45593999997E+02  0.45594000000E+02  0.51100000000E-03 0.  1.
         11   -1    0    0    0    0 -0.00000000000E+00 -0.00000000000E+00 -0.45593999997E+02  0.45594000000E+02  0.51100000000E-03 0. -1.
    9900012    2    1    2    0    0 -0.29800844316E+02  0.16752632134E+02  0.26737277413E+02  0.47787274098E+02  0.20000013924E+02 0.  0.
         12    1    1    2    0    0  0.29800844316E+02 -0.16752632134E+02 -0.26737277413E+02  0.43400725902E+02  0.00000000000E+00 0. -1.
         11    1    3    3    0    0 -0.89631914024E+01  0.52419392490E+01  0.90148476111E+00  0.10422542983E+02  0.51100000000E-03 0. -1.
        -11    1    3    3    0    0 -0.17622175925E+02  0.39680382133E+01  0.13492615566E+02  0.22546332000E+02  0.51100000000E-03 0.  1.
        -12    1    3    3    0    0 -0.32154769881E+01  0.75426546713E+01  0.12343177085E+02  0.14818399114E+02  0.00000000000E+00 0.  1.
</event>
<event>
 7    1  0.2599124E-010  0.4778727E+02  0.7816164E-02  0.1312668E+00
        -11   -1    0    0    0    0  0.00000000000E+00  0.00000000000E+00  0.45593999997E+02  0.45594000000E+02  0.51100000000E-03 0. -1.
         11   -1    0    0    0    0 -0.00000000000E+00 -0.00000000000E+00 -0.45593999997E+02  0.45594000000E+02  0.51100000000E-03 0.  1.
    9900012    2    1    2    0    0 -0.20021181149E+02  0.27093594655E+02 -0.27362623487E+02  0.47787265789E+02  0.19999976040E+02 0.  0.
         12    1    1    2    0    0  0.20021181149E+02 -0.27093594655E+02  0.27362623487E+02  0.43400734211E+02  0.00000000000E+00 0. -1.
         11    1    3    3    0    0 -0.33596996700E+01  0.60848643582E+01 -0.18588143444E+01  0.71950223876E+01  0.51100000000E-03 0. -1.
        -11    1    3    3    0    0 -0.17438158827E+02  0.14075143653E+02 -0.12067241768E+02  0.25452256801E+02  0.51100000000E-03 0.  1.
         12    1    3    3    0    0  0.77667734795E+00  0.69335866443E+01 -0.13436567375E+02  0.15139986601E+02  0.00000000000E+00 0. -1.
</event>
<event>
 7    1  0.2599124E-010  0.4778727E+02  0.7816164E-02  0.1312668E+00
        -11   -1    0    0    0    0  0.00000000000E+00  0.00000000000E+00  0.45593999997E+02  0.45594000000E+02  0.51100000000E-03 0. -1.
         11   -1    0    0    0    0 -0.00000000000E+00 -0.00000000000E+00 -0.45593999997E+02  0.45594000000E+02  0.51100000000E-03 0.  1.
    9900012    2    1    2    0    0 -0.69297386623E+01  0.33258008504E+02 -0.27009386622E+02  0.47787269899E+02  0.19999994779E+02 0.  0.
         12    1    1    2    0    0  0.69297386623E+01 -0.33258008504E+02  0.27009386622E+02  0.43400730101E+02  0.00000000000E+00 0. -1.
         11    1    3    3    0    0  0.25262257301E+01  0.13915568068E+02 -0.15962445022E+02  0.21326614885E+02  0.51100000000E-03 0. -1.
        -11    1    3    3    0    0  0.13682169403E+01  0.22441846418E+01  0.11102264361E+01  0.28532411925E+01  0.51100000000E-03 0.  1.
        -12    1    3    3    0    0 -0.10824181333E+02  0.17098255794E+02 -0.12157168036E+02  0.23607413822E+02  0.00000000000E+00 0.  1.
</event>
<event>
 7    1  0.2599124E-010  0.4778727E+02  0.7816164E-02  0.1312668E+00
        -11   -1    0    0    0    0  0.00000000000E+00  0.00000000000E+00  0.45593999997E+02  0.45594000000E+02  0.51100000000E-03 0.  1.
         11   -1    0    0    0    0 -0.00000000000E+00 -0.00000000000E+00 -0.45593999997E+02  0.45594000000E+02  0.51100000000E-03 0. -1.
    9900012    2    1    2    0    0  0.92680699114E+01  0.41625005270E+02 -0.80675158254E+01  0.47787274254E+02  0.20000014636E+02 0.  0.
         12    1    1    2    0    0 -0.92680699114E+01 -0.41625005270E+02  0.80675158254E+01  0.43400725746E+02  0.00000000000E+00 0. -1.
         11    1    3    3    0    0 -0.39095308612E+01  0.16694625913E+02 -0.43539485837E+01  0.17690444722E+02  0.51100000000E-03 0. -1.
        -11    1    3    3    0    0  0.46154603695E+00  0.10866474545E+02 -0.70218054816E+00  0.10898915155E+02  0.51100000000E-03 0.  1.
        -12    1    3    3    0    0  0.12716054736E+02  0.14063904813E+02 -0.30113866935E+01  0.19197914377E+02  0.00000000000E+00 0.  1.
</event>
<event>
 7    1  0.2599124E-010  0.4778727E+02  0.7816164E-02  0.1312668E+00
        -11   -1    0    0    0    0  0.00000000000E+00  0.00000000000E+00  0.45593999997E+02  0.45594000000E+02  0.51100000000E-03 0.  1.
         11   -1    0    0    0    0 -0.00000000000E+00 -0.00000000000E+00 -0.45593999997E+02  0.45594000000E+02  0.51100000000E-03 0. -1.
    9900012    2    1    2    0    0  0.10872709339E+02  0.41022167039E+02 -0.90878753245E+01  0.47787268729E+02  0.19999989441E+02 0.  0.
         12    1    1    2    0    0 -0.10872709339E+02 -0.41022167039E+02  0.90878753245E+01  0.43400731271E+02  0.00000000000E+00 0. -1.
         11    1    3    3    0    0 -0.20460678293E+01  0.51478172257E+01 -0.59848893971E+00  0.55717685723E+01  0.51100000000E-03 0. -1.
        -11    1    3    3    0    0  0.25944266248E+01  0.26526614248E+02 -0.16627276967E+01  0.26704999094E+02  0.51100000000E-03 0.  1.
        -12    1    3    3    0    0  0.10324350544E+02  0.93477355659E+01 -0.68266586882E+01  0.15510501062E+02  0.00000000000E+00 0.  1.
</event>
<event>
 7    1  0.2599124E-010  0.4778727E+02  0.7816164E-02  0.1312668E+00
        -11   -1    0    0    0    0  0.00000000000E+00  0.00000000000E+00  0.45593999997E+02  0.45594000000E+02  0.51100000000E-03 0. -1.
         11   -1    0    0    0    0 -0.00000000000E+00 -0.00000000000E+00 -0.45593999997E+02  0.45594000000E+02  0.51100000000E-03 0.  1.
    9900012    2    1    2    0    0  0.34102858338E+02 -0.20692033395E+02  0.17101408376E+02  0.47787270037E+02  0.19999995409E+02 0.  0.
         12    1    1    2    0    0 -0.34102858338E+02  0.20692033395E+02 -0.17101408376E+02  0.43400729963E+02  0.00000000000E+00 0. -1.
         11    1    3    3    0    0  0.15900303715E+02 -0.10328066743E+02  0.16931617929E+02  0.25419840811E+02  0.51100000000E-03 0. -1.
        -11    1    3    3    0    0  0.91854550503E+01 -0.86677996717E+01  0.25592381872E+01  0.12886156758E+02  0.51100000000E-03 0.  1.
         12    1    3    3    0    0  0.90170995725E+01 -0.16961669806E+01 -0.23894477406E+01  0.94812724690E+01  0.00000000000E+00 0. -1.
</event>
<event>
 7    1  0.2599124E-010  0.4778726E+02  0.7816164E-02  0.1312668E+00
        -11   -1    0    0    0    0  0.00000000000E+00  0.00000000000E+00  0.45593999997E+02  0.45594000000E+02  0.51100000000E-03 0. -1.
         11   -1    0    0    0    0 -0.00000000000E+00 -0.00000000000E+00 -0.45593999997E+02  0.45594000000E+02  0.51100000000E-03 0.  1.
    9900012    2    1    2    0    0  0.26936337834E+02  0.22580118281E+02 -0.25459689645E+02  0.47787264588E+02  0.19999970562E+02 0.  0.
         12    1    1    2    0    0 -0.26936337834E+02 -0.22580118281E+02  0.25459689645E+02  0.43400735412E+02  0.00000000000E+00 0. -1.
         11    1    3    3    0    0  0.93704386657E+01  0.14641510689E+02 -0.95809832195E+01  0.19848783231E+02  0.51100000000E-03 0. -1.
        -11    1    3    3    0    0  0.14629796691E+02  0.10463629701E+02 -0.91626710998E+01  0.20185961451E+02  0.51100000000E-03 0.  1.
         12    1    3    3    0    0  0.29361024768E+01 -0.25250221083E+01 -0.67160353257E+01  0.77525199063E+01  0.00000000000E+00 0. -1.
</event>
<event>
 7    1  0.2599124E-010  0.4778726E+02  0.7816164E-02  0.1312668E+00
        -11   -1    0    0    0    0  0.00000000000E+00  0.00000000000E+00  0.45593999997E+02  0.45594000000E+02  0.51100000000E-03 0. -1.
         11   -1    0    0    0    0 -0.00000000000E+00 -0.00000000000E+00 -0.45593999997E+02  0.45594000000E+02  0.51100000000E-03 0.  1.
    9900012    2    1    2    0    0  0.58023903767E+01  0.42528118896E+02 -0.64277124839E+01  0.47787261312E+02  0.19999955625E+02 0.  0.
         12    1    1    2    0    0 -0.58023903767E+01 -0.42528118896E+02  0.64277124839E+01  0.43400738688E+02  0.00000000000E+00 0. -1.
         11    1    3    3    0    0  0.23684915766E+00  0.91350402166E+01  0.15545928149E+00  0.91394324294E+01  0.51100000000E-03 0. -1.
        -11    1    3    3    0    0 -0.10572983507E+01  0.26064740225E+02  0.11373576530E+01  0.26110958341E+02  0.51100000000E-03 0.  1.
         12    1    3    3    0    0  0.66228395697E+01  0.73283384541E+01 -0.77205294184E+01  0.12536870541E+02  0.00000000000E+00 0. -1.
</event>
<event>
 7    1  0.2599124E-010  0.4778727E+02  0.7816164E-02  0.1312668E+00
        -11   -1    0    0    0    0  0.00000000000E+00  0.00000000000E+00  0.45593999997E+02  0.45594000000E+02  0.51100000000E-03 0. -1.
         11   -1    0    0    0    0 -0.00000000000E+00 -0.00000000000E+00 -0.45593999997E+02  0.45594000000E+02  0.51100000000E-03 0.  1.
    9900012    2    1    2    0    0 -0.45745255695E+00 -0.43362277929E+02 -0.17683150190E+01  0.47787270190E+02  0.19999996105E+02 0.  0.
         12    1    1    2    0    0  0.45745255695E+00  0.43362277929E+02  0.17683150190E+01  0.43400729810E+02  0.00000000000E+00 0. -1.
         11    1    3    3    0    0 -0.18906759795E+01 -0.14876145564E+02 -0.33381475925E+01  0.15362864060E+02  0.51100000000E-03 0. -1.
        -11    1    3    3    0    0  0.65871462427E+01 -0.25612298578E+02  0.66283042194E+00  0.26454105136E+02  0.51100000000E-03 0.  1.
         12    1    3    3    0    0 -0.51539228201E+01 -0.28738337860E+01  0.90700215148E+00  0.59703009948E+01  0.00000000000E+00 0. -1.
</event>
<event>
 7    1  0.2599124E-010  0.4778727E+02  0.7816164E-02  0.1312668E+00
        -11   -1    0    0    0    0  0.00000000000E+00  0.00000000000E+00  0.45593999997E+02  0.45594000000E+02  0.51100000000E-03 0.  1.
         11   -1    0    0    0    0 -0.00000000000E+00 -0.00000000000E+00 -0.45593999997E+02  0.45594000000E+02  0.51100000000E-03 0. -1.
    9900012    2    1    2    0    0 -0.30722745592E+02 -0.61272272223E+01  0.30036532673E+02  0.47787270684E+02  0.19999998355E+02 0.  0.
         12    1    1    2    0    0  0.30722745592E+02  0.61272272223E+01 -0.30036532673E+02  0.43400729316E+02  0.00000000000E+00 0. -1.
         11    1    3    3    0    0 -0.24059372993E+01  0.11331441598E+01 -0.18875117476E+01  0.32611732296E+01  0.51100000000E-03 0. -1.
        -11    1    3    3    0    0 -0.12594694882E+02  0.18319620790E+01  0.11028439486E+02  0.16840691850E+02  0.51100000000E-03 0.  1.
         12    1    3    3    0    0 -0.15722113411E+02 -0.90923334612E+01  0.20895604934E+02  0.27685405604E+02  0.00000000000E+00 0. -1.
</event>
<event>
 7    1  0.2599124E-010  0.4778727E+02  0.7816164E-02  0.1312668E+00
        -11   -1    0    0    0    0  0.00000000000E+00  0.00000000000E+00  0.45593999997E+02  0.45594000000E+02  0.51100000000E-03 0.  1.
         11   -1    0    0    0    0 -0.00000000000E+00 -0.00000000000E+00 -0.45593999997E+02  0.45594000000E+02  0.51100000000E-03 0. -1.
    9900012    2    1    2    0    0 -0.28033365580E+02  0.23220509673E+02  0.23633907587E+02  0.47787271400E+02  0.20000001619E+02 0.  0.
         12    1    1    2    0    0  0.28033365580E+02 -0.23220509673E+02 -0.23633907587E+02  0.43400728600E+02  0.00000000000E+00 0. -1.
         11    1    3    3    0    0 -0.17412083226E+01  0.39345827325E+01  0.14304844218E+01  0.45342070579E+01  0.51100000000E-03 0. -1.
        -11    1    3    3    0    0 -0.28095907448E+02  0.19384524936E+02  0.23120282557E+02  0.41227263893E+02  0.51100000000E-03 0.  1.
        -12    1    3    3    0    0  0.18037501905E+01 -0.98597995207E-01 -0.91685939191E+00  0.20258004490E+01  0.00000000000E+00 0.  1.
</event>
<event>
 7    1  0.2599124E-010  0.4778727E+02  0.7816164E-02  0.1312668E+00
        -11   -1    0    0    0    0  0.00000000000E+00  0.00000000000E+00  0.45593999997E+02  0.45594000000E+02  0.51100000000E-03 0. -1.
         11   -1    0    0    0    0 -0.00000000000E+00 -0.00000000000E+00 -0.45593999997E+02  0.45594000000E+02  0.51100000000E-03 0.  1.
    9900012    2    1    2    0    0 -0.17545576899E+02  0.38215136028E+02  0.10741473113E+02  0.47787272644E+02  0.20000007292E+02 0.  0.
         12    1    1    2    0    0  0.17545576899E+02 -0.38215136028E+02 -0.10741473113E+02  0.43400727356E+02  0.00000000000E+00 0. -1.
         11    1    3    3    0    0 -0.30565049138E+01  0.74993695752E+01  0.51603675359E+01  0.96027162657E+01  0.51100000000E-03 0. -1.
        -11    1    3    3    0    0 -0.57609995486E+01  0.14062972637E+01 -0.26790109766E+01  0.65072181358E+01  0.51100000000E-03 0.  1.
        -12    1    3    3    0    0 -0.87280724369E+01  0.29309469189E+02  0.82601165541E+01  0.31677338242E+02  0.00000000000E+00 0.  1.
</event>
<event>
 7    1  0.2599124E-010  0.4778727E+02  0.7816164E-02  0.1312668E+00
        -11   -1    0    0    0    0  0.00000000000E+00  0.00000000000E+00  0.45593999997E+02  0.45594000000E+02  0.51100000000E-03 0. -1.
         11   -1    0    0    0    0 -0.00000000000E+00 -0.00000000000E+00 -0.45593999997E+02  0.45594000000E+02  0.51100000000E-03 0.  1.
    9900012    2    1    2    0    0  0.36910453440E+02 -0.85559747453E+01 -0.21166884488E+02  0.47787271021E+02  0.19999999892E+02 0.  0.
         12    1    1    2    0    0 -0.36910453440E+02  0.85559747453E+01  0.21166884488E+02  0.43400728979E+02  0.00000000000E+00 0. -1.
         11    1    3    3    0    0  0.20227950154E+02 -0.57517494216E+01 -0.68243354650E+01  0.22109367780E+02  0.51100000000E-03 0. -1.
        -11    1    3    3    0    0  0.13506504439E+02 -0.13425450262E-01 -0.33723312813E+01  0.13921151567E+02  0.51100000000E-03 0.  1.
         12    1    3    3    0    0  0.31759988466E+01 -0.27907998735E+01 -0.10970217742E+02  0.11756751673E+02  0.00000000000E+00 0. -1.
</event>
<event>
 7    1  0.2599124E-010  0.4778728E+02  0.7816164E-02  0.1312668E+00
        -11   -1    0    0    0    0  0.00000000000E+00  0.00000000000E+00  0.45593999997E+02  0.45594000000E+02  0.51100000000E-03 0.  1.
         11   -1    0    0    0    0 -0.00000000000E+00 -0.00000000000E+00 -0.45593999997E+02  0.45594000000E+02  0.51100000000E-03 0. -1.
    9900012    2    1    2    0    0 -0.30254501436E+02  0.30891780551E+02  0.37396684082E+01  0.47787284769E+02  0.20000062576E+02 0.  0.
         12    1    1    2    0    0  0.30254501436E+02 -0.30891780551E+02 -0.37396684082E+01  0.43400715231E+02  0.00000000000E+00 0. -1.
         11    1    3    3    0    0 -0.10450833661E+01  0.12651635119E+01  0.25140630924E+01  0.30022244166E+01  0.51100000000E-03 0. -1.
        -11    1    3    3    0    0  0.19844386482E+01  0.26174710543E+01  0.12738809232E+01  0.35230561074E+01  0.51100000000E-03 0.  1.
        -12    1    3    3    0    0 -0.31193856718E+02  0.27009145985E+02 -0.48275607330E-01  0.41262004245E+02  0.00000000000E+00 0.  1.
</event>
<event>
 7    1  0.2599124E-010  0.4778727E+02  0.7816164E-02  0.1312668E+00
        -11   -1    0    0    0    0  0.00000000000E+00  0.00000000000E+00  0.45593999997E+02  0.45594000000E+02  0.51100000000E-03 0. -1.
         11   -1    0    0    0    0 -0.00000000000E+00 -0.00000000000E+00 -0.45593999997E+02  0.45594000000E+02  0.51100000000E-03 0.  1.
    9900012    2    1    2    0    0  0.24974547558E+02 -0.35417627466E+02  0.23423559185E+01  0.47787274288E+02  0.20000014789E+02 0.  0.
         12    1    1    2    0    0 -0.24974547558E+02  0.35417627466E+02 -0.23423559185E+01  0.43400725712E+02  0.00000000000E+00 0. -1.
         11    1    3    3    0    0  0.45261317186E+01 -0.13314143804E+02  0.55407684134E+01  0.15114642187E+02  0.51100000000E-03 0. -1.
        -11    1    3    3    0    0  0.22127839320E+02 -0.20027952587E+02 -0.29032994277E+01  0.29986485383E+02  0.51100000000E-03 0.  1.
         12    1    3    3    0    0 -0.16794234802E+01 -0.20755310752E+01 -0.29511306707E+00  0.26861467183E+01  0.00000000000E+00 0. -1.
</event>
<event>
 7    1  0.2599124E-010  0.4778727E+02  0.7816164E-02  0.1312668E+00
        -11   -1    0    0    0    0  0.00000000000E+00  0.00000000000E+00  0.45593999997E+02  0.45594000000E+02  0.51100000000E-03 0.  1.
         11   -1    0    0    0    0 -0.00000000000E+00 -0.00000000000E+00 -0.45593999997E+02  0.45594000000E+02  0.51100000000E-03 0. -1.
    9900012    2    1    2    0    0  0.73150276335E+01 -0.11137842063E+02  0.41304503723E+02  0.47787272092E+02  0.20000004778E+02 0.  0.
         12    1    1    2    0    0 -0.73150276335E+01  0.11137842063E+02 -0.41304503723E+02  0.43400727908E+02  0.00000000000E+00 0. -1.
         11    1    3    3    0    0 -0.23906721726E+00 -0.60990365013E+01  0.52694818427E+01  0.80636740094E+01  0.51100000000E-03 0. -1.
        -11    1    3    3    0    0 -0.34509635579E+01 -0.18853738882E+01  0.17514749785E+02  0.17950772810E+02  0.51100000000E-03 0.  1.
         12    1    3    3    0    0  0.11005058409E+02 -0.31534316736E+01  0.18520272095E+02  0.21772825273E+02  0.00000000000E+00 0. -1.
</event>
<event>
 7    1  0.2599124E-010  0.4778727E+02  0.7816164E-02  0.1312668E+00
        -11   -1    0    0    0    0  0.00000000000E+00  0.00000000000E+00  0.45593999997E+02  0.45594000000E+02  0.51100000000E-03 0. -1.
         11   -1    0    0    0    0 -0.00000000000E+00 -0.00000000000E+00 -0.45593999997E+02  0.45594000000E+02  0.51100000000E-03 0.  1.
    9900012    2    1    2    0    0 -0.20812806264E+02  0.15525457732E+02 -0.34776582009E+02  0.47787269607E+02  0.19999993447E+02 0.  0.
         12    1    1    2    0    0  0.20812806264E+02 -0.15525457732E+02  0.34776582009E+02  0.43400730393E+02  0.00000000000E+00 0. -1.
         11    1    3    3    0    0 -0.38261898063E+01 -0.22614661242E+01 -0.38544539811E+01  0.58830921477E+01  0.51100000000E-03 0. -1.
        -11    1    3    3    0    0 -0.18721370585E+02  0.12290759440E+02 -0.22944883651E+02  0.32062753628E+02  0.51100000000E-03 0.  1.
        -12    1    3    3    0    0  0.17347541270E+01  0.54961644171E+01 -0.79772443768E+01  0.98414238314E+01  0.00000000000E+00 0.  1.
</event>
<event>
 7    1  0.2599124E-010  0.4778727E+02  0.7816164E-02  0.1312668E+00
        -11   -1    0    0    0    0  0.00000000000E+00  0.00000000000E+00  0.45593999997E+02  0.45594000000E+02  0.51100000000E-03 0. -1.
         11   -1    0    0    0    0 -0.00000000000E+00 -0.00000000000E+00 -0.45593999997E+02  0.45594000000E+02  0.51100000000E-03 0.  1.
    9900012    2    1    2    0    0 -0.43211766974E+02  0.40251402512E+01  0.40559647295E+00  0.47787273421E+02  0.20000010836E+02 0.  0.
         12    1    1    2    0    0  0.43211766974E+02 -0.40251402512E+01 -0.40559647295E+00  0.43400726579E+02  0.00000000000E+00 0. -1.
         11    1    3    3    0    0 -0.18145166099E+02  0.13578720316E+01 -0.23386923165E+01  0.18345581246E+02  0.51100000000E-03 0. -1.
        -11    1    3    3    0    0 -0.54493893948E+01 -0.32838700708E+01 -0.43964628216E+01  0.77335976765E+01  0.51100000000E-03 0.  1.
         12    1    3    3    0    0 -0.19617211480E+02  0.59511382903E+01  0.71407516111E+01  0.21708094499E+02  0.00000000000E+00 0. -1.
</event>
<event>
 7    1  0.2599124E-010  0.4778727E+02  0.7816164E-02  0.1312668E+00
        -11   -1    0    0    0    0  0.00000000000E+00  0.00000000000E+00  0.45593999997E+02  0.45594000000E+02  0.51100000000E-03 0.  1.
         11   -1    0    0    0    0 -0.00000000000E+00 -0.00000000000E+00 -0.45593999997E+02  0.45594000000E+02  0.51100000000E-03 0. -1.
    9900012    2    1    2    0    0 -0.21301347431E+02 -0.37798525315E+02  0.10711587277E+01  0.47787270750E+02  0.19999998660E+02 0.  0.
         12    1    1    2    0    0  0.21301347431E+02  0.37798525315E+02 -0.10711587277E+01  0.43400729250E+02  0.00000000000E+00 0. -1.
         11    1    3    3    0    0 -0.25093831422E+00 -0.23255138689E+00  0.58182792026E+00  0.67496235081E+00  0.51100000000E-03 0. -1.
        -11    1    3    3    0    0 -0.15827399745E+02 -0.38658878549E+02  0.38465366846E+00  0.41775153286E+02  0.51100000000E-03 0.  1.
        -12    1    3    3    0    0 -0.52230093710E+01  0.10929046209E+01  0.10467713895E+00  0.53371551133E+01  0.00000000000E+00 0.  1.
</event>
<event>
 7    1  0.2599124E-010  0.4778729E+02  0.7816164E-02  0.1312668E+00
        -11   -1    0    0    0    0  0.00000000000E+00  0.00000000000E+00  0.45593999997E+02  0.45594000000E+02  0.51100000000E-03 0. -1.
         11   -1    0    0    0    0 -0.00000000000E+00 -0.00000000000E+00 -0.45593999997E+02  0.45594000000E+02  0.51100000000E-03 0.  1.
    9900012    2    1    2    0    0  0.11416297104E+01  0.42252856432E+02 -0.98495902513E+01  0.47787290062E+02  0.20000086707E+02 0.  0.
         12    1    1    2    0    0 -0.11416297104E+01 -0.42252856432E+02  0.98495902513E+01  0.43400709938E+02  0.00000000000E+00 0. -1.
         11    1    3    3    0    0 -0.22794816594E+01  0.12190386741E+02  0.17889487742E+01  0.12530040044E+02  0.51100000000E-03 0. -1.
        -11    1    3    3    0    0  0.19065968393E+01  0.39318106255E+01  0.29686084753E+01  0.52826965504E+01  0.51100000000E-03 0.  1.
        -12    1    3    3    0    0  0.15145145305E+01  0.26130659065E+02 -0.14607147501E+02  0.29974553467E+02  0.00000000000E+00 0.  1.
</event>
<event>
 7    1  0.2599124E-010  0.4778727E+02  0.7816164E-02  0.1312668E+00
        -11   -1    0    0    0    0  0.00000000000E+00  0.00000000000E+00  0.45593999997E+02  0.45594000000E+02  0.51100000000E-03 0.  1.
         11   -1    0    0    0    0 -0.00000000000E+00 -0.00000000000E+00 -0.45593999997E+02  0.45594000000E+02  0.51100000000E-03 0. -1.
    9900012    2    1    2    0    0  0.24363829228E+02  0.35053544940E+02  0.78279220506E+01  0.47787267851E+02  0.19999985438E+02 0.  0.
         12    1    1    2    0    0 -0.24363829228E+02 -0.35053544940E+02 -0.78279220506E+01  0.43400732149E+02  0.00000000000E+00 0. -1.
         11    1    3    3    0    0  0.91671251485E+01  0.41755265340E+01  0.43944251690E-01  0.10073387548E+02  0.51100000000E-03 0. -1.
        -11    1    3    3    0    0  0.15572032845E+02  0.22673240564E+02  0.98986826466E+01  0.29232652343E+02  0.51100000000E-03 0.  1.
        -12    1    3    3    0    0 -0.37532876643E+00  0.82047778417E+01 -0.21147048477E+01  0.84812279599E+01  0.00000000000E+00 0.  1.
</event>
<event>
 7    1  0.2599124E-010  0.4778732E+02  0.7816164E-02  0.1312668E+00
        -11   -1    0    0    0    0  0.00000000000E+00  0.00000000000E+00  0.45593999997E+02  0.45594000000E+02  0.51100000000E-03 0.  1.
         11   -1    0    0    0    0 -0.00000000000E+00 -0.00000000000E+00 -0.45593999997E+02  0.45594000000E+02  0.51100000000E-03 0. -1.
    9900012    2    1    2    0    0  0.22550314710E+02  0.25696053287E+00  0.37081476812E+02  0.47787324374E+02  0.20000243150E+02 0.  0.
         12    1    1    2    0    0 -0.22550314710E+02 -0.25696053287E+00 -0.37081476812E+02  0.43400675626E+02  0.00000000000E+00 0. -1.
         11    1    3    3    0    0  0.38657150620E+01  0.77023337201E+00  0.89224733967E+01  0.97543602642E+01  0.51100000000E-03 0.  1.
        -11    1    3    3    0    0  0.40081242610E+01  0.39804268184E+01  0.19728127322E+02  0.20520912885E+02  0.51100000000E-03 0. -1.
         12    1    3    3    0    0  0.14676475387E+02 -0.44936996575E+01  0.84308760932E+01  0.17512051225E+02  0.00000000000E+00 0. -1.
</event>
<event>
 7    1  0.2599124E-010  0.4778727E+02  0.7816164E-02  0.1312668E+00
        -11   -1    0    0    0    0  0.00000000000E+00  0.00000000000E+00  0.45593999997E+02  0.45594000000E+02  0.51100000000E-03 0.  1.
         11   -1    0    0    0    0 -0.00000000000E+00 -0.00000000000E+00 -0.45593999997E+02  0.45594000000E+02  0.51100000000E-03 0. -1.
    9900012    2    1    2    0    0  0.10388130192E+01 -0.29382697181E+02  0.31924936495E+02  0.47787267330E+02  0.19999983062E+02 0.  0.
         12    1    1    2    0    0 -0.10388130192E+01  0.29382697181E+02 -0.31924936495E+02  0.43400732670E+02  0.00000000000E+00 0. -1.
         11    1    3    3    0    0  0.30550555387E+01 -0.12788748876E+02  0.18084956481E+02  0.22359586610E+02  0.51100000000E-03 0. -1.
        -11    1    3    3    0    0  0.23121020766E+01 -0.76832954626E+01  0.13267330594E+02  0.15504867188E+02  0.51100000000E-03 0.  1.
         12    1    3    3    0    0 -0.43283445961E+01 -0.89106528424E+01  0.57264941949E+00  0.99228135314E+01  0.00000000000E+00 0. -1.
</event>
<event>
 7    1  0.2599124E-010  0.4778727E+02  0.7816164E-02  0.1312668E+00
        -11   -1    0    0    0    0  0.00000000000E+00  0.00000000000E+00  0.45593999997E+02  0.45594000000E+02  0.51100000000E-03 0.  1.
         11   -1    0    0    0    0 -0.00000000000E+00 -0.00000000000E+00 -0.45593999997E+02  0.45594000000E+02  0.51100000000E-03 0. -1.
    9900012    2    1    2    0    0  0.32877019150E+02  0.16490341527E+02  0.23038952785E+02  0.47787273078E+02  0.20000009274E+02 0.  0.
         12    1    1    2    0    0 -0.32877019150E+02 -0.16490341527E+02 -0.23038952785E+02  0.43400726922E+02  0.00000000000E+00 0. -1.
         11    1    3    3    0    0  0.12796139996E+02  0.36799671848E+01  0.67801107908E+01  0.14941661885E+02  0.51100000000E-03 0. -1.
        -11    1    3    3    0    0  0.15383083431E+02  0.65648156811E+00  0.73532731041E+01  0.17062849981E+02  0.51100000000E-03 0.  1.
        -12    1    3    3    0    0  0.46977957233E+01  0.12153892774E+02  0.89055688902E+01  0.15782761212E+02  0.00000000000E+00 0.  1.
</event>
<event>
 7    1  0.2599124E-010  0.4778728E+02  0.7816164E-02  0.1312668E+00
        -11   -1    0    0    0    0  0.00000000000E+00  0.00000000000E+00  0.45593999997E+02  0.45594000000E+02  0.51100000000E-03 0.  1.
         11   -1    0    0    0    0 -0.00000000000E+00 -0.00000000000E+00 -0.45593999997E+02  0.45594000000E+02  0.51100000000E-03 0. -1.
    9900012    2    1    2    0    0  0.81395036329E+01 -0.32970335897E+02  0.27024579603E+02  0.47787280291E+02  0.20000042157E+02 0.  0.
         12    1    1    2    0    0 -0.81395036329E+01  0.32970335897E+02 -0.27024579603E+02  0.43400719709E+02  0.00000000000E+00 0. -1.
         11    1    3    3    0    0 -0.21454887489E+01 -0.92508409763E+01  0.61609481409E+01  0.11319826103E+02  0.51100000000E-03 0. -1.
        -11    1    3    3    0    0  0.25823054169E+01 -0.11778663304E+02  0.18469694846E+02  0.22057534732E+02  0.51100000000E-03 0.  1.
         12    1    3    3    0    0  0.77026869649E+01 -0.11940831618E+02  0.23939366157E+01  0.14409919456E+02  0.00000000000E+00 0. -1.
</event>
<event>
 7    1  0.2599124E-010  0.4778730E+02  0.7816164E-02  0.1312668E+00
        -11   -1    0    0    0    0  0.00000000000E+00  0.00000000000E+00  0.45593999997E+02  0.45594000000E+02  0.51100000000E-03 0.  1.
         11   -1    0    0    0    0 -0.00000000000E+00 -0.00000000000E+00 -0.45593999997E+02  0.45594000000E+02  0.51100000000E-03 0. -1.
    9900012    2    1    2    0    0  0.31934971876E+02 -0.25076117107E+02  0.15328616041E+02  0.47787302452E+02  0.20000143201E+02 0.  0.
         12    1    1    2    0    0 -0.31934971876E+02  0.25076117107E+02 -0.15328616041E+02  0.43400697548E+02  0.00000000000E+00 0. -1.
         11    1    3    3    0    0  0.14174765153E+02 -0.12482320069E+02  0.10463017441E+02  0.21591827521E+02  0.51100000000E-03 0. -1.
        -11    1    3    3    0    0  0.76190072528E+01 -0.58381735966E+01  0.91674117519E+01  0.13273092366E+02  0.51100000000E-03 0.  1.
         12    1    3    3    0    0  0.10141199470E+02 -0.67556234416E+01 -0.43018131522E+01  0.12922382566E+02  0.00000000000E+00 0. -1.
</event>
<event>
 7    1  0.2599124E-010  0.4778727E+02  0.7816164E-02  0.1312668E+00
        -11   -1    0    0    0    0  0.00000000000E+00  0.00000000000E+00  0.45593999997E+02  0.45594000000E+02  0.51100000000E-03 0. -1.
         11   -1    0    0    0    0 -0.00000000000E+00 -0.00000000000E+00 -0.45593999997E+02  0.45594000000E+02  0.51100000000E-03 0.  1.
    9900012    2    1    2    0    0  0.43396841776E+02 -0.58008051513E+00  0.23853681439E-01  0.47787274907E+02  0.20000017613E+02 0.  0.
         12    1    1    2    0    0 -0.43396841776E+02  0.58008051513E+00 -0.23853681439E-01  0.43400725093E+02  0.00000000000E+00 0. -1.
         11    1    3    3    0    0  0.10598718084E+02  0.21876145130E+01 -0.54808137804E+01  0.12130861562E+02  0.51100000000E-03 0. -1.
        -11    1    3    3    0    0  0.82775000901E+01 -0.32417904262E+01 -0.34668779383E+01  0.95417742485E+01  0.51100000000E-03 0.  1.
        -12    1    3    3    0    0  0.24520623603E+02  0.47409539810E+00  0.89715454001E+01  0.26114639097E+02  0.00000000000E+00 0.  1.
</event>
<event>
 7    1  0.2599124E-010  0.4778727E+02  0.7816164E-02  0.1312668E+00
        -11   -1    0    0    0    0  0.00000000000E+00  0.00000000000E+00  0.45593999997E+02  0.45594000000E+02  0.51100000000E-03 0.  1.
         11   -1    0    0    0    0 -0.00000000000E+00 -0.00000000000E+00 -0.45593999997E+02  0.45594000000E+02  0.51100000000E-03 0. -1.
    9900012    2    1    2    0    0 -0.12003754740E+02 -0.81088254087E-01  0.41707633917E+02  0.47787269244E+02  0.19999991793E+02 0.  0.
         12    1    1    2    0    0  0.12003754740E+02  0.81088254087E-01 -0.41707633917E+02  0.43400730756E+02  0.00000000000E+00 0. -1.
         11    1    3    3    0    0  0.21126017330E+00 -0.38908086878E+00  0.12374884070E+01  0.13143030860E+01  0.51100000000E-03 0. -1.
        -11    1    3    3    0    0 -0.78849352727E+01 -0.52855477229E+01  0.37699128994E+02  0.38875873574E+02  0.51100000000E-03 0.  1.
         12    1    3    3    0    0 -0.43300796403E+01  0.55935403376E+01  0.27710165161E+01  0.75970925841E+01  0.00000000000E+00 0. -1.
</event>
<event>
 7    1  0.2599124E-010  0.4778724E+02  0.7816164E-02  0.1312668E+00
        -11   -1    0    0    0    0  0.00000000000E+00  0.00000000000E+00  0.45593999997E+02  0.45594000000E+02  0.51100000000E-03 0.  1.
         11   -1    0    0    0    0 -0.00000000000E+00 -0.00000000000E+00 -0.45593999997E+02  0.45594000000E+02  0.51100000000E-03 0. -1.
    9900012    2    1    2    0    0 -0.23478294323E+02 -0.15156598487E+01  0.36470510694E+02  0.47787243331E+02  0.19999873645E+02 0.  0.
         12    1    1    2    0    0  0.23478294323E+02  0.15156598487E+01 -0.36470510694E+02  0.43400756669E+02  0.00000000000E+00 0. -1.
         11    1    3    3    0    0 -0.25126829055E+02  0.24718102179E+00  0.34486372105E+02  0.42669995290E+02  0.51100000000E-03 0.  1.
        -11    1    3    3    0    0 -0.82868523496E+00  0.19990910948E+00 -0.59362412285E+00  0.10387842563E+01  0.51100000000E-03 0. -1.
        -12    1    3    3    0    0  0.24772199667E+01 -0.19627499800E+01  0.25777627126E+01  0.40784637855E+01  0.00000000000E+00 0.  1.
</event>
<event>
 7    1  0.2599124E-010  0.4778727E+02  0.7816164E-02  0.1312668E+00
        -11   -1    0    0    0    0  0.00000000000E+00  0.00000000000E+00  0.45593999997E+02  0.45594000000E+02  0.51100000000E-03 0.  1.
         11   -1    0    0    0    0 -0.00000000000E+00 -0.00000000000E+00 -0.45593999997E+02  0.45594000000E+02  0.51100000000E-03 0. -1.
    9900012    2    1    2    0    0  0.35685955240E+02  0.61923337757E+01  0.23912151559E+02  0.47787269694E+02  0.19999993841E+02 0.  0.
         12    1    1    2    0    0 -0.35685955240E+02 -0.61923337757E+01 -0.23912151559E+02  0.43400730306E+02  0.00000000000E+00 0. -1.
         11    1    3    3    0    0  0.12052824992E+01 -0.24740577157E+01  0.37120715612E+00  0.27769520157E+01  0.51100000000E-03 0. -1.
        -11    1    3    3    0    0  0.26478468054E+01  0.53072831514E+01  0.14138265597E+01  0.60973152253E+01  0.51100000000E-03 0.  1.
        -12    1    3    3    0    0  0.31832825935E+02  0.33591083400E+01  0.22127117843E+02  0.38913002453E+02  0.00000000000E+00 0.  1.
</event>
<event>
 7    1  0.2599124E-010  0.4778727E+02  0.7816164E-02  0.1312668E+00
        -11   -1    0    0    0    0  0.00000000000E+00  0.00000000000E+00  0.45593999997E+02  0.45594000000E+02  0.51100000000E-03 0.  1.
         11   -1    0    0    0    0 -0.00000000000E+00 -0.00000000000E+00 -0.45593999997E+02  0.45594000000E+02  0.51100000000E-03 0. -1.
    9900012    2    1    2    0    0 -0.95646047009E+01  0.10622861046E+02  0.40979218505E+02  0.47787272020E+02  0.20000004449E+02 0.  0.
         12    1    1    2    0    0  0.95646047009E+01 -0.10622861046E+02 -0.40979218505E+02  0.43400727980E+02  0.00000000000E+00 0. -1.
         11    1    3    3    0    0 -0.48519766124E+01 -0.33165744232E+00  0.22294627537E+01  0.53499699193E+01  0.51100000000E-03 0. -1.
        -11    1    3    3    0    0 -0.37053882252E+01 -0.15277216202E+01  0.48101598537E+01  0.62611079952E+01  0.51100000000E-03 0.  1.
        -12    1    3    3    0    0 -0.10072398633E+01  0.12482240109E+02  0.33939595898E+02  0.36176194106E+02  0.00000000000E+00 0.  1.
</event>
<event>
 7    1  0.2599124E-010  0.4778727E+02  0.7816164E-02  0.1312668E+00
        -11   -1    0    0    0    0  0.00000000000E+00  0.00000000000E+00  0.45593999997E+02  0.45594000000E+02  0.51100000000E-03 0.  1.
         11   -1    0    0    0    0 -0.00000000000E+00 -0.00000000000E+00 -0.45593999997E+02  0.45594000000E+02  0.51100000000E-03 0. -1.
    9900012    2    1    2    0    0 -0.34863707469E+02  0.20709014686E+02  0.15468742631E+02  0.47787269749E+02  0.19999994094E+02 0.  0.
         12    1    1    2    0    0  0.34863707469E+02 -0.20709014686E+02 -0.15468742631E+02  0.43400730251E+02  0.00000000000E+00 0. -1.
         11    1    3    3    0    0 -0.21781114429E+02  0.65959686934E+01  0.91855424504E+00  0.22776467921E+02  0.51100000000E-03 0. -1.
        -11    1    3    3    0    0 -0.34562336353E+01  0.93324348824E+00  0.48385117151E+01  0.60189442786E+01  0.51100000000E-03 0.  1.
        -12    1    3    3    0    0 -0.96263594043E+01  0.13179802504E+02  0.97116766705E+01  0.18991857550E+02  0.00000000000E+00 0.  1.
</event>
<event>
 7    1  0.2599124E-010  0.4778729E+02  0.7816164E-02  0.1312668E+00
        -11   -1    0    0    0    0  0.00000000000E+00  0.00000000000E+00  0.45593999997E+02  0.45594000000E+02  0.51100000000E-03 0.  1.
         11   -1    0    0    0    0 -0.00000000000E+00 -0.00000000000E+00 -0.45593999997E+02  0.45594000000E+02  0.51100000000E-03 0. -1.
    9900012    2    1    2    0    0  0.16906074821E+02 -0.14323042534E+02  0.37318318885E+02  0.47787287590E+02  0.20000075439E+02 0.  0.
         12    1    1    2    0    0 -0.16906074821E+02  0.14323042534E+02 -0.37318318885E+02  0.43400712410E+02  0.00000000000E+00 0. -1.
         11    1    3    3    0    0  0.53376533417E+00 -0.93994072171E+01  0.15385729193E+02  0.18037583667E+02  0.51100000000E-03 0. -1.
        -11    1    3    3    0    0  0.11661453175E+01 -0.18084217300E+01  0.98419926769E+01  0.10074477861E+02  0.51100000000E-03 0.  1.
         12    1    3    3    0    0  0.15206164170E+02 -0.31152135873E+01  0.12090597015E+02  0.19675226063E+02  0.00000000000E+00 0. -1.
</event>
<event>
 7    1  0.2599124E-010  0.4778727E+02  0.7816164E-02  0.1312668E+00
        -11   -1    0    0    0    0  0.00000000000E+00  0.00000000000E+00  0.45593999997E+02  0.45594000000E+02  0.51100000000E-03 0.  1.
         11   -1    0    0    0    0 -0.00000000000E+00 -0.00000000000E+00 -0.45593999997E+02  0.45594000000E+02  0.51100000000E-03 0. -1.
    9900012    2    1    2    0    0  0.39955987631E+02 -0.53338867697E+01  0.16083909684E+02  0.47787269057E+02  0.19999990940E+02 0.  0.
         12    1    1    2    0    0 -0.39955987631E+02  0.53338867697E+01 -0.16083909684E+02  0.43400730943E+02  0.00000000000E+00 0. -1.
         11    1    3    3    0    0  0.20055045605E+02  0.16241502988E+01  0.45594926645E+01  0.20630843222E+02  0.51100000000E-03 0. -1.
        -11    1    3    3    0    0  0.19305622489E+02 -0.56103514504E+01  0.53434568317E+01  0.20802298774E+02  0.51100000000E-03 0.  1.
         12    1    3    3    0    0  0.59531953654E+00 -0.13476856180E+01  0.61809601877E+01  0.63541270618E+01  0.00000000000E+00 0. -1.
</event>
<event>
 7    1  0.2599124E-010  0.4778727E+02  0.7816164E-02  0.1312668E+00
        -11   -1    0    0    0    0  0.00000000000E+00  0.00000000000E+00  0.45593999997E+02  0.45594000000E+02  0.51100000000E-03 0.  1.
         11   -1    0    0    0    0 -0.00000000000E+00 -0.00000000000E+00 -0.45593999997E+02  0.45594000000E+02  0.51100000000E-03 0. -1.
    9900012    2    1    2    0    0 -0.11335322078E+01 -0.41012986216E+02  0.14151795684E+02  0.47787271265E+02  0.20000001005E+02 0.  0.
         12    1    1    2    0    0  0.11335322078E+01  0.41012986216E+02 -0.14151795684E+02  0.43400728735E+02  0.00000000000E+00 0. -1.
         11    1    3    3    0    0  0.12356858001E+01 -0.11942314332E+01 -0.35265268021E+01  0.39229452788E+01  0.51100000000E-03 0. -1.
        -11    1    3    3    0    0 -0.31995384823E+00 -0.19267498169E+02  0.62402285932E+01  0.20255352609E+02  0.51100000000E-03 0.  1.
         12    1    3    3    0    0 -0.20492641597E+01 -0.20551256614E+02  0.11438093893E+02  0.23608973377E+02  0.00000000000E+00 0. -1.
</event>
<event>
 7    1  0.2599124E-010  0.4778728E+02  0.7816164E-02  0.1312668E+00
        -11   -1    0    0    0    0  0.00000000000E+00  0.00000000000E+00  0.45593999997E+02  0.45594000000E+02  0.51100000000E-03 0.  1.
         11   -1    0    0    0    0 -0.00000000000E+00 -0.00000000000E+00 -0.45593999997E+02  0.45594000000E+02  0.51100000000E-03 0. -1.
    9900012    2    1    2    0    0  0.75612902535E+01  0.19051772701E+02  0.38255443419E+02  0.47787284516E+02  0.20000061421E+02 0.  0.
         12    1    1    2    0    0 -0.75612902535E+01 -0.19051772701E+02 -0.38255443419E+02  0.43400715484E+02  0.00000000000E+00 0. -1.
         11    1    3    3    0    0  0.71416783422E+00  0.51779164791E+01  0.12398970316E+01  0.53719828434E+01  0.51100000000E-03 0. -1.
        -11    1    3    3    0    0  0.45004379416E+01  0.12065494519E+02  0.13290068709E+02  0.18505567438E+02  0.51100000000E-03 0.  1.
         12    1    3    3    0    0  0.23466844777E+01  0.18083617029E+01  0.23725477678E+02  0.23909734234E+02  0.00000000000E+00 0. -1.
</event>
<event>
 7    1  0.2599124E-010  0.4778727E+02  0.7816164E-02  0.1312668E+00
        -11   -1    0    0    0    0  0.00000000000E+00  0.00000000000E+00  0.45593999997E+02  0.45594000000E+02  0.51100000000E-03 0. -1.
         11   -1    0    0    0    0 -0.00000000000E+00 -0.00000000000E+00 -0.45593999997E+02  0.45594000000E+02  0.51100000000E-03 0.  1.
    9900012    2    1    2    0    0  0.46245874270E+01 -0.71210376102E+00 -0.43147764335E+02  0.47787268811E+02  0.19999989815E+02 0.  0.
         12    1    1    2    0    0 -0.46245874270E+01  0.71210376102E+00  0.43147764335E+02  0.43400731189E+02  0.00000000000E+00 0. -1.
         11    1    3    3    0    0 -0.20476233509E+01  0.21151643022E+00 -0.36578811046E+01  0.41973318935E+01  0.51100000000E-03 0. -1.
        -11    1    3    3    0    0  0.78144788938E+01 -0.50371956294E+01 -0.94809684154E+01  0.13278862246E+02  0.51100000000E-03 0.  1.
         12    1    3    3    0    0 -0.11422681158E+01  0.41135754381E+01 -0.30008914815E+02  0.30311074671E+02  0.00000000000E+00 0. -1.
</event>
<event>
 7    1  0.2599124E-010  0.4778727E+02  0.7816164E-02  0.1312668E+00
        -11   -1    0    0    0    0  0.00000000000E+00  0.00000000000E+00  0.45593999997E+02  0.45594000000E+02  0.51100000000E-03 0.  1.
         11   -1    0    0    0    0 -0.00000000000E+00 -0.00000000000E+00 -0.45593999997E+02  0.45594000000E+02  0.51100000000E-03 0. -1.
    9900012    2    1    2    0    0 -0.32403121310E+02  0.34870931835E+01  0.28661842002E+02  0.47787271015E+02  0.19999999866E+02 0.  0.
         12    1    1    2    0    0  0.32403121310E+02 -0.34870931835E+01 -0.28661842002E+02  0.43400728985E+02  0.00000000000E+00 0. -1.
         11    1    3    3    0    0 -0.21283058055E+01  0.46051659607E+01  0.69691064546E+01  0.86200744871E+01  0.51100000000E-03 0. -1.
        -11    1    3    3    0    0 -0.12307048410E+02  0.15657485285E+01  0.15757235758E+02  0.20055061406E+02  0.51100000000E-03 0.  1.
        -12    1    3    3    0    0 -0.17967767095E+02 -0.26838213057E+01  0.59354997893E+01  0.19112135122E+02  0.00000000000E+00 0.  1.
</event>
<event>
 7    1  0.2599124E-010  0.4778727E+02  0.7816164E-02  0.1312668E+00
        -11   -1    0    0    0    0  0.00000000000E+00  0.00000000000E+00  0.45593999997E+02  0.45594000000E+02  0.51100000000E-03 0.  1.
         11   -1    0    0    0    0 -0.00000000000E+00 -0.00000000000E+00 -0.45593999997E+02  0.45594000000E+02  0.51100000000E-03 0. -1.
    9900012    2    1    2    0    0  0.91163611125E+01  0.39886668453E+02 -0.14476499766E+02  0.47787269526E+02  0.19999993078E+02 0.  0.
         12    1    1    2    0    0 -0.91163611125E+01 -0.39886668453E+02  0.14476499766E+02  0.43400730474E+02  0.00000000000E+00 0. -1.
         11    1    3    3    0    0 -0.33766855553E+01  0.23980498076E+02 -0.10615391334E+02  0.26441498194E+02  0.51100000000E-03 0. -1.
        -11    1    3    3    0    0  0.89425871764E+01  0.12404320875E+02 -0.52521297425E+01  0.16168546900E+02  0.51100000000E-03 0.  1.
         12    1    3    3    0    0  0.35504594915E+01  0.35018495018E+01  0.13910213102E+01  0.51772244320E+01  0.00000000000E+00 0. -1.
</event>
<event>
 7    1  0.2599124E-010  0.4778727E+02  0.7816164E-02  0.1312668E+00
        -11   -1    0    0    0    0  0.00000000000E+00  0.00000000000E+00  0.45593999997E+02  0.45594000000E+02  0.51100000000E-03 0.  1.
         11   -1    0    0    0    0 -0.00000000000E+00 -0.00000000000E+00 -0.45593999997E+02  0.45594000000E+02  0.51100000000E-03 0. -1.
    9900012    2    1    2    0    0 -0.10893542647E+02  0.25479060209E+02  0.33403165018E+02  0.47787271737E+02  0.20000003157E+02 0.  0.
         12    1    1    2    0    0  0.10893542647E+02 -0.25479060209E+02 -0.33403165018E+02  0.43400728263E+02  0.00000000000E+00 0. -1.
         11    1    3    3    0    0 -0.29749781763E+01  0.47696449647E+01  0.26475850857E+00  0.56276198848E+01  0.51100000000E-03 0. -1.
        -11    1    3    3    0    0 -0.77712488290E+01  0.16401983330E+02  0.15089197896E+02  0.23602992584E+02  0.51100000000E-03 0.  1.
        -12    1    3    3    0    0 -0.14731564142E+00  0.43074319143E+01  0.18049208614E+02  0.18556659268E+02  0.00000000000E+00 0.  1.
</event>
<event>
 7    1  0.2599124E-010  0.4778727E+02  0.7816164E-02  0.1312668E+00
        -11   -1    0    0    0    0  0.00000000000E+00  0.00000000000E+00  0.45593999997E+02  0.45594000000E+02  0.51100000000E-03 0.  1.
         11   -1    0    0    0    0 -0.00000000000E+00 -0.00000000000E+00 -0.45593999997E+02  0.45594000000E+02  0.51100000000E-03 0. -1.
    9900012    2    1    2    0    0 -0.32162838124E+02  0.30518400678E+01  0.28980365628E+02  0.47787268717E+02  0.19999989387E+02 0.  0.
         12    1    1    2    0    0  0.32162838124E+02 -0.30518400678E+01 -0.28980365628E+02  0.43400731283E+02  0.00000000000E+00 0. -1.
         11    1    3    3    0    0 -0.29239627546E+01  0.11439275477E+00  0.72739185039E+01  0.78404422424E+01  0.51100000000E-03 0. -1.
        -11    1    3    3    0    0  0.17774467533E+01 -0.11107977816E+01  0.49507688747E+00  0.21536689760E+01  0.51100000000E-03 0.  1.
        -12    1    3    3    0    0 -0.31016322123E+02  0.40482450946E+01  0.21211370236E+02  0.37793157498E+02  0.00000000000E+00 0.  1.
</event>
<event>
 7    1  0.2599124E-010  0.4778727E+02  0.7816164E-02  0.1312668E+00
        -11   -1    0    0    0    0  0.00000000000E+00  0.00000000000E+00  0.45593999997E+02  0.45594000000E+02  0.51100000000E-03 0.  1.
         11   -1    0    0    0    0 -0.00000000000E+00 -0.00000000000E+00 -0.45593999997E+02  0.45594000000E+02  0.51100000000E-03 0. -1.
    9900012    2    1    2    0    0  0.30529974500E+02 -0.26201384181E+02  0.16279798312E+02  0.47787266031E+02  0.19999977140E+02 0.  0.
         12    1    1    2    0    0 -0.30529974500E+02  0.26201384181E+02 -0.16279798312E+02  0.43400733969E+02  0.00000000000E+00 0. -1.
         11    1    3    3    0    0  0.23216138604E+01 -0.15072679315E+00 -0.16508242871E+00  0.23323511641E+01  0.51100000000E-03 0. -1.
        -11    1    3    3    0    0  0.22734395407E+02 -0.12217814698E+02  0.16398293085E+02  0.30578288815E+02  0.51100000000E-03 0.  1.
        -12    1    3    3    0    0  0.54739652329E+01 -0.13832842690E+02  0.46587655538E-01  0.14876626051E+02  0.00000000000E+00 0.  1.
</event>
<event>
 7    1  0.2599124E-010  0.4778727E+02  0.7816164E-02  0.1312668E+00
        -11   -1    0    0    0    0  0.00000000000E+00  0.00000000000E+00  0.45593999997E+02  0.45594000000E+02  0.51100000000E-03 0.  1.
         11   -1    0    0    0    0 -0.00000000000E+00 -0.00000000000E+00 -0.45593999997E+02  0.45594000000E+02  0.51100000000E-03 0. -1.
    9900012    2    1    2    0    0 -0.15672224651E+02 -0.37244330598E+02  0.15838699950E+02  0.47787271857E+02  0.20000003705E+02 0.  0.
         12    1    1    2    0    0  0.15672224651E+02  0.37244330598E+02 -0.15838699950E+02  0.43400728143E+02  0.00000000000E+00 0. -1.
         11    1    3    3    0    0 -0.92633530912E+01 -0.17826947463E+02  0.35392162254E+01  0.20399407297E+02  0.51100000000E-03 0. -1.
        -11    1    3    3    0    0 -0.60798397721E+01 -0.85512011094E+01 -0.61094251338E+00  0.10510030594E+02  0.51100000000E-03 0.  1.
         12    1    3    3    0    0 -0.32903178809E+00 -0.10866182026E+02  0.12910426238E+02  0.16877833966E+02  0.00000000000E+00 0. -1.
</event>
<event>
 7    1  0.2599124E-010  0.4778727E+02  0.7816164E-02  0.1312668E+00
        -11   -1    0    0    0    0  0.00000000000E+00  0.00000000000E+00  0.45593999997E+02  0.45594000000E+02  0.51100000000E-03 0. -1.
         11   -1    0    0    0    0 -0.00000000000E+00 -0.00000000000E+00 -0.45593999997E+02  0.45594000000E+02  0.51100000000E-03 0.  1.
    9900012    2    1    2    0    0 -0.21874575934E+02  0.29103694968E+02 -0.23624163072E+02  0.47787271735E+02  0.20000003149E+02 0.  0.
         12    1    1    2    0    0  0.21874575934E+02 -0.29103694968E+02  0.23624163072E+02  0.43400728265E+02  0.00000000000E+00 0. -1.
         11    1    3    3    0    0 -0.22449754198E+01  0.64014111049E+01 -0.80168068506E+00  0.68308616551E+01  0.51100000000E-03 0. -1.
        -11    1    3    3    0    0 -0.72165693726E+01  0.16056678064E+02 -0.51121245139E+01  0.18331110202E+02  0.51100000000E-03 0.  1.
        -12    1    3    3    0    0 -0.12413031142E+02  0.66456057994E+01 -0.17710357873E+02  0.22625299878E+02  0.00000000000E+00 0.  1.
</event>
<event>
 7    1  0.2599124E-010  0.4778727E+02  0.7816164E-02  0.1312668E+00
        -11   -1    0    0    0    0  0.00000000000E+00  0.00000000000E+00  0.45593999997E+02  0.45594000000E+02  0.51100000000E-03 0. -1.
         11   -1    0    0    0    0 -0.00000000000E+00 -0.00000000000E+00 -0.45593999997E+02  0.45594000000E+02  0.51100000000E-03 0.  1.
    9900012    2    1    2    0    0 -0.16878406388E+02  0.39152951061E+02 -0.81110381666E+01  0.47787272827E+02  0.20000008128E+02 0.  0.
         12    1    1    2    0    0  0.16878406388E+02 -0.39152951061E+02  0.81110381666E+01  0.43400727173E+02  0.00000000000E+00 0. -1.
         11    1    3    3    0    0 -0.47879740236E+01  0.14146448657E+01 -0.18946430422E+00  0.49961797736E+01  0.51100000000E-03 0. -1.
        -11    1    3    3    0    0 -0.12997382514E+02  0.21563142812E+02 -0.85187880044E+01  0.26579518985E+02  0.51100000000E-03 0.  1.
         12    1    3    3    0    0  0.90695014919E+00  0.16175163383E+02  0.59721414202E+00  0.16211574068E+02  0.00000000000E+00 0. -1.
</event>
<event>
 7    1  0.2599124E-010  0.4778728E+02  0.7816164E-02  0.1312668E+00
        -11   -1    0    0    0    0  0.00000000000E+00  0.00000000000E+00  0.45593999997E+02  0.45594000000E+02  0.51100000000E-03 0. -1.
         11   -1    0    0    0    0 -0.00000000000E+00 -0.00000000000E+00 -0.45593999997E+02  0.45594000000E+02  0.51100000000E-03 0.  1.
    9900012    2    1    2    0    0  0.39089031367E+02  0.16996111174E+02  0.81732932010E+01  0.47787275467E+02  0.20000020166E+02 0.  0.
         12    1    1    2    0    0 -0.39089031367E+02 -0.16996111174E+02 -0.81732932010E+01  0.43400724533E+02  0.00000000000E+00 0. -1.
         11    1    3    3    0    0 -0.19368984673E+01  0.56171889097E-01  0.18987656330E+01  0.27129397604E+01  0.51100000000E-03 0. -1.
        -11    1    3    3    0    0  0.83056170622E+01  0.55371258881E+01  0.11840644636E+01  0.10052116533E+02  0.51100000000E-03 0.  1.
        -12    1    3    3    0    0  0.32720312772E+02  0.11402813396E+02  0.50904631044E+01  0.35022219174E+02  0.00000000000E+00 0.  1.
</event>
<event>
 7    1  0.2599124E-010  0.4778724E+02  0.7816164E-02  0.1312668E+00
        -11   -1    0    0    0    0  0.00000000000E+00  0.00000000000E+00  0.45593999997E+02  0.45594000000E+02  0.51100000000E-03 0.  1.
         11   -1    0    0    0    0 -0.00000000000E+00 -0.00000000000E+00 -0.45593999997E+02  0.45594000000E+02  0.51100000000E-03 0. -1.
    9900012    2    1    2    0    0  0.32045272615E+02  0.55303406803E+01  0.28742685665E+02  0.47787237976E+02  0.19999849229E+02 0.  0.
         12    1    1    2    0    0 -0.32045272615E+02 -0.55303406803E+01 -0.28742685665E+02  0.43400762024E+02  0.00000000000E+00 0. -1.
         11    1    3    3    0    0  0.68433810556E+01  0.23748650427E+01  0.85820882537E+01  0.11230498088E+02  0.51100000000E-03 0. -1.
        -11    1    3    3    0    0  0.19692940838E+02  0.54251889353E+01  0.22285862575E+02  0.30230849554E+02  0.51100000000E-03 0.  1.
         12    1    3    3    0    0  0.55089507216E+01 -0.22697132978E+01 -0.21252651633E+01  0.63258903343E+01  0.00000000000E+00 0. -1.
</event>
<event>
 7    1  0.2599124E-010  0.4778727E+02  0.7816164E-02  0.1312668E+00
        -11   -1    0    0    0    0  0.00000000000E+00  0.00000000000E+00  0.45593999997E+02  0.45594000000E+02  0.51100000000E-03 0.  1.
         11   -1    0    0    0    0 -0.00000000000E+00 -0.00000000000E+00 -0.45593999997E+02  0.45594000000E+02  0.51100000000E-03 0. -1.
    9900012    2    1    2    0    0 -0.24069186006E+02  0.25365393026E+02  0.25707871889E+02  0.47787267801E+02  0.19999985211E+02 0.  0.
         12    1    1    2    0    0  0.24069186006E+02 -0.25365393026E+02 -0.25707871889E+02  0.43400732199E+02  0.00000000000E+00 0. -1.
         11    1    3    3    0    0  0.19607530319E+01  0.39304854514E+01 -0.63279252576E-01  0.43928661328E+01  0.51100000000E-03 0. -1.
        -11    1    3    3    0    0 -0.39512367322E+01  0.12810607967E+00  0.13446103984E+01  0.41757227239E+01  0.51100000000E-03 0.  1.
        -12    1    3    3    0    0 -0.22078702306E+02  0.21306801495E+02  0.24426540744E+02  0.39218678944E+02  0.00000000000E+00 0.  1.
</event>
<event>
 7    1  0.2599124E-010  0.4778727E+02  0.7816164E-02  0.1312668E+00
        -11   -1    0    0    0    0  0.00000000000E+00  0.00000000000E+00  0.45593999997E+02  0.45594000000E+02  0.51100000000E-03 0.  1.
         11   -1    0    0    0    0 -0.00000000000E+00 -0.00000000000E+00 -0.45593999997E+02  0.45594000000E+02  0.51100000000E-03 0. -1.
    9900012    2    1    2    0    0 -0.23845040049E+02 -0.35914776855E+02 -0.50166186596E+01  0.47787267353E+02  0.19999983172E+02 0.  0.
         12    1    1    2    0    0  0.23845040049E+02  0.35914776855E+02  0.50166186596E+01  0.43400732647E+02  0.00000000000E+00 0. -1.
         11    1    3    3    0    0 -0.11157804293E+02 -0.12583559649E+02 -0.37123262336E+01  0.17222773773E+02  0.51100000000E-03 0.  1.
        -11    1    3    3    0    0 -0.14767822384E+02 -0.22453527953E+02 -0.38640419085E+01  0.27151064724E+02  0.51100000000E-03 0. -1.
         12    1    3    3    0    0  0.20805866291E+01 -0.87768925239E+00  0.25597494826E+01  0.34134288565E+01  0.00000000000E+00 0. -1.
</event>
<event>
 7    1  0.2599124E-010  0.4778728E+02  0.7816164E-02  0.1312668E+00
        -11   -1    0    0    0    0  0.00000000000E+00  0.00000000000E+00  0.45593999997E+02  0.45594000000E+02  0.51100000000E-03 0. -1.
         11   -1    0    0    0    0 -0.00000000000E+00 -0.00000000000E+00 -0.45593999997E+02  0.45594000000E+02  0.51100000000E-03 0.  1.
    9900012    2    1    2    0    0 -0.39561655601E+02  0.15841505474E+02 -0.82185644427E+01  0.47787277758E+02  0.20000030611E+02 0.  0.
         12    1    1    2    0    0  0.39561655601E+02 -0.15841505474E+02  0.82185644427E+01  0.43400722242E+02  0.00000000000E+00 0. -1.
         11    1    3    3    0    0 -0.16924412894E+02  0.66414722358E+01  0.36504625041E+01  0.18543753180E+02  0.51100000000E-03 0. -1.
        -11    1    3    3    0    0 -0.71044111386E+01  0.76101372652E+01 -0.15447279941E+01  0.10524876800E+02  0.51100000000E-03 0.  1.
         12    1    3    3    0    0 -0.15532831569E+02  0.15898959731E+01 -0.10324298953E+02  0.18718647778E+02  0.00000000000E+00 0. -1.
</event>
<event>
 7    1  0.2599124E-010  0.4778727E+02  0.7816164E-02  0.1312668E+00
        -11   -1    0    0    0    0  0.00000000000E+00  0.00000000000E+00  0.45593999997E+02  0.45594000000E+02  0.51100000000E-03 0.  1.
         11   -1    0    0    0    0 -0.00000000000E+00 -0.00000000000E+00 -0.45593999997E+02  0.45594000000E+02  0.51100000000E-03 0. -1.
    9900012    2    1    2    0    0 -0.10530706582E+02  0.20660093156E+02  0.36686349252E+02  0.47787268995E+02  0.19999990657E+02 0.  0.
         12    1    1    2    0    0  0.10530706582E+02 -0.20660093156E+02 -0.36686349252E+02  0.43400731005E+02  0.00000000000E+00 0. -1.
         11    1    3    3    0    0 -0.26850178085E+01  0.11123061851E+02  0.42429380751E+01  0.12203866163E+02  0.51100000000E-03 0.  1.
        -11    1    3    3    0    0 -0.68039439288E+01  0.25251419037E+01  0.13008248196E+02  0.14895788533E+02  0.51100000000E-03 0. -1.
        -12    1    3    3    0    0 -0.10417448446E+01  0.70118894015E+01  0.19435162981E+02  0.20687614299E+02  0.00000000000E+00 0.  1.
</event>
<event>
 7    1  0.2599124E-010  0.4778726E+02  0.7816164E-02  0.1312668E+00
        -11   -1    0    0    0    0  0.00000000000E+00  0.00000000000E+00  0.45593999997E+02  0.45594000000E+02  0.51100000000E-03 0.  1.
         11   -1    0    0    0    0 -0.00000000000E+00 -0.00000000000E+00 -0.45593999997E+02  0.45594000000E+02  0.51100000000E-03 0. -1.
    9900012    2    1    2    0    0  0.60587113552E+01 -0.15049467068E+02  0.40254561303E+02  0.47787260974E+02  0.19999954084E+02 0.  0.
         12    1    1    2    0    0 -0.60587113552E+01  0.15049467068E+02 -0.40254561303E+02  0.43400739026E+02  0.00000000000E+00 0. -1.
         11    1    3    3    0    0  0.37177164584E+01  0.18309603283E+01  0.24744657177E+01  0.48266771425E+01  0.51100000000E-03 0. -1.
        -11    1    3    3    0    0  0.60743914016E+01 -0.51410165532E+01  0.17637183855E+02  0.19349380783E+02  0.51100000000E-03 0.  1.
        -12    1    3    3    0    0 -0.37333965049E+01 -0.11739410843E+02  0.20142911730E+02  0.23611203048E+02  0.00000000000E+00 0.  1.
</event>
<event>
 7    1  0.2599124E-010  0.4778728E+02  0.7816164E-02  0.1312668E+00
        -11   -1    0    0    0    0  0.00000000000E+00  0.00000000000E+00  0.45593999997E+02  0.45594000000E+02  0.51100000000E-03 0.  1.
         11   -1    0    0    0    0 -0.00000000000E+00 -0.00000000000E+00 -0.45593999997E+02  0.45594000000E+02  0.51100000000E-03 0. -1.
    9900012    2    1    2    0    0  0.11944975976E+02 -0.20078854530E+02  0.36575673821E+02  0.47787276898E+02  0.20000026690E+02 0.  0.
         12    1    1    2    0    0 -0.11944975976E+02  0.20078854530E+02 -0.36575673821E+02  0.43400723102E+02  0.00000000000E+00 0. -1.
         11    1    3    3    0    0  0.35609277580E+00  0.11434662222E+00  0.96148222154E+01  0.96220935201E+01  0.51100000000E-03 0. -1.
        -11    1    3    3    0    0  0.16382384293E+01 -0.11446396318E+02  0.20238487561E+02  0.23308800759E+02  0.51100000000E-03 0.  1.
         12    1    3    3    0    0  0.99506447711E+01 -0.87468048348E+01  0.67223640447E+01  0.14856382619E+02  0.00000000000E+00 0. -1.
</event>
<event>
 7    1  0.2599124E-010  0.4778727E+02  0.7816164E-02  0.1312668E+00
        -11   -1    0    0    0    0  0.00000000000E+00  0.00000000000E+00  0.45593999997E+02  0.45594000000E+02  0.51100000000E-03 0.  1.
         11   -1    0    0    0    0 -0.00000000000E+00 -0.00000000000E+00 -0.45593999997E+02  0.45594000000E+02  0.51100000000E-03 0. -1.
    9900012    2    1    2    0    0  0.60217767049E+01  0.29314154284E+02  0.31433131394E+02  0.47787272065E+02  0.20000004651E+02 0.  0.
         12    1    1    2    0    0 -0.60217767049E+01 -0.29314154284E+02 -0.31433131394E+02  0.43400727935E+02  0.00000000000E+00 0. -1.
         11    1    3    3    0    0  0.58005275114E+01  0.16394551563E+02  0.12708764621E+02  0.21539269691E+02  0.51100000000E-03 0. -1.
        -11    1    3    3    0    0  0.36514276776E+01  0.14238808034E+02  0.14479964839E+02  0.20633612392E+02  0.51100000000E-03 0.  1.
        -12    1    3    3    0    0 -0.34301784841E+01 -0.13192053133E+01  0.42444019337E+01  0.56143899817E+01  0.00000000000E+00 0.  1.
</event>
<event>
 7    1  0.2599124E-010  0.4778727E+02  0.7816164E-02  0.1312668E+00
        -11   -1    0    0    0    0  0.00000000000E+00  0.00000000000E+00  0.45593999997E+02  0.45594000000E+02  0.51100000000E-03 0.  1.
         11   -1    0    0    0    0 -0.00000000000E+00 -0.00000000000E+00 -0.45593999997E+02  0.45594000000E+02  0.51100000000E-03 0. -1.
    9900012    2    1    2    0    0  0.30685960605E+01 -0.35590708297E+02  0.24647686049E+02  0.47787271591E+02  0.20000002492E+02 0.  0.
         12    1    1    2    0    0 -0.30685960605E+01  0.35590708297E+02 -0.24647686049E+02  0.43400728409E+02  0.00000000000E+00 0. -1.
         11    1    3    3    0    0 -0.25096564116E+01 -0.41670637390E+01  0.11121948142E+02  0.12139214400E+02  0.51100000000E-03 0. -1.
        -11    1    3    3    0    0 -0.46687931539E+00 -0.33448315066E+01 -0.91637178774E+00  0.34993730320E+01  0.51100000000E-03 0.  1.
        -12    1    3    3    0    0  0.60451317876E+01 -0.28078813052E+02  0.14442109694E+02  0.32148684159E+02  0.00000000000E+00 0.  1.
</event>
<event>
 7    1  0.2599124E-010  0.4778727E+02  0.7816164E-02  0.1312668E+00
        -11   -1    0    0    0    0  0.00000000000E+00  0.00000000000E+00  0.45593999997E+02  0.45594000000E+02  0.51100000000E-03 0.  1.
         11   -1    0    0    0    0 -0.00000000000E+00 -0.00000000000E+00 -0.45593999997E+02  0.45594000000E+02  0.51100000000E-03 0. -1.
    9900012    2    1    2    0    0 -0.76862318951E+01 -0.21961445628E+02  0.36636594411E+02  0.47787270688E+02  0.19999998374E+02 0.  0.
         12    1    1    2    0    0  0.76862318951E+01  0.21961445628E+02 -0.36636594411E+02  0.43400729312E+02  0.00000000000E+00 0. -1.
         11    1    3    3    0    0 -0.71439284223E+01 -0.37743924269E+01  0.98611621936E+01  0.12748500758E+02  0.51100000000E-03 0. -1.
        -11    1    3    3    0    0 -0.36808252887E+01 -0.12896013945E+02  0.88016528175E+01  0.16041344802E+02  0.51100000000E-03 0.  1.
         12    1    3    3    0    0  0.31385218159E+01 -0.52910392560E+01  0.17973779400E+02  0.18997425129E+02  0.00000000000E+00 0. -1.
</event>
<event>
 7    1  0.2599124E-010  0.4778727E+02  0.7816164E-02  0.1312668E+00
        -11   -1    0    0    0    0  0.00000000000E+00  0.00000000000E+00  0.45593999997E+02  0.45594000000E+02  0.51100000000E-03 0. -1.
         11   -1    0    0    0    0 -0.00000000000E+00 -0.00000000000E+00 -0.45593999997E+02  0.45594000000E+02  0.51100000000E-03 0.  1.
    9900012    2    1    2    0    0  0.12900929554E+02 -0.39431443136E+02 -0.12741691460E+02  0.47787269679E+02  0.19999993774E+02 0.  0.
         12    1    1    2    0    0 -0.12900929554E+02  0.39431443136E+02  0.12741691460E+02  0.43400730321E+02  0.00000000000E+00 0. -1.
         11    1    3    3    0    0  0.69743015982E+01 -0.67314375481E+01  0.52720211213E+00  0.97072692646E+01  0.51100000000E-03 0. -1.
        -11    1    3    3    0    0  0.80018153683E+01 -0.96082016593E+01 -0.49452409256E+01  0.13446263287E+02  0.51100000000E-03 0.  1.
         12    1    3    3    0    0 -0.20751874125E+01 -0.23091803929E+02 -0.83236526461E+01  0.24633737127E+02  0.00000000000E+00 0. -1.
</event>
<event>
 7    1  0.2599124E-010  0.4778727E+02  0.7816164E-02  0.1312668E+00
        -11   -1    0    0    0    0  0.00000000000E+00  0.00000000000E+00  0.45593999997E+02  0.45594000000E+02  0.51100000000E-03 0.  1.
         11   -1    0    0    0    0 -0.00000000000E+00 -0.00000000000E+00 -0.45593999997E+02  0.45594000000E+02  0.51100000000E-03 0. -1.
    9900012    2    1    2    0    0 -0.30732582832E+02 -0.24809215017E+01  0.30544671175E+02  0.47787267791E+02  0.19999985168E+02 0.  0.
         12    1    1    2    0    0  0.30732582832E+02  0.24809215017E+01 -0.30544671175E+02  0.43400732209E+02  0.00000000000E+00 0. -1.
         11    1    3    3    0    0 -0.71744978392E+00  0.21469149276E+01 -0.27727663958E+00  0.22805395183E+01  0.51100000000E-03 0. -1.
        -11    1    3    3    0    0 -0.15081094487E+00  0.26975664285E+01  0.20030470395E+01  0.33633028827E+01  0.51100000000E-03 0.  1.
        -12    1    3    3    0    0 -0.29864322104E+02 -0.73254028577E+01  0.28818900775E+02  0.42143425390E+02  0.00000000000E+00 0.  1.
</event>
<event>
 7    1  0.2599124E-010  0.4778727E+02  0.7816164E-02  0.1312668E+00
        -11   -1    0    0    0    0  0.00000000000E+00  0.00000000000E+00  0.45593999997E+02  0.45594000000E+02  0.51100000000E-03 0. -1.
         11   -1    0    0    0    0 -0.00000000000E+00 -0.00000000000E+00 -0.45593999997E+02  0.45594000000E+02  0.51100000000E-03 0.  1.
    9900012    2    1    2    0    0  0.62433359457E+01  0.32938332957E+02 -0.27562845841E+02  0.47787268525E+02  0.19999988511E+02 0.  0.
         12    1    1    2    0    0 -0.62433359457E+01 -0.32938332957E+02  0.27562845841E+02  0.43400731475E+02  0.00000000000E+00 0. -1.
         11    1    3    3    0    0  0.21551478743E+01  0.11293149327E+02 -0.20416419000E+02  0.23430963469E+02  0.51100000000E-03 0. -1.
        -11    1    3    3    0    0 -0.15593458347E+01  0.10112540336E+02 -0.48020096390E+01  0.11302846027E+02  0.51100000000E-03 0.  1.
         12    1    3    3    0    0  0.56475339061E+01  0.11532643295E+02 -0.23444172025E+01  0.13053459028E+02  0.00000000000E+00 0. -1.
</event>
<event>
 7    1  0.2599124E-010  0.4778727E+02  0.7816164E-02  0.1312668E+00
        -11   -1    0    0    0    0  0.00000000000E+00  0.00000000000E+00  0.45593999997E+02  0.45594000000E+02  0.51100000000E-03 0.  1.
         11   -1    0    0    0    0 -0.00000000000E+00 -0.00000000000E+00 -0.45593999997E+02  0.45594000000E+02  0.51100000000E-03 0. -1.
    9900012    2    1    2    0    0 -0.30306330496E+01 -0.43247700667E+02  0.20186979180E+01  0.47787268543E+02  0.19999988596E+02 0.  0.
         12    1    1    2    0    0  0.30306330496E+01  0.43247700667E+02 -0.20186979180E+01  0.43400731457E+02  0.00000000000E+00 0. -1.
         11    1    3    3    0    0  0.10276069695E+01 -0.71964844371E+00 -0.31136590952E+01  0.33568948731E+01  0.51100000000E-03 0. -1.
        -11    1    3    3    0    0  0.15668263497E+01 -0.45961703072E+01 -0.22951341363E+01  0.53709745175E+01  0.51100000000E-03 0.  1.
        -12    1    3    3    0    0 -0.56250663688E+01 -0.37931881917E+02  0.74274911495E+01  0.39059399153E+02  0.00000000000E+00 0.  1.
</event>
<event>
 7    1  0.2599124E-010  0.4778727E+02  0.7816164E-02  0.1312668E+00
        -11   -1    0    0    0    0  0.00000000000E+00  0.00000000000E+00  0.45593999997E+02  0.45594000000E+02  0.51100000000E-03 0. -1.
         11   -1    0    0    0    0 -0.00000000000E+00 -0.00000000000E+00 -0.45593999997E+02  0.45594000000E+02  0.51100000000E-03 0.  1.
    9900012    2    1    2    0    0 -0.26644339844E+02 -0.31563850607E+02  0.13320122194E+02  0.47787272286E+02  0.20000005661E+02 0.  0.
         12    1    1    2    0    0  0.26644339844E+02  0.31563850607E+02 -0.13320122194E+02  0.43400727714E+02  0.00000000000E+00 0. -1.
         11    1    3    3    0    0  0.47289738978E-01 -0.84175073187E+00 -0.26847073895E+00  0.88479229925E+00  0.51100000000E-03 0. -1.
        -11    1    3    3    0    0 -0.93684064302E+01 -0.20388535323E+02 -0.25227445470E+00  0.22439319382E+02  0.51100000000E-03 0.  1.
         12    1    3    3    0    0 -0.17323223153E+02 -0.10333564552E+02  0.13840867387E+02  0.24463160605E+02  0.00000000000E+00 0. -1.
</event>
<event>
 7    1  0.3581364E-010  0.4778728E+02  0.7816164E-02  0.1312668E+00
        -11   -1    0    0    0    0  0.00000000000E+00  0.00000000000E+00  0.45593999997E+02  0.45594000000E+02  0.51100000000E-03 0. -1.
         11   -1    0    0    0    0 -0.00000000000E+00 -0.00000000000E+00 -0.45593999997E+02  0.45594000000E+02  0.51100000000E-03 0.  1.
    9900012    2    1    2    0    0 -0.17943959713E+02 -0.10409393753E+02 -0.38121926665E+02  0.47787280407E+02  0.20000042689E+02 0.  0.
         12    1    1    2    0    0  0.17943959713E+02  0.10409393753E+02  0.38121926665E+02  0.43400719593E+02  0.00000000000E+00 0. -1.
         11    1    3    3    0    0 -0.96879634541E+01 -0.14868619172E+01 -0.48460923813E+01  0.10933983989E+02  0.51100000000E-03 0. -1.
        -11    1    3    3    0    0 -0.56255439269E+01  0.72937468898E+00 -0.14669451569E+02  0.15728049514E+02  0.51100000000E-03 0.  1.
        -12    1    3    3    0    0 -0.26304523325E+01 -0.96519065251E+01 -0.18606382715E+02  0.21125246904E+02  0.00000000000E+00 0.  1.
</event>
<event>
 7    1  0.2599124E-010  0.4778728E+02  0.7816164E-02  0.1312668E+00
        -11   -1    0    0    0    0  0.00000000000E+00  0.00000000000E+00  0.45593999997E+02  0.45594000000E+02  0.51100000000E-03 0.  1.
         11   -1    0    0    0    0 -0.00000000000E+00 -0.00000000000E+00 -0.45593999997E+02  0.45594000000E+02  0.51100000000E-03 0. -1.
    9900012    2    1    2    0    0  0.34176811187E+02 -0.57718485147E+01  0.26119996474E+02  0.47787275652E+02  0.20000021007E+02 0.  0.
         12    1    1    2    0    0 -0.34176811187E+02  0.57718485147E+01 -0.26119996474E+02  0.43400724348E+02  0.00000000000E+00 0. -1.
         11    1    3    3    0    0  0.27099140031E+02  0.76825817261E+00  0.14764628645E+02  0.30869853746E+02  0.51100000000E-03 0. -1.
        -11    1    3    3    0    0  0.85182715002E+01 -0.57005711160E+01  0.74506620204E+01  0.12671614941E+02  0.51100000000E-03 0.  1.
         12    1    3    3    0    0 -0.14406003449E+01 -0.83953557129E+00  0.39047058087E+01  0.42458069647E+01  0.00000000000E+00 0. -1.
</event>
<event>
 7    1  0.2599124E-010  0.4778727E+02  0.7816164E-02  0.1312668E+00
        -11   -1    0    0    0    0  0.00000000000E+00  0.00000000000E+00  0.45593999997E+02  0.45594000000E+02  0.51100000000E-03 0. -1.
         11   -1    0    0    0    0 -0.00000000000E+00 -0.00000000000E+00 -0.45593999997E+02  0.45594000000E+02  0.51100000000E-03 0.  1.
    9900012    2    1    2    0    0 -0.39575102725E+02  0.17729245029E+02 -0.17631177661E+01  0.47787268793E+02  0.19999989735E+02 0.  0.
         12    1    1    2    0    0  0.39575102725E+02 -0.17729245029E+02  0.17631177661E+01  0.43400731207E+02  0.00000000000E+00 0. -1.
         11    1    3    3    0    0 -0.34248750610E+01  0.51781478885E+01  0.11168319736E+01  0.63079551882E+01  0.51100000000E-03 0. -1.
        -11    1    3    3    0    0 -0.19525644374E+02  0.14820777980E+02 -0.38791431953E+00  0.24516458266E+02  0.51100000000E-03 0.  1.
         12    1    3    3    0    0 -0.16624583291E+02 -0.22696808390E+01 -0.24920354202E+01  0.16962855339E+02  0.00000000000E+00 0. -1.
</event>
<event>
 7    1  0.2599124E-010  0.4778727E+02  0.7816164E-02  0.1312668E+00
        -11   -1    0    0    0    0  0.00000000000E+00  0.00000000000E+00  0.45593999997E+02  0.45594000000E+02  0.51100000000E-03 0.  1.
         11   -1    0    0    0    0 -0.00000000000E+00 -0.00000000000E+00 -0.45593999997E+02  0.45594000000E+02  0.51100000000E-03 0. -1.
    9900012    2    1    2    0    0 -0.28032366127E+02  0.92103186083E+01  0.31827347187E+02  0.47787267881E+02  0.19999985575E+02 0.  0.
         12    1    1    2    0    0  0.28032366127E+02 -0.92103186083E+01 -0.31827347187E+02  0.43400732119E+02  0.00000000000E+00 0. -1.
         11    1    3    3    0    0  0.14167033390E+01 -0.33306445732E+00 -0.12506065338E+01  0.19188531072E+01  0.51100000000E-03 0. -1.
        -11    1    3    3    0    0 -0.83241525039E+01 -0.51960204358E+00  0.96860218196E+01  0.12782038967E+02  0.51100000000E-03 0.  1.
         12    1    3    3    0    0 -0.21124916962E+02  0.10062985109E+02  0.23391931901E+02  0.33086375807E+02  0.00000000000E+00 0. -1.
</event>
<event>
 7    1  0.2599124E-010  0.4778727E+02  0.7816164E-02  0.1312668E+00
        -11   -1    0    0    0    0  0.00000000000E+00  0.00000000000E+00  0.45593999997E+02  0.45594000000E+02  0.51100000000E-03 0.  1.
         11   -1    0    0    0    0 -0.00000000000E+00 -0.00000000000E+00 -0.45593999997E+02  0.45594000000E+02  0.51100000000E-03 0. -1.
    9900012    2    1    2    0    0  0.38801902321E+02 -0.10697808385E+02  0.16235548110E+02  0.47787265555E+02  0.19999974970E+02 0.  0.
         12    1    1    2    0    0 -0.38801902321E+02  0.10697808385E+02 -0.16235548110E+02  0.43400734445E+02  0.00000000000E+00 0. -1.
         11    1    3    3    0    0  0.16602562201E+02 -0.55083653129E+01  0.14509776759E+01  0.17552563817E+02  0.51100000000E-03 0. -1.
        -11    1    3    3    0    0  0.18607743199E+02  0.14327889548E+01  0.89054882322E+01  0.20678701895E+02  0.51100000000E-03 0.  1.
        -12    1    3    3    0    0  0.35915969211E+01 -0.66222320274E+01  0.58790822014E+01  0.95559998430E+01  0.00000000000E+00 0.  1.
</event>
<event>
 7    1  0.2599124E-010  0.4778727E+02  0.7816164E-02  0.1312668E+00
        -11   -1    0    0    0    0  0.00000000000E+00  0.00000000000E+00  0.45593999997E+02  0.45594000000E+02  0.51100000000E-03 0. -1.
         11   -1    0    0    0    0 -0.00000000000E+00 -0.00000000000E+00 -0.45593999997E+02  0.45594000000E+02  0.51100000000E-03 0.  1.
    9900012    2    1    2    0    0 -0.23399897864E+02  0.14492871552E+02 -0.33556293376E+02  0.47787269925E+02  0.19999994896E+02 0.  0.
         12    1    1    2    0    0  0.23399897864E+02 -0.14492871552E+02  0.33556293376E+02  0.43400730075E+02  0.00000000000E+00 0. -1.
         11    1    3    3    0    0 -0.19156345957E+02  0.15082215712E+02 -0.18885734310E+02  0.30840067799E+02  0.51100000000E-03 0.  1.
        -11    1    3    3    0    0 -0.63818943379E+00  0.92862270521E+00  0.53440410968E+00  0.12470821527E+01  0.51100000000E-03 0. -1.
        -12    1    3    3    0    0 -0.36053624740E+01 -0.15179668648E+01 -0.15204963177E+02  0.15700119973E+02  0.00000000000E+00 0.  1.
</event>
<event>
 7    1  0.2599124E-010  0.4778727E+02  0.7816164E-02  0.1312668E+00
        -11   -1    0    0    0    0  0.00000000000E+00  0.00000000000E+00  0.45593999997E+02  0.45594000000E+02  0.51100000000E-03 0.  1.
         11   -1    0    0    0    0 -0.00000000000E+00 -0.00000000000E+00 -0.45593999997E+02  0.45594000000E+02  0.51100000000E-03 0. -1.
    9900012    2    1    2    0    0 -0.39105721952E+02 -0.10215037389E+02  0.15811983021E+02  0.47787270913E+02  0.19999999400E+02 0.  0.
         12    1    1    2    0    0  0.39105721952E+02  0.10215037389E+02 -0.15811983021E+02  0.43400729087E+02  0.00000000000E+00 0. -1.
         11    1    3    3    0    0 -0.72241164629E+01  0.15375805177E+00 -0.34925474117E+01  0.80255459560E+01  0.51100000000E-03 0. -1.
        -11    1    3    3    0    0 -0.57476896910E+01 -0.50921679760E+01  0.18615009093E+01  0.79013478202E+01  0.51100000000E-03 0.  1.
        -12    1    3    3    0    0 -0.26133915798E+02 -0.52766274649E+01  0.17443029523E+02  0.31860377137E+02  0.00000000000E+00 0.  1.
</event>
<event>
 7    1  0.2599124E-010  0.4778727E+02  0.7816164E-02  0.1312668E+00
        -11   -1    0    0    0    0  0.00000000000E+00  0.00000000000E+00  0.45593999997E+02  0.45594000000E+02  0.51100000000E-03 0. -1.
         11   -1    0    0    0    0 -0.00000000000E+00 -0.00000000000E+00 -0.45593999997E+02  0.45594000000E+02  0.51100000000E-03 0.  1.
    9900012    2    1    2    0    0 -0.15091573242E+02  0.29908446867E+02 -0.27592616961E+02  0.47787270885E+02  0.19999999275E+02 0.  0.
         12    1    1    2    0    0  0.15091573242E+02 -0.29908446867E+02  0.27592616961E+02  0.43400729115E+02  0.00000000000E+00 0. -1.
         11    1    3    3    0    0 -0.32124221900E+01  0.22417864883E+00 -0.66084961933E+00  0.32873446539E+01  0.51100000000E-03 0. -1.
        -11    1    3    3    0    0 -0.11006784332E+02  0.19486608486E+02 -0.25874395019E+02  0.34210547051E+02  0.51100000000E-03 0.  1.
         12    1    3    3    0    0 -0.87236672007E+00  0.10197659732E+02 -0.10573723228E+01  0.10289379181E+02  0.00000000000E+00 0. -1.
</event>
<event>
 7    1  0.2599124E-010  0.4778727E+02  0.7816164E-02  0.1312668E+00
        -11   -1    0    0    0    0  0.00000000000E+00  0.00000000000E+00  0.45593999997E+02  0.45594000000E+02  0.51100000000E-03 0.  1.
         11   -1    0    0    0    0 -0.00000000000E+00 -0.00000000000E+00 -0.45593999997E+02  0.45594000000E+02  0.51100000000E-03 0. -1.
    9900012    2    1    2    0    0 -0.17194631830E+02 -0.27228840384E+02  0.29095679812E+02  0.47787266180E+02  0.19999977820E+02 0.  0.
         12    1    1    2    0    0  0.17194631830E+02  0.27228840384E+02 -0.29095679812E+02  0.43400733820E+02  0.00000000000E+00 0. -1.
         11    1    3    3    0    0  0.90229388101E+00 -0.17439732815E+01  0.72732051982E+01  0.75335974919E+01  0.51100000000E-03 0. -1.
        -11    1    3    3    0    0 -0.72175836164E+01 -0.18733666899E+01  0.74824223464E+01  0.10563600733E+02  0.51100000000E-03 0.  1.
        -12    1    3    3    0    0 -0.10879342094E+02 -0.23611500413E+02  0.14340052267E+02  0.29690067955E+02  0.00000000000E+00 0.  1.
</event>
<event>
 7    1  0.2599124E-010  0.4778721E+02  0.7816164E-02  0.1312668E+00
        -11   -1    0    0    0    0  0.00000000000E+00  0.00000000000E+00  0.45593999997E+02  0.45594000000E+02  0.51100000000E-03 0. -1.
         11   -1    0    0    0    0 -0.00000000000E+00 -0.00000000000E+00 -0.45593999997E+02  0.45594000000E+02  0.51100000000E-03 0.  1.
    9900012    2    1    2    0    0  0.30608194676E+02 -0.15081381793E+00 -0.30769207405E+02  0.47787211407E+02  0.19999728089E+02 0.  0.
         12    1    1    2    0    0 -0.30608194676E+02  0.15081381793E+00  0.30769207405E+02  0.43400788593E+02  0.00000000000E+00 0. -1.
         11    1    3    3    0    0  0.16768946499E+02 -0.53515529954E+00 -0.19749328265E+02  0.25913701493E+02  0.51100000000E-03 0. -1.
        -11    1    3    3    0    0  0.68470495512E+01  0.52355050708E+01 -0.10154433720E+02  0.13319351536E+02  0.51100000000E-03 0.  1.
         12    1    3    3    0    0  0.69921986264E+01 -0.48511635892E+01 -0.86544542025E+00  0.85541583792E+01  0.00000000000E+00 0. -1.
</event>
<event>
 7    1  0.2599124E-010  0.4778727E+02  0.7816164E-02  0.1312668E+00
        -11   -1    0    0    0    0  0.00000000000E+00  0.00000000000E+00  0.45593999997E+02  0.45594000000E+02  0.51100000000E-03 0.  1.
         11   -1    0    0    0    0 -0.00000000000E+00 -0.00000000000E+00 -0.45593999997E+02  0.45594000000E+02  0.51100000000E-03 0. -1.
    9900012    2    1    2    0    0  0.12156922960E-01  0.64302323802E+01  0.42921733068E+02  0.47787271828E+02  0.20000003573E+02 0.  0.
         12    1    1    2    0    0 -0.12156922960E-01 -0.64302323802E+01 -0.42921733068E+02  0.43400728172E+02  0.00000000000E+00 0. -1.
         11    1    3    3    0    0 -0.90468189085E+00 -0.47666484189E+00 -0.50665526356E+00  0.11412092325E+01  0.51100000000E-03 0. -1.
        -11    1    3    3    0    0  0.22837545454E+01 -0.45308323102E+01  0.18530742187E+02  0.19212818182E+02  0.51100000000E-03 0.  1.
         12    1    3    3    0    0 -0.13669157316E+01  0.11437729532E+02  0.24897646145E+02  0.27433244413E+02  0.00000000000E+00 0. -1.
</event>
<event>
 7    1  0.2599124E-010  0.4778727E+02  0.7816164E-02  0.1312668E+00
        -11   -1    0    0    0    0  0.00000000000E+00  0.00000000000E+00  0.45593999997E+02  0.45594000000E+02  0.51100000000E-03 0.  1.
         11   -1    0    0    0    0 -0.00000000000E+00 -0.00000000000E+00 -0.45593999997E+02  0.45594000000E+02  0.51100000000E-03 0. -1.
    9900012    2    1    2    0    0 -0.38715436281E+02 -0.51515482285E+01  0.18926164312E+02  0.47787272459E+02  0.20000006449E+02 0.  0.
         12    1    1    2    0    0  0.38715436281E+02  0.51515482285E+01 -0.18926164312E+02  0.43400727541E+02  0.00000000000E+00 0. -1.
         11    1    3    3    0    0 -0.62327035036E+01  0.34497639963E+01  0.28954716409E+01  0.76896827554E+01  0.51100000000E-03 0. -1.
        -11    1    3    3    0    0 -0.18085147252E+02 -0.42130935684E+01  0.65476427849E+00  0.18580942524E+02  0.51100000000E-03 0.  1.
         12    1    3    3    0    0 -0.14397585525E+02 -0.43882186564E+01  0.15375928392E+02  0.21516647179E+02  0.00000000000E+00 0. -1.
</event>
<event>
 7    1  0.2599124E-010  0.4778727E+02  0.7816164E-02  0.1312668E+00
        -11   -1    0    0    0    0  0.00000000000E+00  0.00000000000E+00  0.45593999997E+02  0.45594000000E+02  0.51100000000E-03 0.  1.
         11   -1    0    0    0    0 -0.00000000000E+00 -0.00000000000E+00 -0.45593999997E+02  0.45594000000E+02  0.51100000000E-03 0. -1.
    9900012    2    1    2    0    0 -0.71096320212E+01  0.31595347755E+02 -0.28893080086E+02  0.47787274844E+02  0.20000017322E+02 0.  0.
         12    1    1    2    0    0  0.71096320212E+01 -0.31595347755E+02  0.28893080086E+02  0.43400725156E+02  0.00000000000E+00 0. -1.
         11    1    3    3    0    0 -0.17269749219E+01  0.31462279253E+01 -0.11454888146E+02  0.12003984973E+02  0.51100000000E-03 0. -1.
        -11    1    3    3    0    0  0.15357499646E+01  0.15608341967E+02 -0.13452116167E+02  0.20662485246E+02  0.51100000000E-03 0.  1.
        -12    1    3    3    0    0 -0.69184070639E+01  0.12840777863E+02 -0.39860757728E+01  0.15120804624E+02  0.00000000000E+00 0.  1.
</event>
<event>
 7    1  0.2599124E-010  0.4778726E+02  0.7816164E-02  0.1312668E+00
        -11   -1    0    0    0    0  0.00000000000E+00  0.00000000000E+00  0.45593999997E+02  0.45594000000E+02  0.51100000000E-03 0. -1.
         11   -1    0    0    0    0 -0.00000000000E+00 -0.00000000000E+00 -0.45593999997E+02  0.45594000000E+02  0.51100000000E-03 0.  1.
    9900012    2    1    2    0    0  0.60251319730E-01 -0.31702990678E+01 -0.43284753457E+02  0.47787259129E+02  0.19999945670E+02 0.  0.
         12    1    1    2    0    0 -0.60251319730E-01  0.31702990678E+01  0.43284753457E+02  0.43400740871E+02  0.00000000000E+00 0. -1.
         11    1    3    3    0    0  0.35781235276E+01  0.33218903093E+01 -0.18097815877E+02  0.18744835635E+02  0.51100000000E-03 0. -1.
        -11    1    3    3    0    0  0.29064082993E+01 -0.21122735369E+01 -0.18319725364E+02  0.18668723748E+02  0.51100000000E-03 0.  1.
        -12    1    3    3    0    0 -0.64242805072E+01 -0.43799158402E+01 -0.68672122158E+01  0.10373699746E+02  0.00000000000E+00 0.  1.
</event>
<event>
 7    1  0.2599124E-010  0.4778728E+02  0.7816164E-02  0.1312668E+00
        -11   -1    0    0    0    0  0.00000000000E+00  0.00000000000E+00  0.45593999997E+02  0.45594000000E+02  0.51100000000E-03 0.  1.
         11   -1    0    0    0    0 -0.00000000000E+00 -0.00000000000E+00 -0.45593999997E+02  0.45594000000E+02  0.51100000000E-03 0. -1.
    9900012    2    1    2    0    0 -0.37280594217E+02 -0.22192241900E+02 -0.11331382694E+01  0.47787282171E+02  0.20000050731E+02 0.  0.
         12    1    1    2    0    0  0.37280594217E+02  0.22192241900E+02  0.11331382694E+01  0.43400717829E+02  0.00000000000E+00 0. -1.
         11    1    3    3    0    0 -0.97184271876E+01 -0.26916867212E+01  0.13268414974E+01  0.10171210008E+02  0.51100000000E-03 0. -1.
        -11    1    3    3    0    0  0.15673926486E+01 -0.13876851279E+01 -0.25693289546E+01  0.33141878745E+01  0.51100000000E-03 0.  1.
        -12    1    3    3    0    0 -0.29129559678E+02 -0.18112870051E+02  0.10934918777E+00  0.34301884289E+02  0.00000000000E+00 0.  1.
</event>
<event>
 7    1  0.2599124E-010  0.4778727E+02  0.7816164E-02  0.1312668E+00
        -11   -1    0    0    0    0  0.00000000000E+00  0.00000000000E+00  0.45593999997E+02  0.45594000000E+02  0.51100000000E-03 0. -1.
         11   -1    0    0    0    0 -0.00000000000E+00 -0.00000000000E+00 -0.45593999997E+02  0.45594000000E+02  0.51100000000E-03 0.  1.
    9900012    2    1    2    0    0 -0.22885097879E+02 -0.36465214633E+02 -0.54939638448E+01  0.47787271643E+02  0.20000002730E+02 0.  0.
         12    1    1    2    0    0  0.22885097879E+02  0.36465214633E+02  0.54939638448E+01  0.43400728357E+02  0.00000000000E+00 0. -1.
         11    1    3    3    0    0  0.31555473401E+00 -0.24551770437E+01 -0.10741564756E+01  0.26983849802E+01  0.51100000000E-03 0. -1.
        -11    1    3    3    0    0 -0.17494483006E+02 -0.33954455923E+02 -0.56149502619E+00  0.38200488080E+02  0.51100000000E-03 0.  1.
         12    1    3    3    0    0 -0.57061696063E+01 -0.55581667040E-01 -0.38583123430E+01  0.68883985827E+01  0.00000000000E+00 0. -1.
</event>
<event>
 7    1  0.2599124E-010  0.4778727E+02  0.7816164E-02  0.1312668E+00
        -11   -1    0    0    0    0  0.00000000000E+00  0.00000000000E+00  0.45593999997E+02  0.45594000000E+02  0.51100000000E-03 0. -1.
         11   -1    0    0    0    0 -0.00000000000E+00 -0.00000000000E+00 -0.45593999997E+02  0.45594000000E+02  0.51100000000E-03 0.  1.
    9900012    2    1    2    0    0 -0.41006281755E+02 -0.12156890112E+02 -0.73701083503E+01  0.47787267084E+02  0.19999981944E+02 0.  0.
         12    1    1    2    0    0  0.41006281755E+02  0.12156890112E+02  0.73701083503E+01  0.43400732916E+02  0.00000000000E+00 0. -1.
         11    1    3    3    0    0 -0.92029588718E+01 -0.95338010722E+01 -0.28685228463E+01  0.13557884734E+02  0.51100000000E-03 0. -1.
        -11    1    3    3    0    0 -0.80236266291E+01 -0.26082572455E+01 -0.60768213119E+01  0.10397564506E+02  0.51100000000E-03 0.  1.
         12    1    3    3    0    0 -0.23779696254E+02 -0.14831793861E-01  0.15752358079E+01  0.23831817844E+02  0.00000000000E+00 0. -1.
</event>
<event>
 7    1  0.2599124E-010  0.4778728E+02  0.7816164E-02  0.1312668E+00
        -11   -1    0    0    0    0  0.00000000000E+00  0.00000000000E+00  0.45593999997E+02  0.45594000000E+02  0.51100000000E-03 0.  1.
         11   -1    0    0    0    0 -0.00000000000E+00 -0.00000000000E+00 -0.45593999997E+02  0.45594000000E+02  0.51100000000E-03 0. -1.
    9900012    2    1    2    0    0  0.29992987830E-01 -0.95840691053E+01  0.42329276269E+02  0.47787275240E+02  0.20000019129E+02 0.  0.
         12    1    1    2    0    0 -0.29992987830E-01  0.95840691053E+01 -0.42329276269E+02  0.43400724760E+02  0.00000000000E+00 0. -1.
         11    1    3    3    0    0  0.10757891798E+01 -0.27012854166E+00 -0.28540317172E+00  0.11453152491E+01  0.51100000000E-03 0. -1.
        -11    1    3    3    0    0  0.26051676160E+01 -0.30334919884E+01  0.37606271231E+02  0.37818257603E+02  0.51100000000E-03 0.  1.
         12    1    3    3    0    0 -0.36509638079E+01 -0.62804485753E+01  0.50084082102E+01  0.88237023881E+01  0.00000000000E+00 0. -1.
</event>
<event>
 7    1  0.2599124E-010  0.4778727E+02  0.7816164E-02  0.1312668E+00
        -11   -1    0    0    0    0  0.00000000000E+00  0.00000000000E+00  0.45593999997E+02  0.45594000000E+02  0.51100000000E-03 0.  1.
         11   -1    0    0    0    0 -0.00000000000E+00 -0.00000000000E+00 -0.45593999997E+02  0.45594000000E+02  0.51100000000E-03 0. -1.
    9900012    2    1    2    0    0  0.37258004300E+02 -0.77454729803E+01  0.20867965868E+02  0.47787271485E+02  0.20000002010E+02 0.  0.
         12    1    1    2    0    0 -0.37258004300E+02  0.77454729803E+01 -0.20867965868E+02  0.43400728515E+02  0.00000000000E+00 0. -1.
         11    1    3    3    0    0  0.76533892829E+01 -0.31288920957E+01  0.13912077311E+00  0.82694430352E+01  0.51100000000E-03 0. -1.
        -11    1    3    3    0    0  0.25957372290E+02 -0.33679058070E+01  0.98344666677E+01  0.27961486024E+02  0.51100000000E-03 0.  1.
         12    1    3    3    0    0  0.36472427273E+01 -0.12486750776E+01  0.10894378427E+02  0.11556342427E+02  0.00000000000E+00 0. -1.
</event>
<event>
 7    1  0.2599124E-010  0.4778727E+02  0.7816164E-02  0.1312668E+00
        -11   -1    0    0    0    0  0.00000000000E+00  0.00000000000E+00  0.45593999997E+02  0.45594000000E+02  0.51100000000E-03 0.  1.
         11   -1    0    0    0    0 -0.00000000000E+00 -0.00000000000E+00 -0.45593999997E+02  0.45594000000E+02  0.51100000000E-03 0. -1.
    9900012    2    1    2    0    0 -0.92488678223E+01  0.37889878029E+02  0.19037829616E+02  0.47787269942E+02  0.19999994973E+02 0.  0.
         12    1    1    2    0    0  0.92488678223E+01 -0.37889878029E+02 -0.19037829616E+02  0.43400730058E+02  0.00000000000E+00 0. -1.
         11    1    3    3    0    0 -0.32136915721E+01  0.17100978037E+01 -0.55287986989E+00  0.36821086935E+01  0.51100000000E-03 0. -1.
        -11    1    3    3    0    0 -0.83026230545E+01  0.20574659517E+02  0.17376594116E+02  0.28181486603E+02  0.51100000000E-03 0.  1.
         12    1    3    3    0    0  0.22674468043E+01  0.15605120708E+02  0.22141153703E+01  0.15923674645E+02  0.00000000000E+00 0. -1.
</event>
<event>
 7    1  0.2599124E-010  0.4778727E+02  0.7816164E-02  0.1312668E+00
        -11   -1    0    0    0    0  0.00000000000E+00  0.00000000000E+00  0.45593999997E+02  0.45594000000E+02  0.51100000000E-03 0.  1.
         11   -1    0    0    0    0 -0.00000000000E+00 -0.00000000000E+00 -0.45593999997E+02  0.45594000000E+02  0.51100000000E-03 0. -1.
    9900012    2    1    2    0    0  0.22861368347E+02 -0.13585905726E+02  0.34298748820E+02  0.47787272267E+02  0.20000005575E+02 0.  0.
         12    1    1    2    0    0 -0.22861368347E+02  0.13585905726E+02 -0.34298748820E+02  0.43400727733E+02  0.00000000000E+00 0. -1.
         11    1    3    3    0    0  0.30324445137E+01  0.16893223281E+01  0.52655637651E+01  0.63067972603E+01  0.51100000000E-03 0. -1.
        -11    1    3    3    0    0  0.43738146525E+01  0.31073089237E+01  0.75198018697E+01  0.92375886346E+01  0.51100000000E-03 0.  1.
        -12    1    3    3    0    0  0.15455109181E+02 -0.18382536978E+02  0.21513383186E+02  0.32242886372E+02  0.00000000000E+00 0.  1.
</event>
<event>
 7    1  0.2599124E-010  0.4778727E+02  0.7816164E-02  0.1312668E+00
        -11   -1    0    0    0    0  0.00000000000E+00  0.00000000000E+00  0.45593999997E+02  0.45594000000E+02  0.51100000000E-03 0.  1.
         11   -1    0    0    0    0 -0.00000000000E+00 -0.00000000000E+00 -0.45593999997E+02  0.45594000000E+02  0.51100000000E-03 0. -1.
    9900012    2    1    2    0    0 -0.31198863532E+02 -0.28559097229E+02  0.97278904034E+01  0.47787274523E+02  0.20000015860E+02 0.  0.
         12    1    1    2    0    0  0.31198863532E+02  0.28559097229E+02 -0.97278904034E+01  0.43400725477E+02  0.00000000000E+00 0. -1.
         11    1    3    3    0    0 -0.11116135261E+02 -0.26824446132E+01  0.84470923096E+00  0.11466364122E+02  0.51100000000E-03 0. -1.
        -11    1    3    3    0    0 -0.71986113676E+01 -0.11078205271E+01  0.22704077319E+01  0.76290250669E+01  0.51100000000E-03 0.  1.
        -12    1    3    3    0    0 -0.12884116904E+02 -0.24768832089E+02  0.66127734405E+01  0.28691885334E+02  0.00000000000E+00 0.  1.
</event>
<event>
 7    1  0.2599124E-010  0.4778725E+02  0.7816164E-02  0.1312668E+00
        -11   -1    0    0    0    0  0.00000000000E+00  0.00000000000E+00  0.45593999997E+02  0.45594000000E+02  0.51100000000E-03 0. -1.
         11   -1    0    0    0    0 -0.00000000000E+00 -0.00000000000E+00 -0.45593999997E+02  0.45594000000E+02  0.51100000000E-03 0.  1.
    9900012    2    1    2    0    0 -0.91932217017E+01 -0.38694600171E+02  0.17373484364E+02  0.47787246935E+02  0.19999890076E+02 0.  0.
         12    1    1    2    0    0  0.91932217017E+01  0.38694600171E+02 -0.17373484364E+02  0.43400753065E+02  0.00000000000E+00 0. -1.
         11    1    3    3    0    0  0.50620070722E+00 -0.34505687525E+01 -0.11458584959E+01  0.36709202968E+01  0.51100000000E-03 0. -1.
        -11    1    3    3    0    0 -0.62930781108E+01 -0.17289918793E+02  0.43241320064E+00  0.18404649016E+02  0.51100000000E-03 0.  1.
        -12    1    3    3    0    0 -0.34063442981E+01 -0.17954112626E+02  0.18086929659E+02  0.25711677622E+02  0.00000000000E+00 0.  1.
</event>
<event>
 7    1  0.2599124E-010  0.4778727E+02  0.7816164E-02  0.1312668E+00
        -11   -1    0    0    0    0  0.00000000000E+00  0.00000000000E+00  0.45593999997E+02  0.45594000000E+02  0.51100000000E-03 0. -1.
         11   -1    0    0    0    0 -0.00000000000E+00 -0.00000000000E+00 -0.45593999997E+02  0.45594000000E+02  0.51100000000E-03 0.  1.
    9900012    2    1    2    0    0 -0.38008975970E+02 -0.12295992922E+02 -0.16963182590E+02  0.47787271207E+02  0.20000000741E+02 0.  0.
         12    1    1    2    0    0  0.38008975970E+02  0.12295992922E+02  0.16963182590E+02  0.43400728793E+02  0.00000000000E+00 0. -1.
         11    1    3    3    0    0 -0.68518089654E+01 -0.57069679149E+01 -0.55017740736E+00  0.89341739585E+01  0.51100000000E-03 0. -1.
        -11    1    3    3    0    0 -0.23915627282E+02 -0.88454592531E+01 -0.63969811137E+01  0.26289175441E+02  0.51100000000E-03 0.  1.
        -12    1    3    3    0    0 -0.72415397218E+01  0.22564342464E+01 -0.10016024069E+02  0.12563921808E+02  0.00000000000E+00 0.  1.
</event>
<event>
 7    1  0.2599124E-010  0.4778726E+02  0.7816164E-02  0.1312668E+00
        -11   -1    0    0    0    0  0.00000000000E+00  0.00000000000E+00  0.45593999997E+02  0.45594000000E+02  0.51100000000E-03 0. -1.
         11   -1    0    0    0    0 -0.00000000000E+00 -0.00000000000E+00 -0.45593999997E+02  0.45594000000E+02  0.51100000000E-03 0.  1.
    9900012    2    1    2    0    0  0.15857458577E+01  0.27045254246E+02 -0.33906691307E+02  0.47787261728E+02  0.19999957525E+02 0.  0.
         12    1    1    2    0    0 -0.15857458577E+01 -0.27045254246E+02  0.33906691307E+02  0.43400738272E+02  0.00000000000E+00 0. -1.
         11    1    3    3    0    0  0.29204302726E+00 -0.42079728012E+00 -0.46579925428E+01  0.46860702375E+01  0.51100000000E-03 0. -1.
        -11    1    3    3    0    0  0.81086091319E+01  0.19803057411E+02 -0.20097827651E+02  0.29356997486E+02  0.51100000000E-03 0.  1.
        -12    1    3    3    0    0 -0.68149063015E+01  0.76629941150E+01 -0.91508711134E+01  0.13744194005E+02  0.00000000000E+00 0.  1.
</event>
<event>
 7    1  0.2599124E-010  0.4778727E+02  0.7816164E-02  0.1312668E+00
        -11   -1    0    0    0    0  0.00000000000E+00  0.00000000000E+00  0.45593999997E+02  0.45594000000E+02  0.51100000000E-03 0.  1.
         11   -1    0    0    0    0 -0.00000000000E+00 -0.00000000000E+00 -0.45593999997E+02  0.45594000000E+02  0.51100000000E-03 0. -1.
    9900012    2    1    2    0    0  0.42177559249E+02 -0.34762697159E+01 -0.96224893172E+01  0.47787271250E+02  0.20000000937E+02 0.  0.
         12    1    1    2    0    0 -0.42177559249E+02  0.34762697159E+01  0.96224893172E+01  0.43400728750E+02  0.00000000000E+00 0. -1.
         11    1    3    3    0    0  0.15635449542E+02  0.30898197793E+00 -0.38478979293E+01  0.16104939335E+02  0.51100000000E-03 0. -1.
        -11    1    3    3    0    0  0.27895193627E+02 -0.38101607442E+01 -0.26516811072E+01  0.28278800635E+02  0.51100000000E-03 0.  1.
         12    1    3    3    0    0 -0.13530839198E+01  0.24909050372E-01 -0.31229102806E+01  0.34035312803E+01  0.00000000000E+00 0. -1.
</event>
<event>
 7    1  0.2599124E-010  0.4778727E+02  0.7816164E-02  0.1312668E+00
        -11   -1    0    0    0    0  0.00000000000E+00  0.00000000000E+00  0.45593999997E+02  0.45594000000E+02  0.51100000000E-03 0.  1.
         11   -1    0    0    0    0 -0.00000000000E+00 -0.00000000000E+00 -0.45593999997E+02  0.45594000000E+02  0.51100000000E-03 0. -1.
    9900012    2    1    2    0    0  0.24817711450E+01  0.30466621985E+02  0.30809884262E+02  0.47787271764E+02  0.20000003281E+02 0.  0.
         12    1    1    2    0    0 -0.24817711450E+01 -0.30466621985E+02 -0.30809884262E+02  0.43400728236E+02  0.00000000000E+00 0. -1.
         11    1    3    3    0    0  0.18708938865E+01  0.21072869672E+01  0.13322599417E+02  0.13617362366E+02  0.51100000000E-03 0. -1.
        -11    1    3    3    0    0  0.17023273223E+01  0.32776178533E+01  0.47536447859E+01  0.60197870491E+01  0.51100000000E-03 0.  1.
        -12    1    3    3    0    0 -0.10914500639E+01  0.25081717164E+02  0.12733640058E+02  0.28150122349E+02  0.00000000000E+00 0.  1.
</event>
<event>
 7    1  0.2599124E-010  0.4778727E+02  0.7816164E-02  0.1312668E+00
        -11   -1    0    0    0    0  0.00000000000E+00  0.00000000000E+00  0.45593999997E+02  0.45594000000E+02  0.51100000000E-03 0. -1.
         11   -1    0    0    0    0 -0.00000000000E+00 -0.00000000000E+00 -0.45593999997E+02  0.45594000000E+02  0.51100000000E-03 0.  1.
    9900012    2    1    2    0    0 -0.22384950666E+02  0.36437532811E+02  0.74056660995E+01  0.47787266088E+02  0.19999977403E+02 0.  0.
         12    1    1    2    0    0  0.22384950666E+02 -0.36437532811E+02 -0.74056660995E+01  0.43400733912E+02  0.00000000000E+00 0. -1.
         11    1    3    3    0    0 -0.90140101150E+01  0.71125949271E+01  0.55476156999E+01  0.12752153746E+02  0.51100000000E-03 0. -1.
        -11    1    3    3    0    0 -0.14098184349E+02  0.16832361520E+02  0.40612199195E+01  0.22328920792E+02  0.51100000000E-03 0.  1.
         12    1    3    3    0    0  0.72724379787E+00  0.12492576365E+02 -0.22031695199E+01  0.12706191550E+02  0.00000000000E+00 0. -1.
</event>
<event>
 7    1  0.2599124E-010  0.4778726E+02  0.7816164E-02  0.1312668E+00
        -11   -1    0    0    0    0  0.00000000000E+00  0.00000000000E+00  0.45593999997E+02  0.45594000000E+02  0.51100000000E-03 0.  1.
         11   -1    0    0    0    0 -0.00000000000E+00 -0.00000000000E+00 -0.45593999997E+02  0.45594000000E+02  0.51100000000E-03 0. -1.
    9900012    2    1    2    0    0  0.36369284847E+02  0.13598708338E+02  0.19390054556E+02  0.47787263088E+02  0.19999963724E+02 0.  0.
         12    1    1    2    0    0 -0.36369284847E+02 -0.13598708338E+02 -0.19390054556E+02  0.43400736912E+02  0.00000000000E+00 0. -1.
         11    1    3    3    0    0  0.17418459650E+02  0.13122854814E+01  0.81601655887E+01  0.19279863393E+02  0.51100000000E-03 0. -1.
        -11    1    3    3    0    0  0.16215470270E+02  0.77514422788E+01  0.13762461106E+02  0.22636953625E+02  0.51100000000E-03 0.  1.
         12    1    3    3    0    0  0.27353549272E+01  0.45349805783E+01 -0.25325721380E+01  0.58704460697E+01  0.00000000000E+00 0. -1.
</event>
<event>
 7    1  0.2599124E-010  0.4778723E+02  0.7816164E-02  0.1312668E+00
        -11   -1    0    0    0    0  0.00000000000E+00  0.00000000000E+00  0.45593999997E+02  0.45594000000E+02  0.51100000000E-03 0. -1.
         11   -1    0    0    0    0 -0.00000000000E+00 -0.00000000000E+00 -0.45593999997E+02  0.45594000000E+02  0.51100000000E-03 0.  1.
    9900012    2    1    2    0    0 -0.71834236242E+01 -0.36405128504E+02 -0.22509819066E+02  0.47787229146E+02  0.19999808967E+02 0.  0.
         12    1    1    2    0    0  0.71834236242E+01  0.36405128504E+02  0.22509819066E+02  0.43400770854E+02  0.00000000000E+00 0. -1.
         11    1    3    3    0    0  0.12075494059E+01 -0.60569408753E+01 -0.98419999776E+01  0.11619366254E+02  0.51100000000E-03 0. -1.
        -11    1    3    3    0    0 -0.45460938658E+01 -0.36457086977E+01 -0.60294545169E+01  0.83852539244E+01  0.51100000000E-03 0.  1.
         12    1    3    3    0    0 -0.38448791643E+01 -0.26702478931E+02 -0.66383645717E+01  0.27782608967E+02  0.00000000000E+00 0. -1.
</event>
<event>
 7    1  0.2599124E-010  0.4778726E+02  0.7816164E-02  0.1312668E+00
        -11   -1    0    0    0    0  0.00000000000E+00  0.00000000000E+00  0.45593999997E+02  0.45594000000E+02  0.51100000000E-03 0. -1.
         11   -1    0    0    0    0 -0.00000000000E+00 -0.00000000000E+00 -0.45593999997E+02  0.45594000000E+02  0.51100000000E-03 0.  1.
    9900012    2    1    2    0    0  0.11314082627E+02 -0.12107678790E+02 -0.40112589774E+02  0.47787260262E+02  0.19999950840E+02 0.  0.
         12    1    1    2    0    0 -0.11314082627E+02  0.12107678790E+02  0.40112589774E+02  0.43400739738E+02  0.00000000000E+00 0. -1.
         11    1    3    3    0    0 -0.22750237317E+01 -0.13394386554E+01 -0.67091414523E+01  0.72098826745E+01  0.51100000000E-03 0. -1.
        -11    1    3    3    0    0  0.34735588681E+01  0.33294851647E+01 -0.33104712104E+01  0.58404026032E+01  0.51100000000E-03 0.  1.
         12    1    3    3    0    0  0.10115547491E+02 -0.14097725299E+02 -0.30092977112E+02  0.34736974985E+02  0.00000000000E+00 0. -1.
</event>
<event>
 7    1  0.2599124E-010  0.4778724E+02  0.7816164E-02  0.1312668E+00
        -11   -1    0    0    0    0  0.00000000000E+00  0.00000000000E+00  0.45593999997E+02  0.45594000000E+02  0.51100000000E-03 0.  1.
         11   -1    0    0    0    0 -0.00000000000E+00 -0.00000000000E+00 -0.45593999997E+02  0.45594000000E+02  0.51100000000E-03 0. -1.
    9900012    2    1    2    0    0 -0.38252814164E+02 -0.19970961255E+02  0.46377414757E+01  0.47787242738E+02  0.19999870938E+02 0.  0.
         12    1    1    2    0    0  0.38252814164E+02  0.19970961255E+02 -0.46377414757E+01  0.43400757262E+02  0.00000000000E+00 0. -1.
         11    1    3    3    0    0 -0.18444175540E+02 -0.14392445634E+01 -0.12859010847E+01  0.18544880106E+02  0.51100000000E-03 0. -1.
        -11    1    3    3    0    0 -0.34116449275E+01 -0.10019970047E+01  0.37076398046E+01  0.51371112788E+01  0.51100000000E-03 0.  1.
        -12    1    3    3    0    0 -0.16396993696E+02 -0.17529719687E+02  0.22160027559E+01  0.24105251353E+02  0.00000000000E+00 0.  1.
</event>
<event>
 7    1  0.2599124E-010  0.4778727E+02  0.7816164E-02  0.1312668E+00
        -11   -1    0    0    0    0  0.00000000000E+00  0.00000000000E+00  0.45593999997E+02  0.45594000000E+02  0.51100000000E-03 0. -1.
         11   -1    0    0    0    0 -0.00000000000E+00 -0.00000000000E+00 -0.45593999997E+02  0.45594000000E+02  0.51100000000E-03 0.  1.
    9900012    2    1    2    0    0 -0.12495017136E+02 -0.17106090991E+02 -0.37879804413E+02  0.47787269769E+02  0.19999994187E+02 0.  0.
         12    1    1    2    0    0  0.12495017136E+02  0.17106090991E+02  0.37879804413E+02  0.43400730231E+02  0.00000000000E+00 0. -1.
         11    1    3    3    0    0 -0.12715008932E+02 -0.12824598658E+02 -0.14625088289E+02  0.23238652943E+02  0.51100000000E-03 0. -1.
        -11    1    3    3    0    0  0.13391573464E+01 -0.21282056844E+01 -0.21602195854E+01  0.33149888012E+01  0.51100000000E-03 0.  1.
        -12    1    3    3    0    0 -0.11191655500E+01 -0.21532866483E+01 -0.21094496538E+02  0.21233628025E+02  0.00000000000E+00 0.  1.
</event>
<event>
 7    1  0.2599124E-010  0.4778727E+02  0.7816164E-02  0.1312668E+00
        -11   -1    0    0    0    0  0.00000000000E+00  0.00000000000E+00  0.45593999997E+02  0.45594000000E+02  0.51100000000E-03 0. -1.
         11   -1    0    0    0    0 -0.00000000000E+00 -0.00000000000E+00 -0.45593999997E+02  0.45594000000E+02  0.51100000000E-03 0.  1.
    9900012    2    1    2    0    0  0.23040503295E+02  0.34178090679E+02  0.13587375653E+02  0.47787268996E+02  0.19999990659E+02 0.  0.
         12    1    1    2    0    0 -0.23040503295E+02 -0.34178090679E+02 -0.13587375653E+02  0.43400731004E+02  0.00000000000E+00 0. -1.
         11    1    3    3    0    0  0.28272338760E+01 -0.10766177094E+01  0.21730941418E+01  0.37248752318E+01  0.51100000000E-03 0. -1.
        -11    1    3    3    0    0  0.13871199427E+02  0.12248251122E+02  0.70482140648E+01  0.19801695656E+02  0.51100000000E-03 0.  1.
         12    1    3    3    0    0  0.63420699922E+01  0.23006457266E+02  0.43660674459E+01  0.24260698108E+02  0.00000000000E+00 0. -1.
</event>
<event>
 7    1  0.2599124E-010  0.4778727E+02  0.7816164E-02  0.1312668E+00
        -11   -1    0    0    0    0  0.00000000000E+00  0.00000000000E+00  0.45593999997E+02  0.45594000000E+02  0.51100000000E-03 0.  1.
         11   -1    0    0    0    0 -0.00000000000E+00 -0.00000000000E+00 -0.45593999997E+02  0.45594000000E+02  0.51100000000E-03 0. -1.
    9900012    2    1    2    0    0  0.10804113783E+02 -0.28648643437E+02  0.30759542253E+02  0.47787273220E+02  0.20000009921E+02 0.  0.
         12    1    1    2    0    0 -0.10804113783E+02  0.28648643437E+02 -0.30759542253E+02  0.43400726780E+02  0.00000000000E+00 0. -1.
         11    1    3    3    0    0 -0.10235925497E+01 -0.29015825484E+01 -0.12669054007E+01  0.33274573699E+01  0.51100000000E-03 0. -1.
        -11    1    3    3    0    0  0.57695567677E+01 -0.18110424274E+01  0.77891697940E+01  0.98609749168E+01  0.51100000000E-03 0.  1.
         12    1    3    3    0    0  0.60581495651E+01 -0.23936018461E+02  0.24237277859E+02  0.34598840934E+02  0.00000000000E+00 0. -1.
</event>
<event>
 7    1  0.2599124E-010  0.4778727E+02  0.7816164E-02  0.1312668E+00
        -11   -1    0    0    0    0  0.00000000000E+00  0.00000000000E+00  0.45593999997E+02  0.45594000000E+02  0.51100000000E-03 0. -1.
         11   -1    0    0    0    0 -0.00000000000E+00 -0.00000000000E+00 -0.45593999997E+02  0.45594000000E+02  0.51100000000E-03 0.  1.
    9900012    2    1    2    0    0 -0.34059404285E+02 -0.20905946482E+02 -0.16926951196E+02  0.47787270797E+02  0.19999998871E+02 0.  0.
         12    1    1    2    0    0  0.34059404285E+02  0.20905946482E+02  0.16926951196E+02  0.43400729203E+02  0.00000000000E+00 0. -1.
         11    1    3    3    0    0 -0.41409843269E+01  0.19868504203E+01 -0.17899686135E+01  0.49294334042E+01  0.51100000000E-03 0. -1.
        -11    1    3    3    0    0  0.11148723142E+01 -0.29584138142E+01 -0.17895799313E+01  0.36328706507E+01  0.51100000000E-03 0.  1.
         12    1    3    3    0    0 -0.31033292273E+02 -0.19934383088E+02 -0.13347402651E+02  0.39224966742E+02  0.00000000000E+00 0. -1.
</event>
<event>
 7    1  0.2599124E-010  0.4778727E+02  0.7816164E-02  0.1312668E+00
        -11   -1    0    0    0    0  0.00000000000E+00  0.00000000000E+00  0.45593999997E+02  0.45594000000E+02  0.51100000000E-03 0.  1.
         11   -1    0    0    0    0 -0.00000000000E+00 -0.00000000000E+00 -0.45593999997E+02  0.45594000000E+02  0.51100000000E-03 0. -1.
    9900012    2    1    2    0    0 -0.30579355045E+02  0.86725700351E+01  0.29551866986E+02  0.47787271109E+02  0.20000000292E+02 0.  0.
         12    1    1    2    0    0  0.30579355045E+02 -0.86725700351E+01 -0.29551866986E+02  0.43400728891E+02  0.00000000000E+00 0. -1.
         11    1    3    3    0    0 -0.54159063255E+01  0.39387621137E+01  0.47236313553E+01  0.81950339692E+01  0.51100000000E-03 0. -1.
        -11    1    3    3    0    0 -0.12849226750E+02  0.29734683090E+01  0.16561789345E+01  0.13292368893E+02  0.51100000000E-03 0.  1.
         12    1    3    3    0    0 -0.12314221969E+02  0.17603396124E+01  0.23172056696E+02  0.26299868246E+02  0.00000000000E+00 0. -1.
</event>
<event>
 7    1  0.2599124E-010  0.4778727E+02  0.7816164E-02  0.1312668E+00
        -11   -1    0    0    0    0  0.00000000000E+00  0.00000000000E+00  0.45593999997E+02  0.45594000000E+02  0.51100000000E-03 0.  1.
         11   -1    0    0    0    0 -0.00000000000E+00 -0.00000000000E+00 -0.45593999997E+02  0.45594000000E+02  0.51100000000E-03 0. -1.
    9900012    2    1    2    0    0 -0.13336035087E+02  0.13915640262E+02  0.38886096969E+02  0.47787269439E+02  0.19999992681E+02 0.  0.
         12    1    1    2    0    0  0.13336035087E+02 -0.13915640262E+02 -0.38886096969E+02  0.43400730561E+02  0.00000000000E+00 0. -1.
         11    1    3    3    0    0  0.20780957461E+01  0.40525513369E+01  0.97694767875E+01  0.10778883580E+02  0.51100000000E-03 0. -1.
        -11    1    3    3    0    0 -0.40368477962E+01  0.48350380017E+01  0.21543847327E+02  0.22445736578E+02  0.51100000000E-03 0.  1.
         12    1    3    3    0    0 -0.11377283037E+02  0.50280509232E+01  0.75727728544E+01  0.14562649282E+02  0.00000000000E+00 0. -1.
</event>
<event>
 7    1  0.2599124E-010  0.4778727E+02  0.7816164E-02  0.1312668E+00
        -11   -1    0    0    0    0  0.00000000000E+00  0.00000000000E+00  0.45593999997E+02  0.45594000000E+02  0.51100000000E-03 0.  1.
         11   -1    0    0    0    0 -0.00000000000E+00 -0.00000000000E+00 -0.45593999997E+02  0.45594000000E+02  0.51100000000E-03 0. -1.
    9900012    2    1    2    0    0 -0.70372514107E+01  0.18239892662E+02  0.38747989705E+02  0.47787270767E+02  0.19999998736E+02 0.  0.
         12    1    1    2    0    0  0.70372514107E+01 -0.18239892662E+02 -0.38747989705E+02  0.43400729233E+02  0.00000000000E+00 0. -1.
         11    1    3    3    0    0 -0.72009632994E+01  0.93821540874E+01  0.22714596251E+02  0.25609208712E+02  0.51100000000E-03 0. -1.
        -11    1    3    3    0    0 -0.27276675988E+01  0.58711628504E+01  0.16752103367E+02  0.17959501419E+02  0.51100000000E-03 0.  1.
         12    1    3    3    0    0  0.28913794876E+01  0.29865757246E+01 -0.71870991269E+00  0.42185606359E+01  0.00000000000E+00 0. -1.
</event>
<event>
 7    1  0.2599124E-010  0.4778728E+02  0.7816164E-02  0.1312668E+00
        -11   -1    0    0    0    0  0.00000000000E+00  0.00000000000E+00  0.45593999997E+02  0.45594000000E+02  0.51100000000E-03 0.  1.
         11   -1    0    0    0    0 -0.00000000000E+00 -0.00000000000E+00 -0.45593999997E+02  0.45594000000E+02  0.51100000000E-03 0. -1.
    9900012    2    1    2    0    0 -0.13238299044E+02  0.22830310246E+02  0.34454997191E+02  0.47787280432E+02  0.20000042804E+02 0.  0.
         12    1    1    2    0    0  0.13238299044E+02 -0.22830310246E+02 -0.34454997191E+02  0.43400719568E+02  0.00000000000E+00 0. -1.
         11    1    3    3    0    0 -0.10418728742E+02  0.78032214800E+01  0.53562127938E+01  0.14075837091E+02  0.51100000000E-03 0.  1.
        -11    1    3    3    0    0  0.81263625019E+00  0.53335269770E+01  0.45077248365E+01  0.70303962301E+01  0.51100000000E-03 0. -1.
         12    1    3    3    0    0 -0.36322065524E+01  0.96935617891E+01  0.24591059561E+02  0.26681047111E+02  0.00000000000E+00 0. -1.
</event>
<event>
 7    1  0.2599124E-010  0.4778727E+02  0.7816164E-02  0.1312668E+00
        -11   -1    0    0    0    0  0.00000000000E+00  0.00000000000E+00  0.45593999997E+02  0.45594000000E+02  0.51100000000E-03 0.  1.
         11   -1    0    0    0    0 -0.00000000000E+00 -0.00000000000E+00 -0.45593999997E+02  0.45594000000E+02  0.51100000000E-03 0. -1.
    9900012    2    1    2    0    0 -0.51182702187E+01  0.22182185676E+02  0.36951007650E+02  0.47787273996E+02  0.20000013455E+02 0.  0.
         12    1    1    2    0    0  0.51182702187E+01 -0.22182185676E+02 -0.36951007650E+02  0.43400726004E+02  0.00000000000E+00 0. -1.
         11    1    3    3    0    0 -0.18724784142E+00  0.96504556501E+01  0.20153358407E+02  0.22345563572E+02  0.51100000000E-03 0. -1.
        -11    1    3    3    0    0  0.79220723487E+00  0.12647142895E+02  0.14543035756E+02  0.19289315825E+02  0.51100000000E-03 0.  1.
         12    1    3    3    0    0 -0.57232296121E+01 -0.11541286954E+00  0.22546134861E+01  0.61523945985E+01  0.00000000000E+00 0. -1.
</event>
<event>
 7    1  0.2599124E-010  0.4778727E+02  0.7816164E-02  0.1312668E+00
        -11   -1    0    0    0    0  0.00000000000E+00  0.00000000000E+00  0.45593999997E+02  0.45594000000E+02  0.51100000000E-03 0.  1.
         11   -1    0    0    0    0 -0.00000000000E+00 -0.00000000000E+00 -0.45593999997E+02  0.45594000000E+02  0.51100000000E-03 0. -1.
    9900012    2    1    2    0    0 -0.12981490504E+01  0.26993122515E+02  0.33960408809E+02  0.47787271659E+02  0.20000002802E+02 0.  0.
         12    1    1    2    0    0  0.12981490504E+01 -0.26993122515E+02 -0.33960408809E+02  0.43400728341E+02  0.00000000000E+00 0. -1.
         11    1    3    3    0    0 -0.56869863901E+01  0.17912294529E+02  0.23369699824E+02  0.29988914279E+02  0.51100000000E-03 0. -1.
        -11    1    3    3    0    0  0.31550325009E+01  0.50229311963E+01  0.11952814762E+02  0.13343681984E+02  0.51100000000E-03 0.  1.
         12    1    3    3    0    0  0.12338048388E+01  0.40578967899E+01 -0.13621057777E+01  0.44546753964E+01  0.00000000000E+00 0. -1.
</event>
<event>
 7    1  0.2599124E-010  0.4778727E+02  0.7816164E-02  0.1312668E+00
        -11   -1    0    0    0    0  0.00000000000E+00  0.00000000000E+00  0.45593999997E+02  0.45594000000E+02  0.51100000000E-03 0.  1.
         11   -1    0    0    0    0 -0.00000000000E+00 -0.00000000000E+00 -0.45593999997E+02  0.45594000000E+02  0.51100000000E-03 0. -1.
    9900012    2    1    2    0    0  0.25865844377E+02 -0.19970771714E+00  0.34850273717E+02  0.47787269976E+02  0.19999995127E+02 0.  0.
         12    1    1    2    0    0 -0.25865844377E+02  0.19970771714E+00 -0.34850273717E+02  0.43400730024E+02  0.00000000000E+00 0. -1.
         11    1    3    3    0    0  0.13395235696E+02 -0.30567354646E+01  0.76886178720E+01  0.15744548774E+02  0.51100000000E-03 0. -1.
        -11    1    3    3    0    0  0.82562070169E+01 -0.38123626307E+01  0.13845449006E+02  0.16564888215E+02  0.51100000000E-03 0.  1.
         12    1    3    3    0    0  0.42144016649E+01  0.66693903781E+01  0.13316206838E+02  0.15477832987E+02  0.00000000000E+00 0. -1.
</event>
<event>
 7    1  0.2599124E-010  0.4778727E+02  0.7816164E-02  0.1312668E+00
        -11   -1    0    0    0    0  0.00000000000E+00  0.00000000000E+00  0.45593999997E+02  0.45594000000E+02  0.51100000000E-03 0.  1.
         11   -1    0    0    0    0 -0.00000000000E+00 -0.00000000000E+00 -0.45593999997E+02  0.45594000000E+02  0.51100000000E-03 0. -1.
    9900012    2    1    2    0    0  0.10239065523E+02 -0.40520566138E+02  0.11699093308E+02  0.47787268126E+02  0.19999986696E+02 0.  0.
         12    1    1    2    0    0 -0.10239065523E+02  0.40520566138E+02 -0.11699093308E+02  0.43400731874E+02  0.00000000000E+00 0. -1.
         11    1    3    3    0    0  0.10040927973E+02 -0.17646776559E+02  0.11202104762E+02  0.23188706493E+02  0.51100000000E-03 0. -1.
        -11    1    3    3    0    0 -0.96015049058E+00 -0.28891606148E+01  0.31787688077E+01  0.44015576125E+01  0.51100000000E-03 0.  1.
        -12    1    3    3    0    0  0.11582880411E+01 -0.19984628964E+02 -0.26817802623E+01  0.20197004021E+02  0.00000000000E+00 0.  1.
</event>
<event>
 7    1  0.2599124E-010  0.4778727E+02  0.7816164E-02  0.1312668E+00
        -11   -1    0    0    0    0  0.00000000000E+00  0.00000000000E+00  0.45593999997E+02  0.45594000000E+02  0.51100000000E-03 0. -1.
         11   -1    0    0    0    0 -0.00000000000E+00 -0.00000000000E+00 -0.45593999997E+02  0.45594000000E+02  0.51100000000E-03 0.  1.
    9900012    2    1    2    0    0  0.71192458304E+01  0.33142713619E+02  0.27101659065E+02  0.47787273609E+02  0.20000011692E+02 0.  0.
         12    1    1    2    0    0 -0.71192458304E+01 -0.33142713619E+02 -0.27101659065E+02  0.43400726391E+02  0.00000000000E+00 0. -1.
         11    1    3    3    0    0  0.30962616384E+01  0.16677234640E+02  0.72366838985E+01  0.18441436643E+02  0.51100000000E-03 0. -1.
        -11    1    3    3    0    0  0.75455865825E+01  0.10181560382E+02  0.66906948806E+01  0.14330577341E+02  0.51100000000E-03 0.  1.
         12    1    3    3    0    0 -0.35226023906E+01  0.62839185972E+01  0.13174280286E+02  0.15015259624E+02  0.00000000000E+00 0. -1.
</event>
<event>
 7    1  0.2599124E-010  0.4778727E+02  0.7816164E-02  0.1312668E+00
        -11   -1    0    0    0    0  0.00000000000E+00  0.00000000000E+00  0.45593999997E+02  0.45594000000E+02  0.51100000000E-03 0.  1.
         11   -1    0    0    0    0 -0.00000000000E+00 -0.00000000000E+00 -0.45593999997E+02  0.45594000000E+02  0.51100000000E-03 0. -1.
    9900012    2    1    2    0    0  0.37538492836E+02 -0.17667442046E+02  0.12741513017E+02  0.47787272969E+02  0.20000008777E+02 0.  0.
         12    1    1    2    0    0 -0.37538492836E+02  0.17667442046E+02 -0.12741513017E+02  0.43400727031E+02  0.00000000000E+00 0. -1.
         11    1    3    3    0    0  0.12693892175E+02 -0.22534598850E+01  0.41468602229E+01  0.13542873771E+02  0.51100000000E-03 0. -1.
        -11    1    3    3    0    0  0.13844226547E+02 -0.76164112585E+00 -0.31959969235E+00  0.13868844584E+02  0.51100000000E-03 0.  1.
         12    1    3    3    0    0  0.11000374115E+02 -0.14652341035E+02  0.89142524861E+01  0.20375554615E+02  0.00000000000E+00 0. -1.
</event>
<event>
 7    1  0.2599124E-010  0.4778728E+02  0.7816164E-02  0.1312668E+00
        -11   -1    0    0    0    0  0.00000000000E+00  0.00000000000E+00  0.45593999997E+02  0.45594000000E+02  0.51100000000E-03 0.  1.
         11   -1    0    0    0    0 -0.00000000000E+00 -0.00000000000E+00 -0.45593999997E+02  0.45594000000E+02  0.51100000000E-03 0. -1.
    9900012    2    1    2    0    0 -0.19656759250E+02 -0.23518135012E+02  0.30726730181E+02  0.47787276432E+02  0.20000024562E+02 0.  0.
         12    1    1    2    0    0  0.19656759250E+02  0.23518135012E+02 -0.30726730181E+02  0.43400723568E+02  0.00000000000E+00 0. -1.
         11    1    3    3    0    0 -0.46295900281E+01  0.75478639783E+00  0.31289977570E+01  0.56385666227E+01  0.51100000000E-03 0. -1.
        -11    1    3    3    0    0 -0.75271690735E+01 -0.10454606928E+02  0.21933813841E+02  0.25437163170E+02  0.51100000000E-03 0.  1.
         12    1    3    3    0    0 -0.75000001481E+01 -0.13818314482E+02  0.56639185832E+01  0.16711546639E+02  0.00000000000E+00 0. -1.
</event>
<event>
 7    1  0.2599124E-010  0.4778727E+02  0.7816164E-02  0.1312668E+00
        -11   -1    0    0    0    0  0.00000000000E+00  0.00000000000E+00  0.45593999997E+02  0.45594000000E+02  0.51100000000E-03 0.  1.
         11   -1    0    0    0    0 -0.00000000000E+00 -0.00000000000E+00 -0.45593999997E+02  0.45594000000E+02  0.51100000000E-03 0. -1.
    9900012    2    1    2    0    0 -0.21378622872E+02  0.11369387810E+02  0.36018253137E+02  0.47787273576E+02  0.20000011544E+02 0.  0.
         12    1    1    2    0    0  0.21378622872E+02 -0.11369387810E+02 -0.36018253137E+02  0.43400726424E+02  0.00000000000E+00 0. -1.
         11    1    3    3    0    0 -0.63114124295E+01 -0.29686479725E+01  0.35066057319E+01  0.78066050022E+01  0.51100000000E-03 0. -1.
        -11    1    3    3    0    0 -0.94367558436E+01  0.50725746421E+01  0.86443580866E+01  0.13766201413E+02  0.51100000000E-03 0.  1.
        -12    1    3    3    0    0 -0.56304545987E+01  0.92654611403E+01  0.23867289318E+02  0.26214467161E+02  0.00000000000E+00 0.  1.
</event>
<event>
 7    1  0.2599124E-010  0.4778727E+02  0.7816164E-02  0.1312668E+00
        -11   -1    0    0    0    0  0.00000000000E+00  0.00000000000E+00  0.45593999997E+02  0.45594000000E+02  0.51100000000E-03 0.  1.
         11   -1    0    0    0    0 -0.00000000000E+00 -0.00000000000E+00 -0.45593999997E+02  0.45594000000E+02  0.51100000000E-03 0. -1.
    9900012    2    1    2    0    0 -0.26893770856E+02 -0.25609537251E+02  0.22461070682E+02  0.47787274139E+02  0.20000014110E+02 0.  0.
         12    1    1    2    0    0  0.26893770856E+02  0.25609537251E+02 -0.22461070682E+02  0.43400725861E+02  0.00000000000E+00 0. -1.
         11    1    3    3    0    0 -0.12037388459E+01 -0.64788586204E+01  0.34389198817E+01  0.74330859302E+01  0.51100000000E-03 0. -1.
        -11    1    3    3    0    0 -0.14533916718E+02 -0.14803631167E+02  0.19370743231E+02  0.28383233157E+02  0.51100000000E-03 0.  1.
         12    1    3    3    0    0 -0.11156115293E+02 -0.43270474637E+01 -0.34859243033E+00  0.11970955052E+02  0.00000000000E+00 0. -1.
</event>
<event>
 7    1  0.2599124E-010  0.4778727E+02  0.7816164E-02  0.1312668E+00
        -11   -1    0    0    0    0  0.00000000000E+00  0.00000000000E+00  0.45593999997E+02  0.45594000000E+02  0.51100000000E-03 0.  1.
         11   -1    0    0    0    0 -0.00000000000E+00 -0.00000000000E+00 -0.45593999997E+02  0.45594000000E+02  0.51100000000E-03 0. -1.
    9900012    2    1    2    0    0  0.20834310871E+02 -0.31284967515E+02  0.21698050091E+02  0.47787273282E+02  0.20000010203E+02 0.  0.
         12    1    1    2    0    0 -0.20834310871E+02  0.31284967515E+02 -0.21698050091E+02  0.43400726718E+02  0.00000000000E+00 0. -1.
         11    1    3    3    0    0  0.39610319266E+01 -0.11106859035E+02  0.19593945815E+00  0.11793662878E+02  0.51100000000E-03 0. -1.
        -11    1    3    3    0    0  0.17181244535E+02 -0.16478693657E+02  0.13985882245E+02  0.27610639450E+02  0.51100000000E-03 0.  1.
         12    1    3    3    0    0 -0.30796559050E+00 -0.36994148227E+01  0.75162283881E+01  0.83829709541E+01  0.00000000000E+00 0. -1.
</event>
<event>
 7    1  0.2599124E-010  0.4778728E+02  0.7816164E-02  0.1312668E+00
        -11   -1    0    0    0    0  0.00000000000E+00  0.00000000000E+00  0.45593999997E+02  0.45594000000E+02  0.51100000000E-03 0. -1.
         11   -1    0    0    0    0 -0.00000000000E+00 -0.00000000000E+00 -0.45593999997E+02  0.45594000000E+02  0.51100000000E-03 0.  1.
    9900012    2    1    2    0    0  0.28590821044E+02 -0.50609045762E+01 -0.32257938769E+02  0.47787280919E+02  0.20000045021E+02 0.  0.
         12    1    1    2    0    0 -0.28590821044E+02  0.50609045762E+01  0.32257938769E+02  0.43400719081E+02  0.00000000000E+00 0. -1.
         11    1    3    3    0    0  0.46429702786E+01 -0.24677432990E+01 -0.13880018566E+02  0.14842568701E+02  0.51100000000E-03 0. -1.
        -11    1    3    3    0    0  0.10573828726E+02 -0.75517598571E+01 -0.74664834720E+01  0.14986103782E+02  0.51100000000E-03 0.  1.
        -12    1    3    3    0    0  0.13374022040E+02  0.49585985799E+01 -0.10911436732E+02  0.17958608436E+02  0.00000000000E+00 0.  1.
</event>
<event>
 7    1  0.2599124E-010  0.4778727E+02  0.7816164E-02  0.1312668E+00
        -11   -1    0    0    0    0  0.00000000000E+00  0.00000000000E+00  0.45593999997E+02  0.45594000000E+02  0.51100000000E-03 0.  1.
         11   -1    0    0    0    0 -0.00000000000E+00 -0.00000000000E+00 -0.45593999997E+02  0.45594000000E+02  0.51100000000E-03 0. -1.
    9900012    2    1    2    0    0 -0.18258829394E+02 -0.26018088398E+02  0.29551605304E+02  0.47787272463E+02  0.20000006468E+02 0.  0.
         12    1    1    2    0    0  0.18258829394E+02  0.26018088398E+02 -0.29551605304E+02  0.43400727537E+02  0.00000000000E+00 0. -1.
         11    1    3    3    0    0 -0.14862970410E+01 -0.91486805975E+01  0.15515138682E+02  0.18072823912E+02  0.51100000000E-03 0. -1.
        -11    1    3    3    0    0 -0.42298245739E+01 -0.78542629837E+01  0.10665514666E+02  0.13904462101E+02  0.51100000000E-03 0.  1.
         12    1    3    3    0    0 -0.12542707779E+02 -0.90151448166E+01  0.33709519554E+01  0.15809986451E+02  0.00000000000E+00 0. -1.
</event>
<event>
 7    1  0.2599124E-010  0.4778727E+02  0.7816164E-02  0.1312668E+00
        -11   -1    0    0    0    0  0.00000000000E+00  0.00000000000E+00  0.45593999997E+02  0.45594000000E+02  0.51100000000E-03 0.  1.
         11   -1    0    0    0    0 -0.00000000000E+00 -0.00000000000E+00 -0.45593999997E+02  0.45594000000E+02  0.51100000000E-03 0. -1.
    9900012    2    1    2    0    0  0.15447899008E+02  0.20478669449E+02  0.35008714749E+02  0.47787267349E+02  0.19999983153E+02 0.  0.
         12    1    1    2    0    0 -0.15447899008E+02 -0.20478669449E+02 -0.35008714749E+02  0.43400732651E+02  0.00000000000E+00 0. -1.
         11    1    3    3    0    0 -0.97107470739E+00  0.13080257101E+01  0.12469291949E+01  0.20515238297E+01  0.51100000000E-03 0. -1.
        -11    1    3    3    0    0 -0.21132306990E+01  0.88674277483E+01  0.14276651394E+02  0.16938706980E+02  0.51100000000E-03 0.  1.
         12    1    3    3    0    0  0.18532204415E+02  0.10303215991E+02  0.19485134161E+02  0.28797036540E+02  0.00000000000E+00 0. -1.
</event>
<event>
 7    1  0.2599124E-010  0.4778727E+02  0.7816164E-02  0.1312668E+00
        -11   -1    0    0    0    0  0.00000000000E+00  0.00000000000E+00  0.45593999997E+02  0.45594000000E+02  0.51100000000E-03 0.  1.
         11   -1    0    0    0    0 -0.00000000000E+00 -0.00000000000E+00 -0.45593999997E+02  0.45594000000E+02  0.51100000000E-03 0. -1.
    9900012    2    1    2    0    0 -0.17461901701E+02 -0.14940068134E+02  0.36817109937E+02  0.47787271539E+02  0.20000002256E+02 0.  0.
         12    1    1    2    0    0  0.17461901701E+02  0.14940068134E+02 -0.36817109937E+02  0.43400728461E+02  0.00000000000E+00 0. -1.
         11    1    3    3    0    0 -0.58933512855E+01 -0.54007214806E+01  0.19356235122E+02  0.20941901065E+02  0.51100000000E-03 0. -1.
        -11    1    3    3    0    0 -0.10883539534E+01 -0.83072800600E+01  0.12826012588E+02  0.15319987450E+02  0.51100000000E-03 0.  1.
         12    1    3    3    0    0 -0.10480196462E+02 -0.12320665933E+01  0.46348622273E+01  0.11525383023E+02  0.00000000000E+00 0. -1.
</event>
<event>
 7    1  0.2599124E-010  0.4778727E+02  0.7816164E-02  0.1312668E+00
        -11   -1    0    0    0    0  0.00000000000E+00  0.00000000000E+00  0.45593999997E+02  0.45594000000E+02  0.51100000000E-03 0.  1.
         11   -1    0    0    0    0 -0.00000000000E+00 -0.00000000000E+00 -0.45593999997E+02  0.45594000000E+02  0.51100000000E-03 0. -1.
    9900012    2    1    2    0    0  0.32245272252E+02 -0.15334801566E+02  0.24672041196E+02  0.47787270301E+02  0.19999996608E+02 0.  0.
         12    1    1    2    0    0 -0.32245272252E+02  0.15334801566E+02 -0.24672041196E+02  0.43400729699E+02  0.00000000000E+00 0. -1.
         11    1    3    3    0    0  0.60649201535E+01  0.28443573745E+01  0.63122156175E+00  0.67284519960E+01  0.51100000000E-03 0. -1.
        -11    1    3    3    0    0  0.23114293576E+01 -0.61098746137E+01  0.44302416941E+01  0.78930548712E+01  0.51100000000E-03 0.  1.
        -12    1    3    3    0    0  0.23868922741E+02 -0.12069284327E+02  0.19610577940E+02  0.33165763433E+02  0.00000000000E+00 0.  1.
</event>
<event>
 7    1  0.2599124E-010  0.4778726E+02  0.7816164E-02  0.1312668E+00
        -11   -1    0    0    0    0  0.00000000000E+00  0.00000000000E+00  0.45593999997E+02  0.45594000000E+02  0.51100000000E-03 0.  1.
         11   -1    0    0    0    0 -0.00000000000E+00 -0.00000000000E+00 -0.45593999997E+02  0.45594000000E+02  0.51100000000E-03 0. -1.
    9900012    2    1    2    0    0 -0.31034375918E+01  0.21787790683E+02  0.37407021732E+02  0.47787257811E+02  0.19999939664E+02 0.  0.
         12    1    1    2    0    0  0.31034375918E+01 -0.21787790683E+02 -0.37407021732E+02  0.43400742189E+02  0.00000000000E+00 0. -1.
         11    1    3    3    0    0 -0.93273580593E+00  0.47626100533E+00  0.83464406818E+01  0.84118899746E+01  0.51100000000E-03 0. -1.
        -11    1    3    3    0    0 -0.19353037917E+00  0.80770107910E+00  0.13586245985E+02  0.13611609577E+02  0.51100000000E-03 0.  1.
        -12    1    3    3    0    0 -0.19771714067E+01  0.20503828598E+02  0.15474335064E+02  0.25763758259E+02  0.00000000000E+00 0.  1.
</event>
<event>
 7    1  0.2599124E-010  0.4778727E+02  0.7816164E-02  0.1312668E+00
        -11   -1    0    0    0    0  0.00000000000E+00  0.00000000000E+00  0.45593999997E+02  0.45594000000E+02  0.51100000000E-03 0. -1.
         11   -1    0    0    0    0 -0.00000000000E+00 -0.00000000000E+00 -0.45593999997E+02  0.45594000000E+02  0.51100000000E-03 0.  1.
    9900012    2    1    2    0    0 -0.18906885063E+01 -0.31239038570E+02 -0.30069439778E+02  0.47787269103E+02  0.19999991149E+02 0.  0.
         12    1    1    2    0    0  0.18906885063E+01  0.31239038570E+02  0.30069439778E+02  0.43400730897E+02  0.00000000000E+00 0. -1.
         11    1    3    3    0    0  0.10274689834E+01 -0.47452268779E+01  0.29841370690E+00  0.48643521291E+01  0.51100000000E-03 0. -1.
        -11    1    3    3    0    0 -0.66507172472E+01 -0.17416667537E+02 -0.12220461101E+02  0.22291523452E+02  0.51100000000E-03 0.  1.
        -12    1    3    3    0    0  0.37325597575E+01 -0.90771441550E+01 -0.18147392384E+02  0.20631393523E+02  0.00000000000E+00 0.  1.
</event>
<event>
 7    1  0.2599124E-010  0.4778727E+02  0.7816164E-02  0.1312668E+00
        -11   -1    0    0    0    0  0.00000000000E+00  0.00000000000E+00  0.45593999997E+02  0.45594000000E+02  0.51100000000E-03 0. -1.
         11   -1    0    0    0    0 -0.00000000000E+00 -0.00000000000E+00 -0.45593999997E+02  0.45594000000E+02  0.51100000000E-03 0.  1.
    9900012    2    1    2    0    0  0.45134556815E+01  0.17808262276E+02 -0.39320705296E+02  0.47787270139E+02  0.19999995872E+02 0.  0.
         12    1    1    2    0    0 -0.45134556815E+01 -0.17808262276E+02  0.39320705296E+02  0.43400729861E+02  0.00000000000E+00 0. -1.
         11    1    3    3    0    0 -0.40770788122E-01  0.18228828852E+02 -0.31142927917E+02  0.36085645666E+02  0.51100000000E-03 0. -1.
        -11    1    3    3    0    0  0.12030874897E+01  0.29020503987E+01 -0.13917483663E+01  0.34360267462E+01  0.51100000000E-03 0.  1.
        -12    1    3    3    0    0  0.33511389799E+01 -0.33226169755E+01 -0.67860290124E+01  0.82655977271E+01  0.00000000000E+00 0.  1.
</event>
<event>
 7    1  0.2599124E-010  0.4778727E+02  0.7816164E-02  0.1312668E+00
        -11   -1    0    0    0    0  0.00000000000E+00  0.00000000000E+00  0.45593999997E+02  0.45594000000E+02  0.51100000000E-03 0.  1.
         11   -1    0    0    0    0 -0.00000000000E+00 -0.00000000000E+00 -0.45593999997E+02  0.45594000000E+02  0.51100000000E-03 0. -1.
    9900012    2    1    2    0    0 -0.29415256512E+02 -0.44838489909E+01  0.31595272953E+02  0.47787268549E+02  0.19999988624E+02 0.  0.
         12    1    1    2    0    0  0.29415256512E+02  0.44838489909E+01 -0.31595272953E+02  0.43400731451E+02  0.00000000000E+00 0. -1.
         11    1    3    3    0    0 -0.77608541919E+01  0.27829324249E+01  0.20912599740E+01  0.85058179624E+01  0.51100000000E-03 0. -1.
        -11    1    3    3    0    0 -0.19908243942E+02 -0.27229985209E+01  0.18776058222E+02  0.27500786541E+02  0.51100000000E-03 0.  1.
         12    1    3    3    0    0 -0.17461583786E+01 -0.45437828949E+01  0.10727954757E+02  0.11780664046E+02  0.00000000000E+00 0. -1.
</event>
<event>
 7    1  0.2599124E-010  0.4778727E+02  0.7816164E-02  0.1312668E+00
        -11   -1    0    0    0    0  0.00000000000E+00  0.00000000000E+00  0.45593999997E+02  0.45594000000E+02  0.51100000000E-03 0. -1.
         11   -1    0    0    0    0 -0.00000000000E+00 -0.00000000000E+00 -0.45593999997E+02  0.45594000000E+02  0.51100000000E-03 0.  1.
    9900012    2    1    2    0    0  0.36617411114E+02  0.15369904637E+02 -0.17508708637E+02  0.47787266787E+02  0.19999980590E+02 0.  0.
         12    1    1    2    0    0 -0.36617411114E+02 -0.15369904637E+02  0.17508708637E+02  0.43400733213E+02  0.00000000000E+00 0. -1.
         11    1    3    3    0    0  0.15093960221E+02  0.18337586128E+01 -0.92468747881E+01  0.17795926484E+02  0.51100000000E-03 0. -1.
        -11    1    3    3    0    0  0.26488111521E+01 -0.19643258625E+01  0.15832247988E+01  0.36580565384E+01  0.51100000000E-03 0.  1.
        -12    1    3    3    0    0  0.18874639741E+02  0.15500471887E+02 -0.98450586480E+01  0.26333283765E+02  0.00000000000E+00 0.  1.
</event>
<event>
 7    1  0.2599124E-010  0.4778727E+02  0.7816164E-02  0.1312668E+00
        -11   -1    0    0    0    0  0.00000000000E+00  0.00000000000E+00  0.45593999997E+02  0.45594000000E+02  0.51100000000E-03 0.  1.
         11   -1    0    0    0    0 -0.00000000000E+00 -0.00000000000E+00 -0.45593999997E+02  0.45594000000E+02  0.51100000000E-03 0. -1.
    9900012    2    1    2    0    0  0.23132452891E+02  0.48898200705E+01  0.36395089655E+02  0.47787271111E+02  0.20000000304E+02 0.  0.
         12    1    1    2    0    0 -0.23132452891E+02 -0.48898200705E+01 -0.36395089655E+02  0.43400728889E+02  0.00000000000E+00 0. -1.
         11    1    3    3    0    0 -0.16516421618E+00 -0.23461833824E+01  0.81264752076E+01  0.84599914446E+01  0.51100000000E-03 0. -1.
        -11    1    3    3    0    0  0.11845068614E+02 -0.11752641992E+01  0.71892489567E+01  0.13905833208E+02  0.51100000000E-03 0.  1.
         12    1    3    3    0    0  0.11452548494E+02  0.84112676521E+01  0.21079365491E+02  0.25421446458E+02  0.00000000000E+00 0. -1.
</event>
<event>
 7    1  0.2599124E-010  0.4778727E+02  0.7816164E-02  0.1312668E+00
        -11   -1    0    0    0    0  0.00000000000E+00  0.00000000000E+00  0.45593999997E+02  0.45594000000E+02  0.51100000000E-03 0.  1.
         11   -1    0    0    0    0 -0.00000000000E+00 -0.00000000000E+00 -0.45593999997E+02  0.45594000000E+02  0.51100000000E-03 0. -1.
    9900012    2    1    2    0    0 -0.22355704459E+02 -0.36414816738E+02 -0.76030698984E+01  0.47787273372E+02  0.20000010613E+02 0.  0.
         12    1    1    2    0    0  0.22355704459E+02  0.36414816738E+02  0.76030698984E+01  0.43400726628E+02  0.00000000000E+00 0. -1.
         11    1    3    3    0    0 -0.25085773335E+01  0.80281453609E+00  0.16420507449E+01  0.31038367109E+01  0.51100000000E-03 0. -1.
        -11    1    3    3    0    0 -0.48812671875E+01 -0.17863753610E+01 -0.18455398003E+01  0.55157885838E+01  0.51100000000E-03 0.  1.
        -12    1    3    3    0    0 -0.14965859938E+02 -0.35431255913E+02 -0.73995808430E+01  0.39167648078E+02  0.00000000000E+00 0.  1.
</event>
<event>
 7    1  0.2599124E-010  0.4778726E+02  0.7816164E-02  0.1312668E+00
        -11   -1    0    0    0    0  0.00000000000E+00  0.00000000000E+00  0.45593999997E+02  0.45594000000E+02  0.51100000000E-03 0.  1.
         11   -1    0    0    0    0 -0.00000000000E+00 -0.00000000000E+00 -0.45593999997E+02  0.45594000000E+02  0.51100000000E-03 0. -1.
    9900012    2    1    2    0    0 -0.37356897464E+02  0.51851735950E+01  0.21475569983E+02  0.47787263607E+02  0.19999966091E+02 0.  0.
         12    1    1    2    0    0  0.37356897464E+02 -0.51851735950E+01 -0.21475569983E+02  0.43400736393E+02  0.00000000000E+00 0. -1.
         11    1    3    3    0    0 -0.55139121518E+01 -0.91600930974E+00  0.75831437020E+01  0.94205291220E+01  0.51100000000E-03 0. -1.
        -11    1    3    3    0    0 -0.31126039856E+01  0.50848428415E+01  0.62121401218E+01  0.86101460759E+01  0.51100000000E-03 0.  1.
         12    1    3    3    0    0 -0.28730381326E+02  0.10163400632E+01  0.76802861595E+01  0.29756588409E+02  0.00000000000E+00 0. -1.
</event>
<event>
 7    1  0.2599124E-010  0.4778725E+02  0.7816164E-02  0.1312668E+00
        -11   -1    0    0    0    0  0.00000000000E+00  0.00000000000E+00  0.45593999997E+02  0.45594000000E+02  0.51100000000E-03 0.  1.
         11   -1    0    0    0    0 -0.00000000000E+00 -0.00000000000E+00 -0.45593999997E+02  0.45594000000E+02  0.51100000000E-03 0. -1.
    9900012    2    1    2    0    0  0.18728843386E+02  0.92080439188E+01  0.38053477904E+02  0.47787253140E+02  0.19999918368E+02 0.  0.
         12    1    1    2    0    0 -0.18728843386E+02 -0.92080439188E+01 -0.38053477904E+02  0.43400746860E+02  0.00000000000E+00 0. -1.
         11    1    3    3    0    0 -0.16220412122E+01  0.26432253491E+01  0.23895779595E+01  0.39150659031E+01  0.51100000000E-03 0. -1.
        -11    1    3    3    0    0  0.12730089084E+02  0.93883999003E+01  0.15561567507E+02  0.22189177639E+02  0.51100000000E-03 0.  1.
        -12    1    3    3    0    0  0.76207955144E+01 -0.28235813306E+01  0.20102332437E+02  0.21683009598E+02  0.00000000000E+00 0.  1.
</event>
<event>
 7    1  0.2599124E-010  0.4778728E+02  0.7816164E-02  0.1312668E+00
        -11   -1    0    0    0    0  0.00000000000E+00  0.00000000000E+00  0.45593999997E+02  0.45594000000E+02  0.51100000000E-03 0. -1.
         11   -1    0    0    0    0 -0.00000000000E+00 -0.00000000000E+00 -0.45593999997E+02  0.45594000000E+02  0.51100000000E-03 0.  1.
    9900012    2    1    2    0    0  0.13824892237E+02 -0.22483075330E+02 -0.34452959501E+02  0.47787277195E+02  0.20000028042E+02 0.  0.
         12    1    1    2    0    0 -0.13824892237E+02  0.22483075330E+02  0.34452959501E+02  0.43400722805E+02  0.00000000000E+00 0. -1.
         11    1    3    3    0    0 -0.87424026654E+00 -0.23923015492E+01 -0.85338045965E+01  0.89057972074E+01  0.51100000000E-03 0. -1.
        -11    1    3    3    0    0  0.12569168659E+02 -0.72180090239E+01 -0.19618708907E+02  0.24392158463E+02  0.51100000000E-03 0.  1.
         12    1    3    3    0    0  0.21299638443E+01 -0.12872764757E+02 -0.63004459972E+01  0.14489321524E+02  0.00000000000E+00 0. -1.
</event>
<event>
 7    1  0.2599124E-010  0.4778725E+02  0.7816164E-02  0.1312668E+00
        -11   -1    0    0    0    0  0.00000000000E+00  0.00000000000E+00  0.45593999997E+02  0.45594000000E+02  0.51100000000E-03 0.  1.
         11   -1    0    0    0    0 -0.00000000000E+00 -0.00000000000E+00 -0.45593999997E+02  0.45594000000E+02  0.51100000000E-03 0. -1.
    9900012    2    1    2    0    0 -0.26045387910E+02  0.20500028023E+02  0.28018067364E+02  0.47787245639E+02  0.19999884166E+02 0.  0.
         12    1    1    2    0    0  0.26045387910E+02 -0.20500028023E+02 -0.28018067364E+02  0.43400754361E+02  0.00000000000E+00 0. -1.
         11    1    3    3    0    0 -0.88546868734E+01  0.15275320061E+01  0.86790085761E+01  0.12492558736E+02  0.51100000000E-03 0. -1.
        -11    1    3    3    0    0 -0.35234977801E+01  0.27188145046E+01 -0.22712036476E+01  0.49965343176E+01  0.51100000000E-03 0.  1.
        -12    1    3    3    0    0 -0.13667203256E+02  0.16253681512E+02  0.21610262435E+02  0.30298152585E+02  0.00000000000E+00 0.  1.
</event>
<event>
 7    1  0.2599124E-010  0.4778727E+02  0.7816164E-02  0.1312668E+00
        -11   -1    0    0    0    0  0.00000000000E+00  0.00000000000E+00  0.45593999997E+02  0.45594000000E+02  0.51100000000E-03 0.  1.
         11   -1    0    0    0    0 -0.00000000000E+00 -0.00000000000E+00 -0.45593999997E+02  0.45594000000E+02  0.51100000000E-03 0. -1.
    9900012    2    1    2    0    0  0.10751996757E+02  0.33330665566E+02  0.25633661439E+02  0.47787270743E+02  0.19999998625E+02 0.  0.
         12    1    1    2    0    0 -0.10751996757E+02 -0.33330665566E+02 -0.25633661439E+02  0.43400729257E+02  0.00000000000E+00 0. -1.
         11    1    3    3    0    0  0.41685279636E+01  0.55089208745E+01  0.43520999478E+01  0.81649010283E+01  0.51100000000E-03 0. -1.
        -11    1    3    3    0    0 -0.28294205252E+01  0.54936848027E+01  0.12327900128E+02  0.13789971539E+02  0.51100000000E-03 0.  1.
        -12    1    3    3    0    0  0.94128893183E+01  0.22328059888E+02  0.89536613628E+01  0.25832398175E+02  0.00000000000E+00 0.  1.
</event>
<event>
 7    1  0.2599124E-010  0.4778727E+02  0.7816164E-02  0.1312668E+00
        -11   -1    0    0    0    0  0.00000000000E+00  0.00000000000E+00  0.45593999997E+02  0.45594000000E+02  0.51100000000E-03 0. -1.
         11   -1    0    0    0    0 -0.00000000000E+00 -0.00000000000E+00 -0.45593999997E+02  0.45594000000E+02  0.51100000000E-03 0.  1.
    9900012    2    1    2    0    0  0.36133168005E+02  0.13154926621E+02 -0.20123752104E+02  0.47787270476E+02  0.19999997408E+02 0.  0.
         12    1    1    2    0    0 -0.36133168005E+02 -0.13154926621E+02  0.20123752104E+02  0.43400729524E+02  0.00000000000E+00 0. -1.
         11    1    3    3    0    0 -0.27186016731E+00 -0.95083697751E-01 -0.85312404749E+00  0.90042754382E+00  0.51100000000E-03 0. -1.
        -11    1    3    3    0    0  0.30313096412E+02  0.17100658969E+02 -0.19050354006E+02  0.39676596872E+02  0.51100000000E-03 0.  1.
        -12    1    3    3    0    0  0.60919317599E+01 -0.38506486504E+01 -0.22027404994E+00  0.72102460606E+01  0.00000000000E+00 0.  1.
</event>
<event>
 7    1  0.2599124E-010  0.4778728E+02  0.7816164E-02  0.1312668E+00
        -11   -1    0    0    0    0  0.00000000000E+00  0.00000000000E+00  0.45593999997E+02  0.45594000000E+02  0.51100000000E-03 0.  1.
         11   -1    0    0    0    0 -0.00000000000E+00 -0.00000000000E+00 -0.45593999997E+02  0.45594000000E+02  0.51100000000E-03 0. -1.
    9900012    2    1    2    0    0  0.15034640310E+02  0.37437873106E+02  0.15999607462E+02  0.47787283521E+02  0.20000056886E+02 0.  0.
         12    1    1    2    0    0 -0.15034640310E+02 -0.37437873106E+02 -0.15999607462E+02  0.43400716479E+02  0.00000000000E+00 0. -1.
         11    1    3    3    0    0  0.80402576665E+00  0.16310104411E+02  0.39293360906E+01  0.16796000885E+02  0.51100000000E-03 0. -1.
        -11    1    3    3    0    0  0.84908436613E+01  0.20289222798E+02  0.64646867379E+01  0.22924640951E+02  0.51100000000E-03 0.  1.
         12    1    3    3    0    0  0.57397708823E+01  0.83854589621E+00  0.56055846336E+01  0.80666416857E+01  0.00000000000E+00 0. -1.
</event>
<event>
 7    1  0.2599124E-010  0.4778727E+02  0.7816164E-02  0.1312668E+00
        -11   -1    0    0    0    0  0.00000000000E+00  0.00000000000E+00  0.45593999997E+02  0.45594000000E+02  0.51100000000E-03 0. -1.
         11   -1    0    0    0    0 -0.00000000000E+00 -0.00000000000E+00 -0.45593999997E+02  0.45594000000E+02  0.51100000000E-03 0.  1.
    9900012    2    1    2    0    0 -0.33726596330E+02  0.50450144541E+01  0.26845633604E+02  0.47787268273E+02  0.19999987365E+02 0.  0.
         12    1    1    2    0    0  0.33726596330E+02 -0.50450144541E+01 -0.26845633604E+02  0.43400731727E+02  0.00000000000E+00 0. -1.
         11    1    3    3    0    0 -0.61681508472E+01  0.70504592289E+00  0.76841027027E+01  0.98786947131E+01  0.51100000000E-03 0. -1.
        -11    1    3    3    0    0 -0.26306340663E+02  0.23827326183E+01  0.21903757281E+02  0.34314363714E+02  0.51100000000E-03 0.  1.
        -12    1    3    3    0    0 -0.12521048198E+01  0.19572359129E+01 -0.27422263801E+01  0.35942098462E+01  0.00000000000E+00 0.  1.
</event>
<event>
 7    1  0.2599124E-010  0.4778727E+02  0.7816164E-02  0.1312668E+00
        -11   -1    0    0    0    0  0.00000000000E+00  0.00000000000E+00  0.45593999997E+02  0.45594000000E+02  0.51100000000E-03 0.  1.
         11   -1    0    0    0    0 -0.00000000000E+00 -0.00000000000E+00 -0.45593999997E+02  0.45594000000E+02  0.51100000000E-03 0. -1.
    9900012    2    1    2    0    0 -0.68637353806E+01 -0.40506172374E+02  0.13991527184E+02  0.47787266173E+02  0.19999977788E+02 0.  0.
         12    1    1    2    0    0  0.68637353806E+01  0.40506172374E+02 -0.13991527184E+02  0.43400733827E+02  0.00000000000E+00 0. -1.
         11    1    3    3    0    0  0.24627436356E+01 -0.11542754299E+02  0.54083155518E+01  0.12982686948E+02  0.51100000000E-03 0. -1.
        -11    1    3    3    0    0 -0.46316475281E+01 -0.26384237615E+02  0.28189011829E+01  0.26935596475E+02  0.51100000000E-03 0.  1.
         12    1    3    3    0    0 -0.46948314881E+01 -0.25791804605E+01  0.57643104498E+01  0.78689827494E+01  0.00000000000E+00 0. -1.
</event>
<event>
 7    1  0.2599124E-010  0.4778727E+02  0.7816164E-02  0.1312668E+00
        -11   -1    0    0    0    0  0.00000000000E+00  0.00000000000E+00  0.45593999997E+02  0.45594000000E+02  0.51100000000E-03 0.  1.
         11   -1    0    0    0    0 -0.00000000000E+00 -0.00000000000E+00 -0.45593999997E+02  0.45594000000E+02  0.51100000000E-03 0. -1.
    9900012    2    1    2    0    0  0.13066529401E+01  0.43357530437E+02  0.14284110696E+01  0.47787272522E+02  0.20000006735E+02 0.  0.
         12    1    1    2    0    0 -0.13066529401E+01 -0.43357530437E+02 -0.14284110696E+01  0.43400727478E+02  0.00000000000E+00 0. -1.
         11    1    3    3    0    0  0.27944282286E+01  0.15125967841E+02 -0.10554317147E+01  0.15418095492E+02  0.51100000000E-03 0. -1.
        -11    1    3    3    0    0  0.20038212334E+01  0.20396889743E+02 -0.48757861038E+01  0.21067076235E+02  0.51100000000E-03 0.  1.
        -12    1    3    3    0    0 -0.34915965219E+01  0.78346728533E+01  0.73596288881E+01  0.11302100794E+02  0.00000000000E+00 0.  1.
</event>
<event>
 7    1  0.2599124E-010  0.4778727E+02  0.7816164E-02  0.1312668E+00
        -11   -1    0    0    0    0  0.00000000000E+00  0.00000000000E+00  0.45593999997E+02  0.45594000000E+02  0.51100000000E-03 0.  1.
         11   -1    0    0    0    0 -0.00000000000E+00 -0.00000000000E+00 -0.45593999997E+02  0.45594000000E+02  0.51100000000E-03 0. -1.
    9900012    2    1    2    0    0  0.22988441541E+02  0.97164884100E+01  0.35506967159E+02  0.47787270648E+02  0.19999998190E+02 0.  0.
         12    1    1    2    0    0 -0.22988441541E+02 -0.97164884100E+01 -0.35506967159E+02  0.43400729352E+02  0.00000000000E+00 0. -1.
         11    1    3    3    0    0  0.42706325247E+01  0.20406621366E+01  0.22571802961E+00  0.47385180180E+01  0.51100000000E-03 0. -1.
        -11    1    3    3    0    0  0.88284741662E+00 -0.34883557997E+01  0.44681718844E+01  0.57369509320E+01  0.51100000000E-03 0.  1.
        -12    1    3    3    0    0  0.17834961599E+02  0.11164182073E+02  0.30813077245E+02  0.37311801698E+02  0.00000000000E+00 0.  1.
</event>
<event>
 7    1  0.2599124E-010  0.4778727E+02  0.7816164E-02  0.1312668E+00
        -11   -1    0    0    0    0  0.00000000000E+00  0.00000000000E+00  0.45593999997E+02  0.45594000000E+02  0.51100000000E-03 0.  1.
         11   -1    0    0    0    0 -0.00000000000E+00 -0.00000000000E+00 -0.45593999997E+02  0.45594000000E+02  0.51100000000E-03 0. -1.
    9900012    2    1    2    0    0  0.38351822017E+02 -0.14156072039E+02  0.14572794230E+02  0.47787274669E+02  0.20000016527E+02 0.  0.
         12    1    1    2    0    0 -0.38351822017E+02  0.14156072039E+02 -0.14572794230E+02  0.43400725331E+02  0.00000000000E+00 0. -1.
         11    1    3    3    0    0  0.40152729090E+02 -0.12668754565E+02  0.13216869055E+02  0.44129634300E+02  0.51100000000E-03 0.  1.
        -11    1    3    3    0    0 -0.13196677845E+01  0.11394845657E+00  0.14736883313E+01  0.19814804746E+01  0.51100000000E-03 0. -1.
        -12    1    3    3    0    0 -0.48123928810E+00 -0.16012659302E+01 -0.11776315671E+00  0.16761598947E+01  0.00000000000E+00 0.  1.
</event>
<event>
 7    1  0.2599124E-010  0.4778727E+02  0.7816164E-02  0.1312668E+00
        -11   -1    0    0    0    0  0.00000000000E+00  0.00000000000E+00  0.45593999997E+02  0.45594000000E+02  0.51100000000E-03 0.  1.
         11   -1    0    0    0    0 -0.00000000000E+00 -0.00000000000E+00 -0.45593999997E+02  0.45594000000E+02  0.51100000000E-03 0. -1.
    9900012    2    1    2    0    0  0.22891898876E+02 -0.22588374487E+02  0.29143608614E+02  0.47787267066E+02  0.19999981862E+02 0.  0.
         12    1    1    2    0    0 -0.22891898876E+02  0.22588374487E+02 -0.29143608614E+02  0.43400732934E+02  0.00000000000E+00 0. -1.
         11    1    3    3    0    0  0.96748051504E+01 -0.16613094371E+02  0.20109211454E+02  0.27820444728E+02  0.51100000000E-03 0. -1.
        -11    1    3    3    0    0  0.12256185154E+02 -0.84604833073E+01  0.87848097267E+01  0.17290654543E+02  0.51100000000E-03 0.  1.
        -12    1    3    3    0    0  0.96090857131E+00  0.24852031913E+01  0.24958743358E+00  0.26761677958E+01  0.00000000000E+00 0.  1.
</event>
<event>
 7    1  0.2599124E-010  0.4778728E+02  0.7816164E-02  0.1312668E+00
        -11   -1    0    0    0    0  0.00000000000E+00  0.00000000000E+00  0.45593999997E+02  0.45594000000E+02  0.51100000000E-03 0.  1.
         11   -1    0    0    0    0 -0.00000000000E+00 -0.00000000000E+00 -0.45593999997E+02  0.45594000000E+02  0.51100000000E-03 0. -1.
    9900012    2    1    2    0    0 -0.11481237729E+02  0.19219449438E+02  0.37180865907E+02  0.47787275973E+02  0.20000022472E+02 0.  0.
         12    1    1    2    0    0  0.11481237729E+02 -0.19219449438E+02 -0.37180865907E+02  0.43400724027E+02  0.00000000000E+00 0. -1.
         11    1    3    3    0    0  0.65057515307E+00  0.79298841813E+00  0.19096128055E+02  0.19123655132E+02  0.51100000000E-03 0. -1.
        -11    1    3    3    0    0 -0.19805144905E+01  0.31435526173E+01  0.44946130401E+01  0.58314584236E+01  0.51100000000E-03 0.  1.
         12    1    3    3    0    0 -0.10151298391E+02  0.15282908402E+02  0.13590124811E+02  0.22832162417E+02  0.00000000000E+00 0. -1.
</event>
<event>
 7    1  0.2599124E-010  0.4778727E+02  0.7816164E-02  0.1312668E+00
        -11   -1    0    0    0    0  0.00000000000E+00  0.00000000000E+00  0.45593999997E+02  0.45594000000E+02  0.51100000000E-03 0.  1.
         11   -1    0    0    0    0 -0.00000000000E+00 -0.00000000000E+00 -0.45593999997E+02  0.45594000000E+02  0.51100000000E-03 0. -1.
    9900012    2    1    2    0    0  0.24573989051E+02  0.35453954877E+01  0.35597368150E+02  0.47787269750E+02  0.19999994098E+02 0.  0.
         12    1    1    2    0    0 -0.24573989051E+02 -0.35453954877E+01 -0.35597368150E+02  0.43400730250E+02  0.00000000000E+00 0. -1.
         11    1    3    3    0    0  0.16167983325E+02  0.59050502032E+01  0.11257229500E+02  0.20566927796E+02  0.51100000000E-03 0. -1.
        -11    1    3    3    0    0  0.67237319719E+01  0.19468981421E+01  0.10423713319E+02  0.12555985968E+02  0.51100000000E-03 0.  1.
        -12    1    3    3    0    0  0.16822737544E+01 -0.43065528576E+01  0.13916425331E+02  0.14664355986E+02  0.00000000000E+00 0.  1.
</event>
<event>
 7    1  0.2599124E-010  0.4778727E+02  0.7816164E-02  0.1312668E+00
        -11   -1    0    0    0    0  0.00000000000E+00  0.00000000000E+00  0.45593999997E+02  0.45594000000E+02  0.51100000000E-03 0.  1.
         11   -1    0    0    0    0 -0.00000000000E+00 -0.00000000000E+00 -0.45593999997E+02  0.45594000000E+02  0.51100000000E-03 0. -1.
    9900012    2    1    2    0    0  0.15814985642E+02  0.39510054731E+02  0.85126288356E+01  0.47787273676E+02  0.20000011999E+02 0.  0.
         12    1    1    2    0    0 -0.15814985642E+02 -0.39510054731E+02 -0.85126288356E+01  0.43400726324E+02  0.00000000000E+00 0. -1.
         11    1    3    3    0    0  0.31131283879E+01  0.40709632075E+00 -0.43351738176E+00  0.31694216121E+01  0.51100000000E-03 0. -1.
        -11    1    3    3    0    0  0.15742520330E+02  0.28294057315E+02  0.79822056745E+01  0.33348106894E+02  0.51100000000E-03 0.  1.
         12    1    3    3    0    0 -0.30406630757E+01  0.10808901095E+02  0.96394054284E+00  0.11269745170E+02  0.00000000000E+00 0. -1.
</event>
<event>
 7    1  0.2610347E-010  0.4778727E+02  0.7816164E-02  0.1312668E+00
        -11   -1    0    0    0    0  0.00000000000E+00  0.00000000000E+00  0.45593999997E+02  0.45594000000E+02  0.51100000000E-03 0.  1.
         11   -1    0    0    0    0 -0.00000000000E+00 -0.00000000000E+00 -0.45593999997E+02  0.45594000000E+02  0.51100000000E-03 0. -1.
    9900012    2    1    2    0    0  0.38384786457E+02 -0.11830807816E+02  0.16439694447E+02  0.47787269609E+02  0.19999993456E+02 0.  0.
         12    1    1    2    0    0 -0.38384786457E+02  0.11830807816E+02 -0.16439694447E+02  0.43400730391E+02  0.00000000000E+00 0. -1.
         11    1    3    3    0    0 -0.92276842533E+00 -0.24229795810E+01  0.51933588600E+00  0.26442468947E+01  0.51100000000E-03 0. -1.
        -11    1    3    3    0    0  0.19106921246E+02 -0.94844206918E+01  0.40490591470E+01  0.21712290427E+02  0.51100000000E-03 0.  1.
        -12    1    3    3    0    0  0.20200633636E+02  0.76592457229E-01  0.11871299414E+02  0.23430732287E+02  0.00000000000E+00 0.  1.
</event>
<event>
 7    1  0.2599124E-010  0.4778726E+02  0.7816164E-02  0.1312668E+00
        -11   -1    0    0    0    0  0.00000000000E+00  0.00000000000E+00  0.45593999997E+02  0.45594000000E+02  0.51100000000E-03 0.  1.
         11   -1    0    0    0    0 -0.00000000000E+00 -0.00000000000E+00 -0.45593999997E+02  0.45594000000E+02  0.51100000000E-03 0. -1.
    9900012    2    1    2    0    0  0.39450169217E+02 -0.17797354199E+02  0.32499502534E+01  0.47787264472E+02  0.19999970035E+02 0.  0.
         12    1    1    2    0    0 -0.39450169217E+02  0.17797354199E+02 -0.32499502534E+01  0.43400735528E+02  0.00000000000E+00 0. -1.
         11    1    3    3    0    0  0.74622162889E+01 -0.13328133116E+01 -0.55329363811E+00  0.76004734969E+01  0.51100000000E-03 0. -1.
        -11    1    3    3    0    0  0.27898464785E+02 -0.87014443102E+01 -0.25778976600E+01  0.29337433887E+02  0.51100000000E-03 0.  1.
         12    1    3    3    0    0  0.40894881423E+01 -0.77630965771E+01  0.63811415515E+01  0.10849357088E+02  0.00000000000E+00 0. -1.
</event>
<event>
 7    1  0.2599124E-010  0.4778727E+02  0.7816164E-02  0.1312668E+00
        -11   -1    0    0    0    0  0.00000000000E+00  0.00000000000E+00  0.45593999997E+02  0.45594000000E+02  0.51100000000E-03 0.  1.
         11   -1    0    0    0    0 -0.00000000000E+00 -0.00000000000E+00 -0.45593999997E+02  0.45594000000E+02  0.51100000000E-03 0. -1.
    9900012    2    1    2    0    0 -0.30411047853E+02  0.90368367238E+01  0.29616329143E+02  0.47787271880E+02  0.20000003808E+02 0.  0.
         12    1    1    2    0    0  0.30411047853E+02 -0.90368367238E+01 -0.29616329143E+02  0.43400728120E+02  0.00000000000E+00 0. -1.
         11    1    3    3    0    0 -0.77628620792E+00  0.48138388933E+01  0.11465829710E+01  0.50090236511E+01  0.51100000000E-03 0. -1.
        -11    1    3    3    0    0 -0.61957141343E+01  0.54851475587E+01  0.54975687073E+01  0.99346353395E+01  0.51100000000E-03 0.  1.
        -12    1    3    3    0    0 -0.23439047511E+02 -0.12621497282E+01  0.22972177464E+02  0.32843612889E+02  0.00000000000E+00 0.  1.
</event>
<event>
 7    1  0.2599124E-010  0.4778733E+02  0.7816164E-02  0.1312668E+00
        -11   -1    0    0    0    0  0.00000000000E+00  0.00000000000E+00  0.45593999997E+02  0.45594000000E+02  0.51100000000E-03 0. -1.
         11   -1    0    0    0    0 -0.00000000000E+00 -0.00000000000E+00 -0.45593999997E+02  0.45594000000E+02  0.51100000000E-03 0.  1.
    9900012    2    1    2    0    0 -0.26423281192E+02  0.33135377005E+02 -0.93528194472E+01  0.47787329155E+02  0.20000264946E+02 0.  0.
         12    1    1    2    0    0  0.26423281192E+02 -0.33135377005E+02  0.93528194472E+01  0.43400670845E+02  0.00000000000E+00 0. -1.
         11    1    3    3    0    0 -0.14214432394E+01  0.10213598056E+02 -0.30643000163E+01  0.10757695895E+02  0.51100000000E-03 0. -1.
        -11    1    3    3    0    0  0.42045788052E+00  0.54316551944E+01  0.37451683511E+00  0.54607624102E+01  0.51100000000E-03 0.  1.
        -12    1    3    3    0    0 -0.25422295834E+02  0.17490123755E+02 -0.66630362660E+01  0.31568870849E+02  0.00000000000E+00 0.  1.
</event>
<event>
 7    1  0.2599124E-010  0.4778727E+02  0.7816164E-02  0.1312668E+00
        -11   -1    0    0    0    0  0.00000000000E+00  0.00000000000E+00  0.45593999997E+02  0.45594000000E+02  0.51100000000E-03 0.  1.
         11   -1    0    0    0    0 -0.00000000000E+00 -0.00000000000E+00 -0.45593999997E+02  0.45594000000E+02  0.51100000000E-03 0. -1.
    9900012    2    1    2    0    0  0.31469174554E+02 -0.26441161484E+02  0.13934822777E+02  0.47787271278E+02  0.20000001067E+02 0.  0.
         12    1    1    2    0    0 -0.31469174554E+02  0.26441161484E+02 -0.13934822777E+02  0.43400728722E+02  0.00000000000E+00 0. -1.
         11    1    3    3    0    0  0.77895480703E+01 -0.95413045735E+00  0.34234888104E+00  0.78552292829E+01  0.51100000000E-03 0. -1.
        -11    1    3    3    0    0  0.21237358899E+02 -0.14344311367E+02  0.62926198151E+01  0.26389045947E+02  0.51100000000E-03 0.  1.
        -12    1    3    3    0    0  0.24422675850E+01 -0.11142719660E+02  0.72998540804E+01  0.13542996049E+02  0.00000000000E+00 0.  1.
</event>
<event>
 7    1  0.2599124E-010  0.4778727E+02  0.7816164E-02  0.1312668E+00
        -11   -1    0    0    0    0  0.00000000000E+00  0.00000000000E+00  0.45593999997E+02  0.45594000000E+02  0.51100000000E-03 0. -1.
         11   -1    0    0    0    0 -0.00000000000E+00 -0.00000000000E+00 -0.45593999997E+02  0.45594000000E+02  0.51100000000E-03 0.  1.
    9900012    2    1    2    0    0  0.64795555652E+01 -0.34458675682E+02 -0.25578081597E+02  0.47787271570E+02  0.20000002396E+02 0.  0.
         12    1    1    2    0    0 -0.64795555652E+01  0.34458675682E+02  0.25578081597E+02  0.43400728430E+02  0.00000000000E+00 0. -1.
         11    1    3    3    0    0  0.64274138786E+01 -0.39045864687E+01 -0.50387024128E+01  0.90524011690E+01  0.51100000000E-03 0. -1.
        -11    1    3    3    0    0  0.63860121013E+00 -0.25599100466E+02 -0.21753560044E+02  0.33599689448E+02  0.51100000000E-03 0.  1.
         12    1    3    3    0    0 -0.58645952351E+00 -0.49549887474E+01  0.12141808596E+01  0.51351809529E+01  0.00000000000E+00 0. -1.
</event>
<event>
 7    1  0.2599124E-010  0.4778728E+02  0.7816164E-02  0.1312668E+00
        -11   -1    0    0    0    0  0.00000000000E+00  0.00000000000E+00  0.45593999997E+02  0.45594000000E+02  0.51100000000E-03 0. -1.
         11   -1    0    0    0    0 -0.00000000000E+00 -0.00000000000E+00 -0.45593999997E+02  0.45594000000E+02  0.51100000000E-03 0.  1.
    9900012    2    1    2    0    0  0.31747688135E+02  0.16129354466E+02 -0.24810293791E+02  0.47787280474E+02  0.20000042991E+02 0.  0.
         12    1    1    2    0    0 -0.31747688135E+02 -0.16129354466E+02  0.24810293791E+02  0.43400719526E+02  0.00000000000E+00 0. -1.
         11    1    3    3    0    0 -0.12320978794E+01 -0.77092533948E+00  0.81939959791E+00  0.16684744606E+01  0.51100000000E-03 0. -1.
        -11    1    3    3    0    0 -0.67948898531E+00  0.55188115848E-02 -0.48587264095E+00  0.83534916220E+00  0.51100000000E-03 0.  1.
        -12    1    3    3    0    0  0.33659274999E+02  0.16894760994E+02 -0.25143820748E+02  0.45283456851E+02  0.00000000000E+00 0.  1.
</event>
<event>
 7    1  0.2599124E-010  0.4778727E+02  0.7816164E-02  0.1312668E+00
        -11   -1    0    0    0    0  0.00000000000E+00  0.00000000000E+00  0.45593999997E+02  0.45594000000E+02  0.51100000000E-03 0. -1.
         11   -1    0    0    0    0 -0.00000000000E+00 -0.00000000000E+00 -0.45593999997E+02  0.45594000000E+02  0.51100000000E-03 0.  1.
    9900012    2    1    2    0    0 -0.33006152068E+02 -0.93464168687E+01 -0.26586879370E+02  0.47787265706E+02  0.19999975658E+02 0.  0.
         12    1    1    2    0    0  0.33006152068E+02  0.93464168687E+01  0.26586879370E+02  0.43400734294E+02  0.00000000000E+00 0. -1.
         11    1    3    3    0    0 -0.78940755769E+01  0.43278057941E+01 -0.82179270959E+01  0.12189366605E+02  0.51100000000E-03 0. -1.
        -11    1    3    3    0    0 -0.11200110122E+02 -0.38166195601E+01 -0.13318017629E+02  0.17815124065E+02  0.51100000000E-03 0.  1.
        -12    1    3    3    0    0 -0.13911966370E+02 -0.98576031027E+01 -0.50509346448E+01  0.17782775036E+02  0.00000000000E+00 0.  1.
</event>
<event>
 7    1  0.2599124E-010  0.4778727E+02  0.7816164E-02  0.1312668E+00
        -11   -1    0    0    0    0  0.00000000000E+00  0.00000000000E+00  0.45593999997E+02  0.45594000000E+02  0.51100000000E-03 0.  1.
         11   -1    0    0    0    0 -0.00000000000E+00 -0.00000000000E+00 -0.45593999997E+02  0.45594000000E+02  0.51100000000E-03 0. -1.
    9900012    2    1    2    0    0 -0.20732326133E+02  0.35662019808E+02  0.13491263860E+02  0.47787271847E+02  0.20000003658E+02 0.  0.
         12    1    1    2    0    0  0.20732326133E+02 -0.35662019808E+02 -0.13491263860E+02  0.43400728153E+02  0.00000000000E+00 0. -1.
         11    1    3    3    0    0  0.12959891083E+01  0.12152131610E+01  0.48602534406E+01  0.51747844943E+01  0.51100000000E-03 0. -1.
        -11    1    3    3    0    0 -0.10991485158E+02  0.10036183893E+02  0.20343727822E+01  0.15022529947E+02  0.51100000000E-03 0.  1.
        -12    1    3    3    0    0 -0.11036830083E+02  0.24410622754E+02  0.65966376376E+01  0.27589957406E+02  0.00000000000E+00 0.  1.
</event>
<event>
 7    1  0.3338130E-010  0.4778724E+02  0.7816164E-02  0.1312668E+00
        -11   -1    0    0    0    0  0.00000000000E+00  0.00000000000E+00  0.45593999997E+02  0.45594000000E+02  0.51100000000E-03 0.  1.
         11   -1    0    0    0    0 -0.00000000000E+00 -0.00000000000E+00 -0.45593999997E+02  0.45594000000E+02  0.51100000000E-03 0. -1.
    9900012    2    1    2    0    0 -0.34910966485E+02 -0.36603357420E+00  0.25782087850E+02  0.47787244069E+02  0.19999877007E+02 0.  0.
         12    1    1    2    0    0  0.34910966485E+02  0.36603357420E+00 -0.25782087850E+02  0.43400755931E+02  0.00000000000E+00 0. -1.
         11    1    3    3    0    0  0.24299546579E+00 -0.83093566958E+00  0.49482292637E+01  0.50233926774E+01  0.51100000000E-03 0. -1.
        -11    1    3    3    0    0 -0.60725468505E+01  0.20298377331E+01 -0.84386243135E+00  0.64581863195E+01  0.51100000000E-03 0.  1.
        -12    1    3    3    0    0 -0.29081415101E+02 -0.15649356377E+01  0.21677721017E+02  0.36305665072E+02  0.00000000000E+00 0.  1.
</event>
<event>
 7    1  0.2599124E-010  0.4778727E+02  0.7816164E-02  0.1312668E+00
        -11   -1    0    0    0    0  0.00000000000E+00  0.00000000000E+00  0.45593999997E+02  0.45594000000E+02  0.51100000000E-03 0.  1.
         11   -1    0    0    0    0 -0.00000000000E+00 -0.00000000000E+00 -0.45593999997E+02  0.45594000000E+02  0.51100000000E-03 0. -1.
    9900012    2    1    2    0    0  0.27374489954E+02 -0.32315669687E+02  0.94846210815E+01  0.47787271382E+02  0.20000001539E+02 0.  0.
         12    1    1    2    0    0 -0.27374489954E+02  0.32315669687E+02 -0.94846210815E+01  0.43400728618E+02  0.00000000000E+00 0. -1.
         11    1    3    3    0    0  0.96115502912E+01 -0.34721844721E+01  0.76843746587E+01  0.12786226111E+02  0.51100000000E-03 0. -1.
        -11    1    3    3    0    0  0.73608783396E+01 -0.51182234230E+01  0.15247850063E+01  0.90941580432E+01  0.51100000000E-03 0.  1.
        -12    1    3    3    0    0  0.10402061323E+02 -0.23725261791E+02  0.27546141643E+00  0.25906887228E+02  0.00000000000E+00 0.  1.
</event>
<event>
 7    1  0.2599124E-010  0.4778728E+02  0.7816164E-02  0.1312668E+00
        -11   -1    0    0    0    0  0.00000000000E+00  0.00000000000E+00  0.45593999997E+02  0.45594000000E+02  0.51100000000E-03 0. -1.
         11   -1    0    0    0    0 -0.00000000000E+00 -0.00000000000E+00 -0.45593999997E+02  0.45594000000E+02  0.51100000000E-03 0.  1.
    9900012    2    1    2    0    0  0.29338609174E+02  0.13820691014E+02 -0.28841938534E+02  0.47787275274E+02  0.20000019282E+02 0.  0.
         12    1    1    2    0    0 -0.29338609174E+02 -0.13820691014E+02  0.28841938534E+02  0.43400724726E+02  0.00000000000E+00 0. -1.
         11    1    3    3    0    0  0.52449007660E+01  0.15691394642E+01 -0.86196192991E+01  0.10211220291E+02  0.51100000000E-03 0. -1.
        -11    1    3    3    0    0  0.54660919299E+01  0.11426112740E+02 -0.54562653466E+01  0.13791484515E+02  0.51100000000E-03 0.  1.
        -12    1    3    3    0    0  0.18627616478E+02  0.82543880944E+00 -0.14766053888E+02  0.23784570467E+02  0.00000000000E+00 0.  1.
</event>
<event>
 7    1  0.2599124E-010  0.4778727E+02  0.7816164E-02  0.1312668E+00
        -11   -1    0    0    0    0  0.00000000000E+00  0.00000000000E+00  0.45593999997E+02  0.45594000000E+02  0.51100000000E-03 0.  1.
         11   -1    0    0    0    0 -0.00000000000E+00 -0.00000000000E+00 -0.45593999997E+02  0.45594000000E+02  0.51100000000E-03 0. -1.
    9900012    2    1    2    0    0 -0.37833933550E+02 -0.19465433609E+02  0.85623559616E+01  0.47787267597E+02  0.19999984283E+02 0.  0.
         12    1    1    2    0    0  0.37833933550E+02  0.19465433609E+02 -0.85623559616E+01  0.43400732403E+02  0.00000000000E+00 0. -1.
         11    1    3    3    0    0 -0.81870470469E+01 -0.20626114372E+01  0.10237737477E+01  0.85047174107E+01  0.51100000000E-03 0. -1.
        -11    1    3    3    0    0 -0.15294491511E+02  0.86405595095E+00  0.32246917395E+01  0.15654606361E+02  0.51100000000E-03 0.  1.
         12    1    3    3    0    0 -0.14352394993E+02 -0.18266878123E+02  0.43138904744E+01  0.23627943825E+02  0.00000000000E+00 0. -1.
</event>
<event>
 7    1  0.2599124E-010  0.4778727E+02  0.7816164E-02  0.1312668E+00
        -11   -1    0    0    0    0  0.00000000000E+00  0.00000000000E+00  0.45593999997E+02  0.45594000000E+02  0.51100000000E-03 0.  1.
         11   -1    0    0    0    0 -0.00000000000E+00 -0.00000000000E+00 -0.45593999997E+02  0.45594000000E+02  0.51100000000E-03 0. -1.
    9900012    2    1    2    0    0 -0.16443058972E+02  0.32028023808E+02  0.24237464826E+02  0.47787271911E+02  0.20000003953E+02 0.  0.
         12    1    1    2    0    0  0.16443058972E+02 -0.32028023808E+02 -0.24237464826E+02  0.43400728089E+02  0.00000000000E+00 0. -1.
         11    1    3    3    0    0 -0.98554946199E+00  0.15439254374E+01 -0.11466522084E+01  0.21609777986E+01  0.51100000000E-03 0. -1.
        -11    1    3    3    0    0 -0.15543085485E+02  0.32430890132E+02  0.24161377834E+02  0.43325769702E+02  0.51100000000E-03 0.  1.
        -12    1    3    3    0    0  0.85575975274E-01 -0.19467917618E+01  0.12227392005E+01  0.23005244106E+01  0.00000000000E+00 0.  1.
</event>
<event>
 7    1  0.2599124E-010  0.4778728E+02  0.7816164E-02  0.1312668E+00
        -11   -1    0    0    0    0  0.00000000000E+00  0.00000000000E+00  0.45593999997E+02  0.45594000000E+02  0.51100000000E-03 0.  1.
         11   -1    0    0    0    0 -0.00000000000E+00 -0.00000000000E+00 -0.45593999997E+02  0.45594000000E+02  0.51100000000E-03 0. -1.
    9900012    2    1    2    0    0 -0.39307592098E+02 -0.52987368323E+01  0.17619854393E+02  0.47787277916E+02  0.20000031330E+02 0.  0.
         12    1    1    2    0    0  0.39307592098E+02  0.52987368323E+01 -0.17619854393E+02  0.43400722084E+02  0.00000000000E+00 0. -1.
         11    1    3    3    0    0 -0.79517522837E+00  0.26302502868E+01  0.20595054283E+01  0.34339602626E+01  0.51100000000E-03 0. -1.
        -11    1    3    3    0    0 -0.20749528052E+02  0.22031428722E+01  0.55856017424E+01  0.21600826373E+02  0.51100000000E-03 0.  1.
         12    1    3    3    0    0 -0.17762888818E+02 -0.10132129991E+02  0.99747472225E+01  0.22752491280E+02  0.00000000000E+00 0. -1.
</event>
<event>
 7    1  0.2599124E-010  0.4778726E+02  0.7816164E-02  0.1312668E+00
        -11   -1    0    0    0    0  0.00000000000E+00  0.00000000000E+00  0.45593999997E+02  0.45594000000E+02  0.51100000000E-03 0.  1.
         11   -1    0    0    0    0 -0.00000000000E+00 -0.00000000000E+00 -0.45593999997E+02  0.45594000000E+02  0.51100000000E-03 0. -1.
    9900012    2    1    2    0    0  0.15513638026E+02 -0.40329541136E+02  0.40594385123E+01  0.47787263899E+02  0.19999967423E+02 0.  0.
         12    1    1    2    0    0 -0.15513638026E+02  0.40329541136E+02 -0.40594385123E+01  0.43400736101E+02  0.00000000000E+00 0. -1.
         11    1    3    3    0    0  0.32840412064E+01 -0.13677358855E+01  0.28191482729E+01  0.45390775872E+01  0.51100000000E-03 0. -1.
        -11    1    3    3    0    0  0.10110979332E+02 -0.11621633421E+02 -0.23834349948E+01  0.15587656304E+02  0.51100000000E-03 0.  1.
        -12    1    3    3    0    0  0.21186174872E+01 -0.27340171830E+02  0.36237252342E+01  0.27660530008E+02  0.00000000000E+00 0.  1.
</event>
<event>
 7    1  0.2599124E-010  0.4778727E+02  0.7816164E-02  0.1312668E+00
        -11   -1    0    0    0    0  0.00000000000E+00  0.00000000000E+00  0.45593999997E+02  0.45594000000E+02  0.51100000000E-03 0.  1.
         11   -1    0    0    0    0 -0.00000000000E+00 -0.00000000000E+00 -0.45593999997E+02  0.45594000000E+02  0.51100000000E-03 0. -1.
    9900012    2    1    2    0    0  0.29445451633E+02  0.95730066524E+00  0.31869615101E+02  0.47787269440E+02  0.19999992684E+02 0.  0.
         12    1    1    2    0    0 -0.29445451633E+02 -0.95730066524E+00 -0.31869615101E+02  0.43400730560E+02  0.00000000000E+00 0. -1.
         11    1    3    3    0    0  0.19853296341E+02  0.93768698394E+01  0.16659123980E+02  0.27560941124E+02  0.51100000000E-03 0. -1.
        -11    1    3    3    0    0 -0.31013356907E-01  0.28981509877E+00  0.10302426644E+00  0.30914216855E+00  0.51100000000E-03 0.  1.
        -12    1    3    3    0    0  0.96231686492E+01 -0.87093842729E+01  0.15107466854E+02  0.19917186147E+02  0.00000000000E+00 0.  1.
</event>
<event>
 7    1  0.2599124E-010  0.4778727E+02  0.7816164E-02  0.1312668E+00
        -11   -1    0    0    0    0  0.00000000000E+00  0.00000000000E+00  0.45593999997E+02  0.45594000000E+02  0.51100000000E-03 0. -1.
         11   -1    0    0    0    0 -0.00000000000E+00 -0.00000000000E+00 -0.45593999997E+02  0.45594000000E+02  0.51100000000E-03 0.  1.
    9900012    2    1    2    0    0  0.34758498177E+02 -0.22097067830E+02 -0.13681716802E+02  0.47787274466E+02  0.20000015601E+02 0.  0.
         12    1    1    2    0    0 -0.34758498177E+02  0.22097067830E+02  0.13681716802E+02  0.43400725534E+02  0.00000000000E+00 0. -1.
         11    1    3    3    0    0  0.46807172878E+01 -0.33903056233E+01  0.16060898196E+01  0.59985674387E+01  0.51100000000E-03 0. -1.
        -11    1    3    3    0    0  0.15016539085E+02 -0.17310387899E+02 -0.48851397761E+01  0.23430974504E+02  0.51100000000E-03 0.  1.
        -12    1    3    3    0    0  0.15061241805E+02 -0.13963743071E+01 -0.10402666845E+02  0.18357732524E+02  0.00000000000E+00 0.  1.
</event>
<event>
 7    1  0.2599124E-010  0.4778728E+02  0.7816164E-02  0.1312668E+00
        -11   -1    0    0    0    0  0.00000000000E+00  0.00000000000E+00  0.45593999997E+02  0.45594000000E+02  0.51100000000E-03 0. -1.
         11   -1    0    0    0    0 -0.00000000000E+00 -0.00000000000E+00 -0.45593999997E+02  0.45594000000E+02  0.51100000000E-03 0.  1.
    9900012    2    1    2    0    0  0.41703715838E+02 -0.38388969941E+01  0.11387968067E+02  0.47787275795E+02  0.20000021660E+02 0.  0.
         12    1    1    2    0    0 -0.41703715838E+02  0.38388969941E+01 -0.11387968067E+02  0.43400724205E+02  0.00000000000E+00 0. -1.
         11    1    3    3    0    0  0.48679828731E+01 -0.29699139428E+01  0.49548882815E+01  0.75543738472E+01  0.51100000000E-03 0. -1.
        -11    1    3    3    0    0  0.36437727123E+01  0.32830990223E+01  0.46123679762E+01  0.67327377327E+01  0.51100000000E-03 0.  1.
         12    1    3    3    0    0  0.33191960252E+02 -0.41520820735E+01  0.18207118093E+01  0.33500164215E+02  0.00000000000E+00 0. -1.
</event>
<event>
 7    1  0.2599124E-010  0.4778728E+02  0.7816164E-02  0.1312668E+00
        -11   -1    0    0    0    0  0.00000000000E+00  0.00000000000E+00  0.45593999997E+02  0.45594000000E+02  0.51100000000E-03 0.  1.
         11   -1    0    0    0    0 -0.00000000000E+00 -0.00000000000E+00 -0.45593999997E+02  0.45594000000E+02  0.51100000000E-03 0. -1.
    9900012    2    1    2    0    0 -0.43311432883E+02 -0.16167683715E+01  0.22645685262E+01  0.47787280778E+02  0.20000044380E+02 0.  0.
         12    1    1    2    0    0  0.43311432883E+02  0.16167683715E+01 -0.22645685262E+01  0.43400719222E+02  0.00000000000E+00 0. -1.
         11    1    3    3    0    0 -0.74385046825E+01  0.21347723754E+01  0.24181053236E+01  0.81077640952E+01  0.51100000000E-03 0. -1.
        -11    1    3    3    0    0 -0.52611561558E+01 -0.41206443330E+01 -0.54342752029E+01  0.86134093747E+01  0.51100000000E-03 0.  1.
        -12    1    3    3    0    0 -0.30611772045E+02  0.36910358613E+00  0.52807384055E+01  0.31066107308E+02  0.00000000000E+00 0.  1.
</event>
<event>
 7    1  0.2599124E-010  0.4778729E+02  0.7816164E-02  0.1312668E+00
        -11   -1    0    0    0    0  0.00000000000E+00  0.00000000000E+00  0.45593999997E+02  0.45594000000E+02  0.51100000000E-03 0. -1.
         11   -1    0    0    0    0 -0.00000000000E+00 -0.00000000000E+00 -0.45593999997E+02  0.45594000000E+02  0.51100000000E-03 0.  1.
    9900012    2    1    2    0    0 -0.33114938991E+02 -0.24885972547E+02 -0.12950326859E+02  0.47787288258E+02  0.20000078483E+02 0.  0.
         12    1    1    2    0    0  0.33114938991E+02  0.24885972547E+02  0.12950326859E+02  0.43400711742E+02  0.00000000000E+00 0. -1.
         11    1    3    3    0    0  0.23255521279E+00  0.95822665101E+00  0.12945442636E+00  0.99450437472E+00  0.51100000000E-03 0. -1.
        -11    1    3    3    0    0 -0.16291416491E+02 -0.33441234837E+01 -0.60437652373E+01  0.17695211546E+02  0.51100000000E-03 0.  1.
        -12    1    3    3    0    0 -0.17056077713E+02 -0.22500075714E+02 -0.70360160478E+01  0.29097572337E+02  0.00000000000E+00 0.  1.
</event>
<event>
 7    1  0.2599124E-010  0.4778727E+02  0.7816164E-02  0.1312668E+00
        -11   -1    0    0    0    0  0.00000000000E+00  0.00000000000E+00  0.45593999997E+02  0.45594000000E+02  0.51100000000E-03 0. -1.
         11   -1    0    0    0    0 -0.00000000000E+00 -0.00000000000E+00 -0.45593999997E+02  0.45594000000E+02  0.51100000000E-03 0.  1.
    9900012    2    1    2    0    0  0.16967720755E+02 -0.21292660804E+02 -0.33798559631E+02  0.47787267461E+02  0.19999983663E+02 0.  0.
         12    1    1    2    0    0 -0.16967720755E+02  0.21292660804E+02  0.33798559631E+02  0.43400732539E+02  0.00000000000E+00 0. -1.
         11    1    3    3    0    0  0.89932801821E+01 -0.22239346188E+02 -0.22456901775E+02  0.32860006770E+02  0.51100000000E-03 0.  1.
        -11    1    3    3    0    0 -0.77908542055E+00 -0.24089958564E+00 -0.56181427978E+00  0.99027382524E+00  0.51100000000E-03 0. -1.
         12    1    3    3    0    0  0.87535259933E+01  0.11875849698E+01 -0.10779843576E+02  0.13936986866E+02  0.00000000000E+00 0. -1.
</event>
<event>
 7    1  0.2599124E-010  0.4778726E+02  0.7816164E-02  0.1312668E+00
        -11   -1    0    0    0    0  0.00000000000E+00  0.00000000000E+00  0.45593999997E+02  0.45594000000E+02  0.51100000000E-03 0.  1.
         11   -1    0    0    0    0 -0.00000000000E+00 -0.00000000000E+00 -0.45593999997E+02  0.45594000000E+02  0.51100000000E-03 0. -1.
    9900012    2    1    2    0    0  0.32020252858E+01  0.13612948379E+02  0.41085993019E+02  0.47787260929E+02  0.19999953881E+02 0.  0.
         12    1    1    2    0    0 -0.32020252858E+01 -0.13612948379E+02 -0.41085993019E+02  0.43400739071E+02  0.00000000000E+00 0. -1.
         11    1    3    3    0    0 -0.20215377077E+01  0.10695436061E+01  0.20356462046E+00  0.22960786234E+01  0.51100000000E-03 0. -1.
        -11    1    3    3    0    0 -0.70243758950E+00 -0.14244990117E+01 -0.28767133724E+00  0.16141161857E+01  0.51100000000E-03 0.  1.
        -12    1    3    3    0    0  0.59260005831E+01  0.13967903785E+02  0.41170099736E+02  0.43877066120E+02  0.00000000000E+00 0.  1.
</event>
<event>
 7    1  0.2599124E-010  0.4778727E+02  0.7816164E-02  0.1312668E+00
        -11   -1    0    0    0    0  0.00000000000E+00  0.00000000000E+00  0.45593999997E+02  0.45594000000E+02  0.51100000000E-03 0.  1.
         11   -1    0    0    0    0 -0.00000000000E+00 -0.00000000000E+00 -0.45593999997E+02  0.45594000000E+02  0.51100000000E-03 0. -1.
    9900012    2    1    2    0    0 -0.18653105681E+01 -0.40301045463E+02  0.15999052534E+02  0.47787270387E+02  0.19999997003E+02 0.  0.
         12    1    1    2    0    0  0.18653105681E+01  0.40301045463E+02 -0.15999052534E+02  0.43400729613E+02  0.00000000000E+00 0. -1.
         11    1    3    3    0    0 -0.72793901828E+01 -0.67986866486E+01  0.40725003516E+01  0.10760897776E+02  0.51100000000E-03 0. -1.
        -11    1    3    3    0    0  0.14871133075E+01 -0.11970643197E+02  0.87683382941E+01  0.14912798571E+02  0.51100000000E-03 0.  1.
        -12    1    3    3    0    0  0.39269663072E+01 -0.21531715618E+02  0.31582138878E+01  0.22113574039E+02  0.00000000000E+00 0.  1.
</event>
<event>
 7    1  0.2599124E-010  0.4778727E+02  0.7816164E-02  0.1312668E+00
        -11   -1    0    0    0    0  0.00000000000E+00  0.00000000000E+00  0.45593999997E+02  0.45594000000E+02  0.51100000000E-03 0.  1.
         11   -1    0    0    0    0 -0.00000000000E+00 -0.00000000000E+00 -0.45593999997E+02  0.45594000000E+02  0.51100000000E-03 0. -1.
    9900012    2    1    2    0    0 -0.15125400186E+02 -0.25139387508E+02  0.31982137241E+02  0.47787266854E+02  0.19999980896E+02 0.  0.
         12    1    1    2    0    0  0.15125400186E+02  0.25139387508E+02 -0.31982137241E+02  0.43400733146E+02  0.00000000000E+00 0. -1.
         11    1    3    3    0    0 -0.11943143646E+01 -0.55896238866E+01  0.95018272137E+00  0.57942324307E+01  0.51100000000E-03 0. -1.
        -11    1    3    3    0    0  0.29838686797E+01 -0.51663411866E+01  0.82460142426E+01  0.10177981367E+02  0.51100000000E-03 0.  1.
        -12    1    3    3    0    0 -0.16914954501E+02 -0.14383422435E+02  0.22785940277E+02  0.31815053057E+02  0.00000000000E+00 0.  1.
</event>
<event>
 7    1  0.2599124E-010  0.4778727E+02  0.7816164E-02  0.1312668E+00
        -11   -1    0    0    0    0  0.00000000000E+00  0.00000000000E+00  0.45593999997E+02  0.45594000000E+02  0.51100000000E-03 0. -1.
         11   -1    0    0    0    0 -0.00000000000E+00 -0.00000000000E+00 -0.45593999997E+02  0.45594000000E+02  0.51100000000E-03 0.  1.
    9900012    2    1    2    0    0 -0.35426601893E+02  0.96206372672E+01  0.23152164566E+02  0.47787268356E+02  0.19999987744E+02 0.  0.
         12    1    1    2    0    0  0.35426601893E+02 -0.96206372672E+01 -0.23152164566E+02  0.43400731644E+02  0.00000000000E+00 0. -1.
         11    1    3    3    0    0 -0.14413803598E+02 -0.66027188148E+00  0.68626497484E+01  0.15977786297E+02  0.51100000000E-03 0.  1.
        -11    1    3    3    0    0 -0.82689780357E+01 -0.28073198761E+01  0.30546605754E+01  0.92513779586E+01  0.51100000000E-03 0. -1.
        -12    1    3    3    0    0 -0.12743820259E+02  0.13088229025E+02  0.13234854243E+02  0.22558104101E+02  0.00000000000E+00 0.  1.
</event>
<event>
 7    1  0.2599124E-010  0.4778727E+02  0.7816164E-02  0.1312668E+00
        -11   -1    0    0    0    0  0.00000000000E+00  0.00000000000E+00  0.45593999997E+02  0.45594000000E+02  0.51100000000E-03 0.  1.
         11   -1    0    0    0    0 -0.00000000000E+00 -0.00000000000E+00 -0.45593999997E+02  0.45594000000E+02  0.51100000000E-03 0. -1.
    9900012    2    1    2    0    0 -0.28082938515E+02 -0.27011492770E+02  0.19114151020E+02  0.47787274816E+02  0.20000017197E+02 0.  0.
         12    1    1    2    0    0  0.28082938515E+02  0.27011492770E+02 -0.19114151020E+02  0.43400725184E+02  0.00000000000E+00 0. -1.
         11    1    3    3    0    0 -0.10360294344E+02  0.29815307477E+00  0.13565732047E+01  0.10452984515E+02  0.51100000000E-03 0. -1.
        -11    1    3    3    0    0 -0.84381307849E+01 -0.93890737309E+01  0.60078676199E+01  0.13980387343E+02  0.51100000000E-03 0.  1.
         12    1    3    3    0    0 -0.92845133854E+01 -0.17920572113E+02  0.11749710196E+02  0.23353902958E+02  0.00000000000E+00 0. -1.
</event>
<event>
 7    1  0.2599124E-010  0.4778727E+02  0.7816164E-02  0.1312668E+00
        -11   -1    0    0    0    0  0.00000000000E+00  0.00000000000E+00  0.45593999997E+02  0.45594000000E+02  0.51100000000E-03 0.  1.
         11   -1    0    0    0    0 -0.00000000000E+00 -0.00000000000E+00 -0.45593999997E+02  0.45594000000E+02  0.51100000000E-03 0. -1.
    9900012    2    1    2    0    0  0.48915198628E+01 -0.21891199889E+02  0.37154698219E+02  0.47787271909E+02  0.20000003940E+02 0.  0.
         12    1    1    2    0    0 -0.48915198628E+01  0.21891199889E+02 -0.37154698219E+02  0.43400728091E+02  0.00000000000E+00 0. -1.
         11    1    3    3    0    0  0.85112422878E+00  0.34444299749E+00  0.46402487698E-02  0.91819127874E+00  0.51100000000E-03 0. -1.
        -11    1    3    3    0    0  0.65892826152E+01 -0.19046510359E+02  0.37700612081E+02  0.42749553843E+02  0.51100000000E-03 0.  1.
        -12    1    3    3    0    0 -0.25488869812E+01 -0.31891325267E+01 -0.55055411117E+00  0.41195267865E+01  0.00000000000E+00 0.  1.
</event>
<event>
 7    1  0.2599124E-010  0.4778727E+02  0.7816164E-02  0.1312668E+00
        -11   -1    0    0    0    0  0.00000000000E+00  0.00000000000E+00  0.45593999997E+02  0.45594000000E+02  0.51100000000E-03 0.  1.
         11   -1    0    0    0    0 -0.00000000000E+00 -0.00000000000E+00 -0.45593999997E+02  0.45594000000E+02  0.51100000000E-03 0. -1.
    9900012    2    1    2    0    0 -0.32133444859E+02 -0.16684062578E+02  0.23931302034E+02  0.47787269135E+02  0.19999991294E+02 0.  0.
         12    1    1    2    0    0  0.32133444859E+02  0.16684062578E+02 -0.23931302034E+02  0.43400730865E+02  0.00000000000E+00 0. -1.
         11    1    3    3    0    0 -0.25673892775E+02 -0.10988284696E+02  0.16100760614E+02  0.32235472129E+02  0.51100000000E-03 0. -1.
        -11    1    3    3    0    0 -0.70275280461E+01 -0.77146987537E+01  0.39832908935E+01  0.11170019423E+02  0.51100000000E-03 0.  1.
        -12    1    3    3    0    0  0.56797596189E+00  0.20189208720E+01  0.38472505261E+01  0.43817775836E+01  0.00000000000E+00 0.  1.
</event>
<event>
 7    1  0.2599124E-010  0.4778727E+02  0.7816164E-02  0.1312668E+00
        -11   -1    0    0    0    0  0.00000000000E+00  0.00000000000E+00  0.45593999997E+02  0.45594000000E+02  0.51100000000E-03 0.  1.
         11   -1    0    0    0    0 -0.00000000000E+00 -0.00000000000E+00 -0.45593999997E+02  0.45594000000E+02  0.51100000000E-03 0. -1.
    9900012    2    1    2    0    0  0.31137142978E+02 -0.21762588943E+02  0.20987883898E+02  0.47787271655E+02  0.20000002785E+02 0.  0.
         12    1    1    2    0    0 -0.31137142978E+02  0.21762588943E+02 -0.20987883898E+02  0.43400728345E+02  0.00000000000E+00 0. -1.
         11    1    3    3    0    0  0.16628988531E+02 -0.32840623832E+01  0.90160797232E+01  0.19198906717E+02  0.51100000000E-03 0. -1.
        -11    1    3    3    0    0  0.93100721262E+01 -0.91640496290E+01  0.12263135849E+02  0.17917637950E+02  0.51100000000E-03 0.  1.
         12    1    3    3    0    0  0.51980823214E+01 -0.93144769304E+01 -0.29133167476E+00  0.10670726988E+02  0.00000000000E+00 0. -1.
</event>
<event>
 7    1  0.2599124E-010  0.4778727E+02  0.7816164E-02  0.1312668E+00
        -11   -1    0    0    0    0  0.00000000000E+00  0.00000000000E+00  0.45593999997E+02  0.45594000000E+02  0.51100000000E-03 0. -1.
         11   -1    0    0    0    0 -0.00000000000E+00 -0.00000000000E+00 -0.45593999997E+02  0.45594000000E+02  0.51100000000E-03 0.  1.
    9900012    2    1    2    0    0 -0.10312808264E+02  0.15056799266E+02 -0.39377178747E+02  0.47787269309E+02  0.19999992089E+02 0.  0.
         12    1    1    2    0    0  0.10312808264E+02 -0.15056799266E+02  0.39377178747E+02  0.43400730691E+02  0.00000000000E+00 0. -1.
         11    1    3    3    0    0 -0.11745546279E+01 -0.42061978797E+00 -0.15454041294E-01  0.12476933391E+01  0.51100000000E-03 0. -1.
        -11    1    3    3    0    0 -0.12577899847E+01  0.16735731128E+02 -0.25030121394E+02  0.30135920581E+02  0.51100000000E-03 0.  1.
         12    1    3    3    0    0 -0.78804636515E+01 -0.12583120738E+01 -0.14331603312E+02  0.16403655389E+02  0.00000000000E+00 0. -1.
</event>
<event>
 7    1  0.2599124E-010  0.4778727E+02  0.7816164E-02  0.1312668E+00
        -11   -1    0    0    0    0  0.00000000000E+00  0.00000000000E+00  0.45593999997E+02  0.45594000000E+02  0.51100000000E-03 0.  1.
         11   -1    0    0    0    0 -0.00000000000E+00 -0.00000000000E+00 -0.45593999997E+02  0.45594000000E+02  0.51100000000E-03 0. -1.
    9900012    2    1    2    0    0 -0.18877575335E+02 -0.20611546377E+02  0.33202780081E+02  0.47787270747E+02  0.19999998645E+02 0.  0.
         12    1    1    2    0    0  0.18877575335E+02  0.20611546377E+02 -0.33202780081E+02  0.43400729253E+02  0.00000000000E+00 0. -1.
         11    1    3    3    0    0  0.14122806615E+01 -0.53248791365E+01  0.12099280869E+02  0.13294415079E+02  0.51100000000E-03 0. -1.
        -11    1    3    3    0    0 -0.74308664923E+01 -0.65562417518E+01  0.14597677765E+02  0.17643533635E+02  0.51100000000E-03 0.  1.
        -12    1    3    3    0    0 -0.12858989504E+02 -0.87304254887E+01  0.65058214465E+01  0.16849322033E+02  0.00000000000E+00 0.  1.
</event>
<event>
 7    1  0.2599124E-010  0.4778727E+02  0.7816164E-02  0.1312668E+00
        -11   -1    0    0    0    0  0.00000000000E+00  0.00000000000E+00  0.45593999997E+02  0.45594000000E+02  0.51100000000E-03 0. -1.
         11   -1    0    0    0    0 -0.00000000000E+00 -0.00000000000E+00 -0.45593999997E+02  0.45594000000E+02  0.51100000000E-03 0.  1.
    9900012    2    1    2    0    0 -0.33259159937E+02 -0.26589385443E+02 -0.83938392710E+01  0.47787266416E+02  0.19999978896E+02 0.  0.
         12    1    1    2    0    0  0.33259159937E+02  0.26589385443E+02  0.83938392710E+01  0.43400733584E+02  0.00000000000E+00 0. -1.
         11    1    3    3    0    0 -0.99488824509E-01  0.32608258493E-01 -0.29170753199E+01  0.29189535810E+01  0.51100000000E-03 0. -1.
        -11    1    3    3    0    0 -0.36420118435E-01  0.11711293433E+01 -0.70354436287E+00  0.13666913680E+01  0.51100000000E-03 0.  1.
        -12    1    3    3    0    0 -0.33123250994E+02 -0.27793123044E+02 -0.47732195882E+01  0.43501621467E+02  0.00000000000E+00 0.  1.
</event>
<event>
 7    1  0.2599124E-010  0.4778728E+02  0.7816164E-02  0.1312668E+00
        -11   -1    0    0    0    0  0.00000000000E+00  0.00000000000E+00  0.45593999997E+02  0.45594000000E+02  0.51100000000E-03 0. -1.
         11   -1    0    0    0    0 -0.00000000000E+00 -0.00000000000E+00 -0.45593999997E+02  0.45594000000E+02  0.51100000000E-03 0.  1.
    9900012    2    1    2    0    0  0.40525915077E+02 -0.14495914301E+02 -0.55803931740E+01  0.47787284427E+02  0.20000061018E+02 0.  0.
         12    1    1    2    0    0 -0.40525915077E+02  0.14495914301E+02  0.55803931740E+01  0.43400715573E+02  0.00000000000E+00 0. -1.
         11    1    3    3    0    0  0.21189455199E+02 -0.56697324038E+01  0.16982210819E+01  0.22000518909E+02  0.51100000000E-03 0.  1.
        -11    1    3    3    0    0  0.22312077523E+00  0.22574034118E+01  0.57129160784E+00  0.23392365007E+01  0.51100000000E-03 0. -1.
         12    1    3    3    0    0  0.19113339103E+02 -0.11083585309E+02 -0.78499058638E+01  0.23447529017E+02  0.00000000000E+00 0. -1.
</event>
<event>
 7    1  0.2599124E-010  0.4778727E+02  0.7816164E-02  0.1312668E+00
        -11   -1    0    0    0    0  0.00000000000E+00  0.00000000000E+00  0.45593999997E+02  0.45594000000E+02  0.51100000000E-03 0.  1.
         11   -1    0    0    0    0 -0.00000000000E+00 -0.00000000000E+00 -0.45593999997E+02  0.45594000000E+02  0.51100000000E-03 0. -1.
    9900012    2    1    2    0    0 -0.77084243230E+01 -0.41662976925E+02  0.94021218727E+01  0.47787270196E+02  0.19999996132E+02 0.  0.
         12    1    1    2    0    0  0.77084243230E+01  0.41662976925E+02 -0.94021218727E+01  0.43400729804E+02  0.00000000000E+00 0. -1.
         11    1    3    3    0    0 -0.48598035709E+01 -0.31690154464E+02  0.64537563397E+01  0.32703739111E+02  0.51100000000E-03 0. -1.
        -11    1    3    3    0    0 -0.41881852680E+01 -0.99677511865E+01  0.55530541547E+01  0.12154561706E+02  0.51100000000E-03 0.  1.
         12    1    3    3    0    0  0.13395645159E+01 -0.50712751692E-02 -0.26046886217E+01  0.29289693795E+01  0.00000000000E+00 0. -1.
</event>
<event>
 7    1  0.2599124E-010  0.4778727E+02  0.7816164E-02  0.1312668E+00
        -11   -1    0    0    0    0  0.00000000000E+00  0.00000000000E+00  0.45593999997E+02  0.45594000000E+02  0.51100000000E-03 0.  1.
         11   -1    0    0    0    0 -0.00000000000E+00 -0.00000000000E+00 -0.45593999997E+02  0.45594000000E+02  0.51100000000E-03 0. -1.
    9900012    2    1    2    0    0 -0.90728628375E+01 -0.29894204560E+02  0.30127114916E+02  0.47787270058E+02  0.19999995503E+02 0.  0.
         12    1    1    2    0    0  0.90728628375E+01  0.29894204560E+02 -0.30127114916E+02  0.43400729942E+02  0.00000000000E+00 0. -1.
         11    1    3    3    0    0 -0.25587972452E-01  0.18061707373E+01  0.18515937720E+01  0.25867561219E+01  0.51100000000E-03 0. -1.
        -11    1    3    3    0    0 -0.77035516161E+01 -0.67792487954E+01  0.72116167802E+01  0.12542341830E+02  0.51100000000E-03 0.  1.
         12    1    3    3    0    0 -0.13437232490E+01 -0.24921126502E+02  0.21063904364E+02  0.32658172106E+02  0.00000000000E+00 0. -1.
</event>
<event>
 7    1  0.2599124E-010  0.4778727E+02  0.7816164E-02  0.1312668E+00
        -11   -1    0    0    0    0  0.00000000000E+00  0.00000000000E+00  0.45593999997E+02  0.45594000000E+02  0.51100000000E-03 0. -1.
         11   -1    0    0    0    0 -0.00000000000E+00 -0.00000000000E+00 -0.45593999997E+02  0.45594000000E+02  0.51100000000E-03 0.  1.
    9900012    2    1    2    0    0 -0.39556030643E+02 -0.17426062004E+02  0.39084229672E+01  0.47787274576E+02  0.20000016102E+02 0.  0.
         12    1    1    2    0    0  0.39556030643E+02  0.17426062004E+02 -0.39084229672E+01  0.43400725424E+02  0.00000000000E+00 0. -1.
         11    1    3    3    0    0 -0.11090011135E+02 -0.86658696189E+00  0.14685537674E+01  0.11220337355E+02  0.51100000000E-03 0. -1.
        -11    1    3    3    0    0  0.17608499237E+01 -0.26131379292E+00 -0.10209816425E+01  0.20521406208E+01  0.51100000000E-03 0.  1.
        -12    1    3    3    0    0 -0.30226869432E+02 -0.16298161250E+02  0.34608508423E+01  0.34514796600E+02  0.00000000000E+00 0.  1.
</event>
<event>
 7    1  0.2599124E-010  0.4778727E+02  0.7816164E-02  0.1312668E+00
        -11   -1    0    0    0    0  0.00000000000E+00  0.00000000000E+00  0.45593999997E+02  0.45594000000E+02  0.51100000000E-03 0. -1.
         11   -1    0    0    0    0 -0.00000000000E+00 -0.00000000000E+00 -0.45593999997E+02  0.45594000000E+02  0.51100000000E-03 0.  1.
    9900012    2    1    2    0    0  0.92964819420E+01  0.42385771404E+02  0.80327984577E+00  0.47787268986E+02  0.19999990617E+02 0.  0.
         12    1    1    2    0    0 -0.92964819420E+01 -0.42385771404E+02 -0.80327984577E+00  0.43400731014E+02  0.00000000000E+00 0. -1.
         11    1    3    3    0    0  0.77887143881E+01  0.26588197863E+02  0.76415343040E+01  0.28740031041E+02  0.51100000000E-03 0. -1.
        -11    1    3    3    0    0  0.12672648782E+01  0.65046667754E+01  0.12276654386E+01  0.67397190461E+01  0.51100000000E-03 0.  1.
        -12    1    3    3    0    0  0.24050267574E+00  0.92929067650E+01 -0.80659198968E+01  0.12307518900E+02  0.00000000000E+00 0.  1.
</event>
<event>
 7    1  0.2599124E-010  0.4778726E+02  0.7816164E-02  0.1312668E+00
        -11   -1    0    0    0    0  0.00000000000E+00  0.00000000000E+00  0.45593999997E+02  0.45594000000E+02  0.51100000000E-03 0.  1.
         11   -1    0    0    0    0 -0.00000000000E+00 -0.00000000000E+00 -0.45593999997E+02  0.45594000000E+02  0.51100000000E-03 0. -1.
    9900012    2    1    2    0    0  0.30847434269E+02 -0.11413378508E+02  0.28315975547E+02  0.47787264049E+02  0.19999968104E+02 0.  0.
         12    1    1    2    0    0 -0.30847434269E+02  0.11413378508E+02 -0.28315975547E+02  0.43400735951E+02  0.00000000000E+00 0. -1.
         11    1    3    3    0    0  0.20675823961E+02 -0.37991340504E+01  0.18790759013E+02  0.28196023488E+02  0.51100000000E-03 0. -1.
        -11    1    3    3    0    0  0.10024079932E+02 -0.21500672970E+01  0.97119820149E+01  0.14121882409E+02  0.51100000000E-03 0.  1.
         12    1    3    3    0    0  0.14753037628E+00 -0.54641771602E+01 -0.18676548056E+00  0.54693581520E+01  0.00000000000E+00 0. -1.
</event>
<event>
 7    1  0.2599124E-010  0.4778727E+02  0.7816164E-02  0.1312668E+00
        -11   -1    0    0    0    0  0.00000000000E+00  0.00000000000E+00  0.45593999997E+02  0.45594000000E+02  0.51100000000E-03 0.  1.
         11   -1    0    0    0    0 -0.00000000000E+00 -0.00000000000E+00 -0.45593999997E+02  0.45594000000E+02  0.51100000000E-03 0. -1.
    9900012    2    1    2    0    0  0.91498300247E+00  0.39503938674E+02  0.17950625810E+02  0.47787270379E+02  0.19999996967E+02 0.  0.
         12    1    1    2    0    0 -0.91498300247E+00 -0.39503938674E+02 -0.17950625810E+02  0.43400729621E+02  0.00000000000E+00 0. -1.
         11    1    3    3    0    0 -0.46381471158E+01  0.13043394990E+02  0.85530176969E+01  0.16272574275E+02  0.51100000000E-03 0. -1.
        -11    1    3    3    0    0  0.55874299905E+01  0.13744026750E+02  0.11309305798E+02  0.18655241705E+02  0.51100000000E-03 0.  1.
         12    1    3    3    0    0 -0.34299872246E-01  0.12716516934E+02 -0.19116976844E+01  0.12859454399E+02  0.00000000000E+00 0. -1.
</event>
<event>
 7    1  0.2599124E-010  0.4778727E+02  0.7816164E-02  0.1312668E+00
        -11   -1    0    0    0    0  0.00000000000E+00  0.00000000000E+00  0.45593999997E+02  0.45594000000E+02  0.51100000000E-03 0. -1.
         11   -1    0    0    0    0 -0.00000000000E+00 -0.00000000000E+00 -0.45593999997E+02  0.45594000000E+02  0.51100000000E-03 0.  1.
    9900012    2    1    2    0    0  0.19466963744E+02 -0.18728216534E+02 -0.33969315545E+02  0.47787272235E+02  0.20000005427E+02 0.  0.
         12    1    1    2    0    0 -0.19466963744E+02  0.18728216534E+02  0.33969315545E+02  0.43400727765E+02  0.00000000000E+00 0. -1.
         11    1    3    3    0    0  0.12940302780E+02 -0.76861406844E+01 -0.14201237663E+02  0.20693074834E+02  0.51100000000E-03 0. -1.
        -11    1    3    3    0    0  0.91528203659E+01 -0.10158280272E+02 -0.20093149106E+02  0.24304308671E+02  0.51100000000E-03 0.  1.
         12    1    3    3    0    0 -0.26261594018E+01 -0.88379557673E+00  0.32507122316E+00  0.27898887299E+01  0.00000000000E+00 0. -1.
</event>
<event>
 7    1  0.2599124E-010  0.4778727E+02  0.7816164E-02  0.1312668E+00
        -11   -1    0    0    0    0  0.00000000000E+00  0.00000000000E+00  0.45593999997E+02  0.45594000000E+02  0.51100000000E-03 0. -1.
         11   -1    0    0    0    0 -0.00000000000E+00 -0.00000000000E+00 -0.45593999997E+02  0.45594000000E+02  0.51100000000E-03 0.  1.
    9900012    2    1    2    0    0  0.21955776988E+02 -0.61965564211E+01 -0.36921125386E+02  0.47787274725E+02  0.20000016783E+02 0.  0.
         12    1    1    2    0    0 -0.21955776988E+02  0.61965564211E+01  0.36921125386E+02  0.43400725275E+02  0.00000000000E+00 0. -1.
         11    1    3    3    0    0  0.13755681932E+01 -0.13670313514E+01 -0.18827210768E+00  0.19484376351E+01  0.51100000000E-03 0. -1.
        -11    1    3    3    0    0  0.78567241110E+01 -0.67888664628E+00 -0.29682005989E+02  0.30711731970E+02  0.51100000000E-03 0.  1.
        -12    1    3    3    0    0  0.12723484683E+02 -0.41506384234E+01 -0.70508472891E+01  0.15127105120E+02  0.00000000000E+00 0.  1.
</event>
<event>
 7    1  0.2599124E-010  0.4778728E+02  0.7816164E-02  0.1312668E+00
        -11   -1    0    0    0    0  0.00000000000E+00  0.00000000000E+00  0.45593999997E+02  0.45594000000E+02  0.51100000000E-03 0. -1.
         11   -1    0    0    0    0 -0.00000000000E+00 -0.00000000000E+00 -0.45593999997E+02  0.45594000000E+02  0.51100000000E-03 0.  1.
    9900012    2    1    2    0    0  0.37101430438E+01 -0.35249340840E+02 -0.25046787406E+02  0.47787277075E+02  0.20000027498E+02 0.  0.
         12    1    1    2    0    0 -0.37101430438E+01  0.35249340840E+02  0.25046787406E+02  0.43400722925E+02  0.00000000000E+00 0. -1.
         11    1    3    3    0    0  0.22562503725E+01 -0.30260759354E+01  0.52664214189E+00  0.38111879404E+01  0.51100000000E-03 0. -1.
        -11    1    3    3    0    0  0.60671852003E+00 -0.65530181721E+01 -0.14660028953E+02  0.16069430720E+02  0.51100000000E-03 0.  1.
        -12    1    3    3    0    0  0.84717415127E+00 -0.25670246732E+02 -0.10913400595E+02  0.27906658415E+02  0.00000000000E+00 0.  1.
</event>
<event>
 7    1  0.2599124E-010  0.4778727E+02  0.7816164E-02  0.1312668E+00
        -11   -1    0    0    0    0  0.00000000000E+00  0.00000000000E+00  0.45593999997E+02  0.45594000000E+02  0.51100000000E-03 0.  1.
         11   -1    0    0    0    0 -0.00000000000E+00 -0.00000000000E+00 -0.45593999997E+02  0.45594000000E+02  0.51100000000E-03 0. -1.
    9900012    2    1    2    0    0 -0.14949444235E+02 -0.65023052043E+01  0.40222599087E+02  0.47787270361E+02  0.19999996883E+02 0.  0.
         12    1    1    2    0    0  0.14949444235E+02  0.65023052043E+01 -0.40222599087E+02  0.43400729639E+02  0.00000000000E+00 0. -1.
         11    1    3    3    0    0 -0.77309316110E+01 -0.34114975393E+01  0.96606037525E+01  0.12834830897E+02  0.51100000000E-03 0. -1.
        -11    1    3    3    0    0 -0.59021893395E+01 -0.86820108563E+01  0.24211342867E+02  0.26389434916E+02  0.51100000000E-03 0.  1.
         12    1    3    3    0    0 -0.13163232840E+01  0.55912031913E+01  0.63506524677E+01  0.85630045475E+01  0.00000000000E+00 0. -1.
</event>
<event>
 7    1  0.2599124E-010  0.4778729E+02  0.7816164E-02  0.1312668E+00
        -11   -1    0    0    0    0  0.00000000000E+00  0.00000000000E+00  0.45593999997E+02  0.45594000000E+02  0.51100000000E-03 0. -1.
         11   -1    0    0    0    0 -0.00000000000E+00 -0.00000000000E+00 -0.45593999997E+02  0.45594000000E+02  0.51100000000E-03 0.  1.
    9900012    2    1    2    0    0 -0.25459292569E+02 -0.33203470677E+02 -0.11531492451E+02  0.47787293079E+02  0.20000100463E+02 0.  0.
         12    1    1    2    0    0  0.25459292569E+02  0.33203470677E+02  0.11531492451E+02  0.43400706921E+02  0.00000000000E+00 0. -1.
         11    1    3    3    0    0 -0.19306270357E+01 -0.27905192858E+01  0.25543927073E+01  0.42472627656E+01  0.51100000000E-03 0. -1.
        -11    1    3    3    0    0 -0.18827313898E+02 -0.18748625477E+02 -0.29343138331E+01  0.26731795746E+02  0.51100000000E-03 0.  1.
        -12    1    3    3    0    0 -0.47013516356E+01 -0.11664325914E+02 -0.11151571326E+02  0.16808234567E+02  0.00000000000E+00 0.  1.
</event>
<event>
 7    1  0.2599124E-010  0.4778727E+02  0.7816164E-02  0.1312668E+00
        -11   -1    0    0    0    0  0.00000000000E+00  0.00000000000E+00  0.45593999997E+02  0.45594000000E+02  0.51100000000E-03 0.  1.
         11   -1    0    0    0    0 -0.00000000000E+00 -0.00000000000E+00 -0.45593999997E+02  0.45594000000E+02  0.51100000000E-03 0. -1.
    9900012    2    1    2    0    0 -0.39339988768E+02  0.27334893114E+00 -0.18327955520E+02  0.47787269713E+02  0.19999993930E+02 0.  0.
         12    1    1    2    0    0  0.39339988768E+02 -0.27334893114E+00  0.18327955520E+02  0.43400730287E+02  0.00000000000E+00 0. -1.
         11    1    3    3    0    0 -0.13424079240E+02 -0.20761610182E+01 -0.49110609347E+01  0.14444198413E+02  0.51100000000E-03 0. -1.
        -11    1    3    3    0    0 -0.14886424524E+02  0.39513395480E+01  0.62637167604E+00  0.15414637883E+02  0.51100000000E-03 0.  1.
         12    1    3    3    0    0 -0.11029485004E+02 -0.16018295987E+01 -0.14043266261E+02  0.17928433417E+02  0.00000000000E+00 0. -1.
</event>
<event>
 7    1  0.2599124E-010  0.4778728E+02  0.7816164E-02  0.1312668E+00
        -11   -1    0    0    0    0  0.00000000000E+00  0.00000000000E+00  0.45593999997E+02  0.45594000000E+02  0.51100000000E-03 0.  1.
         11   -1    0    0    0    0 -0.00000000000E+00 -0.00000000000E+00 -0.45593999997E+02  0.45594000000E+02  0.51100000000E-03 0. -1.
    9900012    2    1    2    0    0 -0.33246647419E+02 -0.27782455256E+02  0.25334373750E+01  0.47787277776E+02  0.20000030691E+02 0.  0.
         12    1    1    2    0    0  0.33246647419E+02  0.27782455256E+02 -0.25334373750E+01  0.43400722224E+02  0.00000000000E+00 0. -1.
         11    1    3    3    0    0 -0.36312875448E+01 -0.51408667469E+01 -0.47598458612E+01  0.78911908496E+01  0.51100000000E-03 0. -1.
        -11    1    3    3    0    0 -0.88935462648E+00 -0.48399557533E+01 -0.11691585356E+01  0.50579694827E+01  0.51100000000E-03 0.  1.
        -12    1    3    3    0    0 -0.28726005248E+02 -0.17801632756E+02  0.84624417718E+01  0.34838117443E+02  0.00000000000E+00 0.  1.
</event>
<event>
 7    1  0.2599124E-010  0.4778727E+02  0.7816164E-02  0.1312668E+00
        -11   -1    0    0    0    0  0.00000000000E+00  0.00000000000E+00  0.45593999997E+02  0.45594000000E+02  0.51100000000E-03 0.  1.
         11   -1    0    0    0    0 -0.00000000000E+00 -0.00000000000E+00 -0.45593999997E+02  0.45594000000E+02  0.51100000000E-03 0. -1.
    9900012    2    1    2    0    0  0.21487486450E+02  0.37673381426E+02  0.16210716182E+01  0.47787267112E+02  0.19999982069E+02 0.  0.
         12    1    1    2    0    0 -0.21487486450E+02 -0.37673381426E+02 -0.16210716182E+01  0.43400732888E+02  0.00000000000E+00 0. -1.
         11    1    3    3    0    0  0.61007598518E+01  0.22003947762E+02 -0.13121761488E+01  0.22871702918E+02  0.51100000000E-03 0. -1.
        -11    1    3    3    0    0 -0.11365811910E+01  0.38260339217E+01 -0.12049986919E+01  0.41692174904E+01  0.51100000000E-03 0.  1.
        -12    1    3    3    0    0  0.16523307789E+02  0.11843399743E+02  0.41382464589E+01  0.20746346703E+02  0.00000000000E+00 0.  1.
</event>
<event>
 7    1  0.2599124E-010  0.4778728E+02  0.7816164E-02  0.1312668E+00
        -11   -1    0    0    0    0  0.00000000000E+00  0.00000000000E+00  0.45593999997E+02  0.45594000000E+02  0.51100000000E-03 0.  1.
         11   -1    0    0    0    0 -0.00000000000E+00 -0.00000000000E+00 -0.45593999997E+02  0.45594000000E+02  0.51100000000E-03 0. -1.
    9900012    2    1    2    0    0  0.10940505677E+02 -0.17724459137E+02  0.38075865674E+02  0.47787278082E+02  0.20000032086E+02 0.  0.
         12    1    1    2    0    0 -0.10940505677E+02  0.17724459137E+02 -0.38075865674E+02  0.43400721918E+02  0.00000000000E+00 0. -1.
         11    1    3    3    0    0 -0.16359480695E+01  0.56660428586E+00  0.21206243942E+01  0.27375928451E+01  0.51100000000E-03 0. -1.
        -11    1    3    3    0    0 -0.70082513637E+00 -0.86395743431E+01  0.21484958038E+02  0.23167581291E+02  0.51100000000E-03 0.  1.
         12    1    3    3    0    0  0.13277278883E+02 -0.96514890801E+01  0.14470283242E+02  0.21882103946E+02  0.00000000000E+00 0. -1.
</event>
<event>
 7    1  0.2599124E-010  0.4778725E+02  0.7816164E-02  0.1312668E+00
        -11   -1    0    0    0    0  0.00000000000E+00  0.00000000000E+00  0.45593999997E+02  0.45594000000E+02  0.51100000000E-03 0.  1.
         11   -1    0    0    0    0 -0.00000000000E+00 -0.00000000000E+00 -0.45593999997E+02  0.45594000000E+02  0.51100000000E-03 0. -1.
    9900012    2    1    2    0    0  0.29363148592E+02  0.25335595073E+02  0.19481733442E+02  0.47787253338E+02  0.19999919267E+02 0.  0.
         12    1    1    2    0    0 -0.29363148592E+02 -0.25335595073E+02 -0.19481733442E+02  0.43400746662E+02  0.00000000000E+00 0. -1.
         11    1    3    3    0    0  0.10527443019E+02  0.82948846347E+01  0.12919621059E+02  0.18615820589E+02  0.51100000000E-03 0.  1.
        -11    1    3    3    0    0  0.17839200134E+01 -0.19256768667E+01 -0.57449869509E+00  0.26871269082E+01  0.51100000000E-03 0. -1.
         12    1    3    3    0    0  0.17051785559E+02  0.18966387305E+02  0.71366110780E+01  0.26484305841E+02  0.00000000000E+00 0. -1.
</event>
<event>
 7    1  0.2599124E-010  0.4778727E+02  0.7816164E-02  0.1312668E+00
        -11   -1    0    0    0    0  0.00000000000E+00  0.00000000000E+00  0.45593999997E+02  0.45594000000E+02  0.51100000000E-03 0.  1.
         11   -1    0    0    0    0 -0.00000000000E+00 -0.00000000000E+00 -0.45593999997E+02  0.45594000000E+02  0.51100000000E-03 0. -1.
    9900012    2    1    2    0    0 -0.40780748962E+02 -0.12818781389E+02  0.74988502576E+01  0.47787269622E+02  0.19999993512E+02 0.  0.
         12    1    1    2    0    0  0.40780748962E+02  0.12818781389E+02 -0.74988502576E+01  0.43400730378E+02  0.00000000000E+00 0. -1.
         11    1    3    3    0    0 -0.21969497063E+02 -0.84939755183E+01  0.57503990536E+01  0.24246103003E+02  0.51100000000E-03 0. -1.
        -11    1    3    3    0    0 -0.18200304133E+02 -0.71586820417E+01  0.38853030211E+01  0.19939743703E+02  0.51100000000E-03 0.  1.
         12    1    3    3    0    0 -0.61094776589E+00  0.28338761713E+01 -0.21368518170E+01  0.36014229153E+01  0.00000000000E+00 0. -1.
</event>
<event>
 7    1  0.2599124E-010  0.4778726E+02  0.7816164E-02  0.1312668E+00
        -11   -1    0    0    0    0  0.00000000000E+00  0.00000000000E+00  0.45593999997E+02  0.45594000000E+02  0.51100000000E-03 0.  1.
         11   -1    0    0    0    0 -0.00000000000E+00 -0.00000000000E+00 -0.45593999997E+02  0.45594000000E+02  0.51100000000E-03 0. -1.
    9900012    2    1    2    0    0 -0.26183832298E+02  0.93817751410E+01  0.33316862350E+02  0.47787261580E+02  0.19999956847E+02 0.  0.
         12    1    1    2    0    0  0.26183832298E+02 -0.93817751410E+01 -0.33316862350E+02  0.43400738420E+02  0.00000000000E+00 0. -1.
         11    1    3    3    0    0 -0.23103091782E+01  0.45523700587E+01  0.82649146569E+01  0.97144436895E+01  0.51100000000E-03 0. -1.
        -11    1    3    3    0    0  0.15382734349E+01  0.22744614351E+01  0.45831550139E+01  0.53427305867E+01  0.51100000000E-03 0.  1.
        -12    1    3    3    0    0 -0.25411796554E+02  0.25549436473E+01  0.20468792679E+02  0.32730087303E+02  0.00000000000E+00 0.  1.
</event>
<event>
 7    1  0.2599124E-010  0.4778727E+02  0.7816164E-02  0.1312668E+00
        -11   -1    0    0    0    0  0.00000000000E+00  0.00000000000E+00  0.45593999997E+02  0.45594000000E+02  0.51100000000E-03 0.  1.
         11   -1    0    0    0    0 -0.00000000000E+00 -0.00000000000E+00 -0.45593999997E+02  0.45594000000E+02  0.51100000000E-03 0. -1.
    9900012    2    1    2    0    0  0.24296751666E+02 -0.29789145177E+02  0.20146913725E+02  0.47787269078E+02  0.19999991036E+02 0.  0.
         12    1    1    2    0    0 -0.24296751666E+02  0.29789145177E+02 -0.20146913725E+02  0.43400730922E+02  0.00000000000E+00 0. -1.
         11    1    3    3    0    0  0.78055951685E+01 -0.66105091062E+01 -0.78757609767E+00  0.10258967928E+02  0.51100000000E-03 0. -1.
        -11    1    3    3    0    0  0.25036214018E+01 -0.53987452648E+01 -0.98090556454E+00  0.60313138325E+01  0.51100000000E-03 0.  1.
        -12    1    3    3    0    0  0.13987535096E+02 -0.17779890806E+02  0.21915395388E+02  0.31496987318E+02  0.00000000000E+00 0.  1.
</event>
<event>
 7    1  0.2599124E-010  0.4778727E+02  0.7816164E-02  0.1312668E+00
        -11   -1    0    0    0    0  0.00000000000E+00  0.00000000000E+00  0.45593999997E+02  0.45594000000E+02  0.51100000000E-03 0. -1.
         11   -1    0    0    0    0 -0.00000000000E+00 -0.00000000000E+00 -0.45593999997E+02  0.45594000000E+02  0.51100000000E-03 0.  1.
    9900012    2    1    2    0    0  0.58042447028E+01 -0.43004575443E+02 -0.73505698553E+00  0.47787273343E+02  0.20000010480E+02 0.  0.
         12    1    1    2    0    0 -0.58042447028E+01  0.43004575443E+02  0.73505698553E+00  0.43400726657E+02  0.00000000000E+00 0. -1.
         11    1    3    3    0    0 -0.61830949683E+01 -0.66433716284E+01  0.16471978477E+01  0.92237904893E+01  0.51100000000E-03 0. -1.
        -11    1    3    3    0    0  0.37745824454E+01 -0.67453658556E+01  0.95951624531E-01  0.77302419198E+01  0.51100000000E-03 0.  1.
         12    1    3    3    0    0  0.82127572257E+01 -0.29615837959E+02 -0.24782064578E+01  0.30833240934E+02  0.00000000000E+00 0. -1.
</event>
<event>
 7    1  0.2599124E-010  0.4778727E+02  0.7816164E-02  0.1312668E+00
        -11   -1    0    0    0    0  0.00000000000E+00  0.00000000000E+00  0.45593999997E+02  0.45594000000E+02  0.51100000000E-03 0.  1.
         11   -1    0    0    0    0 -0.00000000000E+00 -0.00000000000E+00 -0.45593999997E+02  0.45594000000E+02  0.51100000000E-03 0. -1.
    9900012    2    1    2    0    0 -0.33105872750E+02 -0.28042467064E+02 -0.11154965758E+01  0.47787273023E+02  0.20000009020E+02 0.  0.
         12    1    1    2    0    0  0.33105872750E+02  0.28042467064E+02  0.11154965758E+01  0.43400726977E+02  0.00000000000E+00 0. -1.
         11    1    3    3    0    0 -0.89325723702E+01 -0.16006988849E+02 -0.20147319362E+01  0.18441086904E+02  0.51100000000E-03 0. -1.
        -11    1    3    3    0    0 -0.42468179658E+00 -0.42891999257E+01 -0.42505858951E+00  0.43310813542E+01  0.51100000000E-03 0.  1.
         12    1    3    3    0    0 -0.23748618583E+02 -0.77462782892E+01  0.13242939499E+01  0.25015104765E+02  0.00000000000E+00 0. -1.
</event>
<event>
 7    1  0.2599124E-010  0.4778727E+02  0.7816164E-02  0.1312668E+00
        -11   -1    0    0    0    0  0.00000000000E+00  0.00000000000E+00  0.45593999997E+02  0.45594000000E+02  0.51100000000E-03 0.  1.
         11   -1    0    0    0    0 -0.00000000000E+00 -0.00000000000E+00 -0.45593999997E+02  0.45594000000E+02  0.51100000000E-03 0. -1.
    9900012    2    1    2    0    0 -0.20177898053E+02  0.25448065153E+02  0.28790134958E+02  0.47787268892E+02  0.19999990185E+02 0.  0.
         12    1    1    2    0    0  0.20177898053E+02 -0.25448065153E+02 -0.28790134958E+02  0.43400731108E+02  0.00000000000E+00 0. -1.
         11    1    3    3    0    0 -0.33481234303E+01  0.71471910295E+01  0.68286833685E+01  0.10436627181E+02  0.51100000000E-03 0. -1.
        -11    1    3    3    0    0 -0.51681760950E+01  0.91208496433E+01  0.19730404976E+02  0.22342533946E+02  0.51100000000E-03 0.  1.
         12    1    3    3    0    0 -0.11661598528E+02  0.91800244799E+01  0.22310466135E+01  0.15008107764E+02  0.00000000000E+00 0. -1.
</event>
<event>
 7    1  0.2599124E-010  0.4778731E+02  0.7816164E-02  0.1312668E+00
        -11   -1    0    0    0    0  0.00000000000E+00  0.00000000000E+00  0.45593999997E+02  0.45594000000E+02  0.51100000000E-03 0. -1.
         11   -1    0    0    0    0 -0.00000000000E+00 -0.00000000000E+00 -0.45593999997E+02  0.45594000000E+02  0.51100000000E-03 0.  1.
    9900012    2    1    2    0    0  0.39508965740E+02 -0.16833975316E+02 -0.62673012951E+01  0.47787306868E+02  0.20000163333E+02 0.  0.
         12    1    1    2    0    0 -0.39508965740E+02  0.16833975316E+02  0.62673012951E+01  0.43400693132E+02  0.00000000000E+00 0. -1.
         11    1    3    3    0    0  0.12098167332E+02 -0.76324752504E+01 -0.50661005256E+01  0.15175167414E+02  0.51100000000E-03 0. -1.
        -11    1    3    3    0    0  0.26457345059E+02 -0.12378908953E+02 -0.46362293799E+00  0.29213754311E+02  0.51100000000E-03 0.  1.
         12    1    3    3    0    0  0.95345334923E+00  0.31774088872E+01 -0.73757783152E+00  0.33983851435E+01  0.00000000000E+00 0. -1.
</event>
<event>
 7    1  0.2599124E-010  0.4778725E+02  0.7816164E-02  0.1312668E+00
        -11   -1    0    0    0    0  0.00000000000E+00  0.00000000000E+00  0.45593999997E+02  0.45594000000E+02  0.51100000000E-03 0.  1.
         11   -1    0    0    0    0 -0.00000000000E+00 -0.00000000000E+00 -0.45593999997E+02  0.45594000000E+02  0.51100000000E-03 0. -1.
    9900012    2    1    2    0    0 -0.20828539662E+02  0.94724939105E+01  0.36879117298E+02  0.47787245421E+02  0.19999883174E+02 0.  0.
         12    1    1    2    0    0  0.20828539662E+02 -0.94724939105E+01 -0.36879117298E+02  0.43400754579E+02  0.00000000000E+00 0. -1.
         11    1    3    3    0    0  0.18716524763E+01 -0.99768603154E+00  0.52306473672E+01  0.56443008912E+01  0.51100000000E-03 0. -1.
        -11    1    3    3    0    0 -0.14708528554E+01 -0.23783304115E+01  0.50073324679E+01  0.57352630606E+01  0.51100000000E-03 0.  1.
        -12    1    3    3    0    0 -0.21229339283E+02  0.12848510354E+02  0.26641137463E+02  0.36407681470E+02  0.00000000000E+00 0.  1.
</event>
<event>
 7    1  0.2599124E-010  0.4778727E+02  0.7816164E-02  0.1312668E+00
        -11   -1    0    0    0    0  0.00000000000E+00  0.00000000000E+00  0.45593999997E+02  0.45594000000E+02  0.51100000000E-03 0.  1.
         11   -1    0    0    0    0 -0.00000000000E+00 -0.00000000000E+00 -0.45593999997E+02  0.45594000000E+02  0.51100000000E-03 0. -1.
    9900012    2    1    2    0    0  0.38499293926E+01  0.21651549219E+02  0.37416733133E+02  0.47787268921E+02  0.19999990316E+02 0.  0.
         12    1    1    2    0    0 -0.38499293926E+01 -0.21651549219E+02 -0.37416733133E+02  0.43400731079E+02  0.00000000000E+00 0. -1.
         11    1    3    3    0    0  0.34327849289E+01  0.12065322175E+02  0.12229740422E+02  0.17519205535E+02  0.51100000000E-03 0. -1.
        -11    1    3    3    0    0  0.29169473494E+01  0.10842818526E+02  0.10689041494E+02  0.15502609579E+02  0.51100000000E-03 0.  1.
         12    1    3    3    0    0 -0.24998028857E+01 -0.12565914818E+01  0.14497951217E+02  0.14765453807E+02  0.00000000000E+00 0. -1.
</event>
<event>
 7    1  0.2599124E-010  0.4778726E+02  0.7816164E-02  0.1312668E+00
        -11   -1    0    0    0    0  0.00000000000E+00  0.00000000000E+00  0.45593999997E+02  0.45594000000E+02  0.51100000000E-03 0.  1.
         11   -1    0    0    0    0 -0.00000000000E+00 -0.00000000000E+00 -0.45593999997E+02  0.45594000000E+02  0.51100000000E-03 0. -1.
    9900012    2    1    2    0    0  0.31879901612E+02  0.10959082623E+02  0.27334855199E+02  0.47787263514E+02  0.19999965667E+02 0.  0.
         12    1    1    2    0    0 -0.31879901612E+02 -0.10959082623E+02 -0.27334855199E+02  0.43400736486E+02  0.00000000000E+00 0. -1.
         11    1    3    3    0    0  0.70913164420E+01  0.32048245110E+01  0.61831387623E+01  0.99392592401E+01  0.51100000000E-03 0.  1.
        -11    1    3    3    0    0  0.17116238721E+02 -0.37727002135E+01  0.11296484213E+02  0.20852085045E+02  0.51100000000E-03 0. -1.
         12    1    3    3    0    0  0.76723464490E+01  0.11526958326E+02  0.98552322234E+01  0.16995919229E+02  0.00000000000E+00 0. -1.
</event>
<event>
 7    1  0.2599124E-010  0.4778727E+02  0.7816164E-02  0.1312668E+00
        -11   -1    0    0    0    0  0.00000000000E+00  0.00000000000E+00  0.45593999997E+02  0.45594000000E+02  0.51100000000E-03 0.  1.
         11   -1    0    0    0    0 -0.00000000000E+00 -0.00000000000E+00 -0.45593999997E+02  0.45594000000E+02  0.51100000000E-03 0. -1.
    9900012    2    1    2    0    0  0.18634471731E+02  0.16833852534E+02  0.35397762240E+02  0.47787266142E+02  0.19999977648E+02 0.  0.
         12    1    1    2    0    0 -0.18634471731E+02 -0.16833852534E+02 -0.35397762240E+02  0.43400733858E+02  0.00000000000E+00 0. -1.
         11    1    3    3    0    0  0.17159827528E+01 -0.27605189527E+01  0.18085433628E+01  0.37196627606E+01  0.51100000000E-03 0. -1.
        -11    1    3    3    0    0  0.17000622316E+02  0.13525464179E+02  0.21630305478E+02  0.30656638037E+02  0.51100000000E-03 0.  1.
         12    1    3    3    0    0 -0.82133337290E-01  0.60689073079E+01  0.11958913399E+02  0.13410965345E+02  0.00000000000E+00 0. -1.
</event>
<event>
 7    1  0.2599124E-010  0.4778727E+02  0.7816164E-02  0.1312668E+00
        -11   -1    0    0    0    0  0.00000000000E+00  0.00000000000E+00  0.45593999997E+02  0.45594000000E+02  0.51100000000E-03 0. -1.
         11   -1    0    0    0    0 -0.00000000000E+00 -0.00000000000E+00 -0.45593999997E+02  0.45594000000E+02  0.51100000000E-03 0.  1.
    9900012    2    1    2    0    0  0.42973536697E+02 -0.40269559509E+01  0.45477304835E+01  0.47787273243E+02  0.20000010023E+02 0.  0.
         12    1    1    2    0    0 -0.42973536697E+02  0.40269559509E+01 -0.45477304835E+01  0.43400726757E+02  0.00000000000E+00 0. -1.
         11    1    3    3    0    0  0.33215359737E+02  0.37075652317E+01  0.42514275582E+01  0.33690960196E+02  0.51100000000E-03 0. -1.
        -11    1    3    3    0    0 -0.34187597379E+00  0.68026935053E+00  0.56400332969E+00  0.94749437346E+00  0.51100000000E-03 0.  1.
        -12    1    3    3    0    0  0.10100052934E+02 -0.84147905331E+01 -0.26770040439E+00  0.13148818673E+02  0.00000000000E+00 0.  1.
</event>
<event>
 7    1  0.2599124E-010  0.4778727E+02  0.7816164E-02  0.1312668E+00
        -11   -1    0    0    0    0  0.00000000000E+00  0.00000000000E+00  0.45593999997E+02  0.45594000000E+02  0.51100000000E-03 0.  1.
         11   -1    0    0    0    0 -0.00000000000E+00 -0.00000000000E+00 -0.45593999997E+02  0.45594000000E+02  0.51100000000E-03 0. -1.
    9900012    2    1    2    0    0 -0.69479669139E+01  0.35517616947E+02 -0.23955123129E+02  0.47787270952E+02  0.19999999577E+02 0.  0.
         12    1    1    2    0    0  0.69479669139E+01 -0.35517616947E+02  0.23955123129E+02  0.43400729048E+02  0.00000000000E+00 0. -1.
         11    1    3    3    0    0 -0.29230847105E+01  0.10581511844E+02 -0.44239821502E+01  0.11835727077E+02  0.51100000000E-03 0. -1.
        -11    1    3    3    0    0  0.19618826376E+01  0.21718420331E+02 -0.93880410657E+01  0.23741821339E+02  0.51100000000E-03 0.  1.
         12    1    3    3    0    0 -0.59867648410E+01  0.32176847715E+01 -0.10143099913E+02  0.12209722536E+02  0.00000000000E+00 0. -1.
</event>
<event>
 7    1  0.2599124E-010  0.4778727E+02  0.7816164E-02  0.1312668E+00
        -11   -1    0    0    0    0  0.00000000000E+00  0.00000000000E+00  0.45593999997E+02  0.45594000000E+02  0.51100000000E-03 0. -1.
         11   -1    0    0    0    0 -0.00000000000E+00 -0.00000000000E+00 -0.45593999997E+02  0.45594000000E+02  0.51100000000E-03 0.  1.
    9900012    2    1    2    0    0  0.32026426630E+02 -0.17001557384E+01 -0.29241080379E+02  0.47787270583E+02  0.19999997894E+02 0.  0.
         12    1    1    2    0    0 -0.32026426630E+02  0.17001557384E+01  0.29241080379E+02  0.43400729417E+02  0.00000000000E+00 0. -1.
         11    1    3    3    0    0  0.10437448789E+02  0.20975434195E+01 -0.13147788817E+02  0.16917575969E+02  0.51100000000E-03 0. -1.
        -11    1    3    3    0    0  0.17816990439E+02  0.31866492635E+01 -0.13276358325E+02  0.22446861082E+02  0.51100000000E-03 0.  1.
         12    1    3    3    0    0  0.37719874025E+01 -0.69843484215E+01 -0.28169332374E+01  0.84228335316E+01  0.00000000000E+00 0. -1.
</event>
<event>
 7    1  0.2599124E-010  0.4778727E+02  0.7816164E-02  0.1312668E+00
        -11   -1    0    0    0    0  0.00000000000E+00  0.00000000000E+00  0.45593999997E+02  0.45594000000E+02  0.51100000000E-03 0.  1.
         11   -1    0    0    0    0 -0.00000000000E+00 -0.00000000000E+00 -0.45593999997E+02  0.45594000000E+02  0.51100000000E-03 0. -1.
    9900012    2    1    2    0    0  0.18105161049E+02 -0.96185527281E+01  0.38253234029E+02  0.47787270434E+02  0.19999997218E+02 0.  0.
         12    1    1    2    0    0 -0.18105161049E+02  0.96185527281E+01 -0.38253234029E+02  0.43400729566E+02  0.00000000000E+00 0. -1.
         11    1    3    3    0    0  0.65011138645E+01 -0.12903669249E+02  0.16725460140E+02  0.22102266370E+02  0.51100000000E-03 0. -1.
        -11    1    3    3    0    0  0.53033503400E+01 -0.36896421649E+00  0.38450793070E+01  0.65609675018E+01  0.51100000000E-03 0.  1.
         12    1    3    3    0    0  0.63006968445E+01  0.36540807370E+01  0.17682694582E+02  0.19124036562E+02  0.00000000000E+00 0. -1.
</event>
<event>
 7    1  0.2599124E-010  0.4778727E+02  0.7816164E-02  0.1312668E+00
        -11   -1    0    0    0    0  0.00000000000E+00  0.00000000000E+00  0.45593999997E+02  0.45594000000E+02  0.51100000000E-03 0.  1.
         11   -1    0    0    0    0 -0.00000000000E+00 -0.00000000000E+00 -0.45593999997E+02  0.45594000000E+02  0.51100000000E-03 0. -1.
    9900012    2    1    2    0    0  0.10158457960E+02 -0.36951174188E+02 -0.20372525931E+02  0.47787270112E+02  0.19999995748E+02 0.  0.
         12    1    1    2    0    0 -0.10158457960E+02  0.36951174188E+02  0.20372525931E+02  0.43400729888E+02  0.00000000000E+00 0. -1.
         11    1    3    3    0    0 -0.19284506166E+00 -0.23783586172E+02 -0.90683120155E+01  0.25454477867E+02  0.51100000000E-03 0. -1.
        -11    1    3    3    0    0  0.15204219565E+01 -0.17783671166E+01  0.17231100736E+01  0.29057496647E+01  0.51100000000E-03 0.  1.
         12    1    3    3    0    0  0.88308810652E+01 -0.11389220899E+02 -0.13027323989E+02  0.19427042580E+02  0.00000000000E+00 0. -1.
</event>
<event>
 7    1  0.2599124E-010  0.4778727E+02  0.7816164E-02  0.1312668E+00
        -11   -1    0    0    0    0  0.00000000000E+00  0.00000000000E+00  0.45593999997E+02  0.45594000000E+02  0.51100000000E-03 0. -1.
         11   -1    0    0    0    0 -0.00000000000E+00 -0.00000000000E+00 -0.45593999997E+02  0.45594000000E+02  0.51100000000E-03 0.  1.
    9900012    2    1    2    0    0 -0.12606964710E+02  0.96423504340E+01 -0.40394466567E+02  0.47787269472E+02  0.19999992831E+02 0.  0.
         12    1    1    2    0    0  0.12606964710E+02 -0.96423504340E+01  0.40394466567E+02  0.43400730528E+02  0.00000000000E+00 0. -1.
         11    1    3    3    0    0 -0.15330088557E+02  0.93676200195E+01 -0.22734521882E+02  0.28976238636E+02  0.51100000000E-03 0. -1.
        -11    1    3    3    0    0 -0.80138462060E+00  0.85852210944E+00 -0.48863717037E+00  0.12720236114E+01  0.51100000000E-03 0.  1.
        -12    1    3    3    0    0  0.35245084675E+01 -0.58379169493E+00 -0.17171307514E+02  0.17539007225E+02  0.00000000000E+00 0.  1.
</event>
<event>
 7    1  0.2599124E-010  0.4778727E+02  0.7816164E-02  0.1312668E+00
        -11   -1    0    0    0    0  0.00000000000E+00  0.00000000000E+00  0.45593999997E+02  0.45594000000E+02  0.51100000000E-03 0.  1.
         11   -1    0    0    0    0 -0.00000000000E+00 -0.00000000000E+00 -0.45593999997E+02  0.45594000000E+02  0.51100000000E-03 0. -1.
    9900012    2    1    2    0    0  0.29914665451E+02  0.28809731029E-01  0.31444163128E+02  0.47787269202E+02  0.19999991598E+02 0.  0.
         12    1    1    2    0    0 -0.29914665451E+02 -0.28809731029E-01 -0.31444163128E+02  0.43400730798E+02  0.00000000000E+00 0. -1.
         11    1    3    3    0    0  0.35783070671E+01 -0.31243181388E+01  0.15047393942E+01  0.49829595828E+01  0.51100000000E-03 0. -1.
        -11    1    3    3    0    0  0.20891667402E+02 -0.10465978970E+01  0.13269032467E+02  0.24771442365E+02  0.51100000000E-03 0.  1.
        -12    1    3    3    0    0  0.54446909818E+01  0.41997257668E+01  0.16670391267E+02  0.18032867254E+02  0.00000000000E+00 0.  1.
</event>
<event>
 7    1  0.2599124E-010  0.4778727E+02  0.7816164E-02  0.1312668E+00
        -11   -1    0    0    0    0  0.00000000000E+00  0.00000000000E+00  0.45593999997E+02  0.45594000000E+02  0.51100000000E-03 0.  1.
         11   -1    0    0    0    0 -0.00000000000E+00 -0.00000000000E+00 -0.45593999997E+02  0.45594000000E+02  0.51100000000E-03 0. -1.
    9900012    2    1    2    0    0  0.75395945860E+01  0.22050913214E+01  0.42683903539E+02  0.47787268030E+02  0.19999986254E+02 0.  0.
         12    1    1    2    0    0 -0.75395945860E+01 -0.22050913214E+01 -0.42683903539E+02  0.43400731970E+02  0.00000000000E+00 0. -1.
         11    1    3    3    0    0  0.17340926859E+01 -0.20023215567E+01  0.29914686360E+02  0.30031730376E+02  0.51100000000E-03 0. -1.
        -11    1    3    3    0    0 -0.27077508447E+01 -0.12349281887E+00  0.36796260152E+01  0.45702092935E+01  0.51100000000E-03 0.  1.
        -12    1    3    3    0    0  0.85132527449E+01  0.43309056970E+01  0.90895911632E+01  0.13185328360E+02  0.00000000000E+00 0.  1.
</event>
<event>
 7    1  0.2599124E-010  0.4778727E+02  0.7816164E-02  0.1312668E+00
        -11   -1    0    0    0    0  0.00000000000E+00  0.00000000000E+00  0.45593999997E+02  0.45594000000E+02  0.51100000000E-03 0.  1.
         11   -1    0    0    0    0 -0.00000000000E+00 -0.00000000000E+00 -0.45593999997E+02  0.45594000000E+02  0.51100000000E-03 0. -1.
    9900012    2    1    2    0    0  0.66102440071E+01  0.13927777082E+02  0.40570249505E+02  0.47787269070E+02  0.19999991000E+02 0.  0.
         12    1    1    2    0    0 -0.66102440071E+01 -0.13927777082E+02 -0.40570249505E+02  0.43400730930E+02  0.00000000000E+00 0. -1.
         11    1    3    3    0    0  0.33709639410E+01  0.74875569954E+01  0.60431152112E+01  0.10195398441E+02  0.51100000000E-03 0. -1.
        -11    1    3    3    0    0 -0.42211842236E+01  0.29943691503E+01  0.60945255727E+01  0.79954915469E+01  0.51100000000E-03 0.  1.
         12    1    3    3    0    0  0.74604642897E+01  0.34458509363E+01  0.28432608722E+02  0.29596379083E+02  0.00000000000E+00 0. -1.
</event>
<event>
 7    1  0.2599124E-010  0.4778726E+02  0.7816164E-02  0.1312668E+00
        -11   -1    0    0    0    0  0.00000000000E+00  0.00000000000E+00  0.45593999997E+02  0.45594000000E+02  0.51100000000E-03 0.  1.
         11   -1    0    0    0    0 -0.00000000000E+00 -0.00000000000E+00 -0.45593999997E+02  0.45594000000E+02  0.51100000000E-03 0. -1.
    9900012    2    1    2    0    0  0.20898974442E+02  0.37436953381E+02  0.67328717161E+01  0.47787260689E+02  0.19999952785E+02 0.  0.
         12    1    1    2    0    0 -0.20898974442E+02 -0.37436953381E+02 -0.67328717161E+01  0.43400739311E+02  0.00000000000E+00 0. -1.
         11    1    3    3    0    0 -0.25063337106E+01  0.11296507714E+01 -0.14689318459E+01  0.31169826055E+01  0.51100000000E-03 0. -1.
        -11    1    3    3    0    0  0.66589116629E+01  0.12873056879E+02 -0.73749079427E+00  0.14512084305E+02  0.51100000000E-03 0.  1.
         12    1    3    3    0    0  0.16746396490E+02  0.23434245730E+02  0.89392943563E+01  0.30158193778E+02  0.00000000000E+00 0. -1.
</event>
<event>
 7    1  0.2599124E-010  0.4778728E+02  0.7816164E-02  0.1312668E+00
        -11   -1    0    0    0    0  0.00000000000E+00  0.00000000000E+00  0.45593999997E+02  0.45594000000E+02  0.51100000000E-03 0.  1.
         11   -1    0    0    0    0 -0.00000000000E+00 -0.00000000000E+00 -0.45593999997E+02  0.45594000000E+02  0.51100000000E-03 0. -1.
    9900012    2    1    2    0    0 -0.13082631387E+02 -0.19547790343E+01  0.41335774302E+02  0.47787278322E+02  0.20000033179E+02 0.  0.
         12    1    1    2    0    0  0.13082631387E+02  0.19547790343E+01 -0.41335774302E+02  0.43400721678E+02  0.00000000000E+00 0. -1.
         11    1    3    3    0    0 -0.13593121352E+01  0.27838251734E+01  0.17744539017E+01  0.35701679214E+01  0.51100000000E-03 0. -1.
        -11    1    3    3    0    0  0.28552333050E+01 -0.42982032324E+01  0.99294419818E+01  0.11190206727E+02  0.51100000000E-03 0.  1.
        -12    1    3    3    0    0 -0.14578552556E+02 -0.44040097528E+00  0.29631878418E+02  0.33026903674E+02  0.00000000000E+00 0.  1.
</event>
<event>
 7    1  0.2599124E-010  0.4778725E+02  0.7816164E-02  0.1312668E+00
        -11   -1    0    0    0    0  0.00000000000E+00  0.00000000000E+00  0.45593999997E+02  0.45594000000E+02  0.51100000000E-03 0. -1.
         11   -1    0    0    0    0 -0.00000000000E+00 -0.00000000000E+00 -0.45593999997E+02  0.45594000000E+02  0.51100000000E-03 0.  1.
    9900012    2    1    2    0    0 -0.22995500992E+02 -0.10530027869E+02 -0.35269678680E+02  0.47787253613E+02  0.19999920521E+02 0.  0.
         12    1    1    2    0    0  0.22995500992E+02  0.10530027869E+02  0.35269678680E+02  0.43400746387E+02  0.00000000000E+00 0. -1.
         11    1    3    3    0    0 -0.24402670924E+01 -0.58882510303E+01 -0.55786644686E+01  0.84704132835E+01  0.51100000000E-03 0. -1.
        -11    1    3    3    0    0 -0.13944668744E+01  0.43701190289E+01 -0.48417606310E+01  0.66697169699E+01  0.51100000000E-03 0.  1.
         12    1    3    3    0    0 -0.19160767025E+02 -0.90118958679E+01 -0.24849253581E+02  0.32647123359E+02  0.00000000000E+00 0. -1.
</event>
<event>
 7    1  0.2599124E-010  0.4778727E+02  0.7816164E-02  0.1312668E+00
        -11   -1    0    0    0    0  0.00000000000E+00  0.00000000000E+00  0.45593999997E+02  0.45594000000E+02  0.51100000000E-03 0.  1.
         11   -1    0    0    0    0 -0.00000000000E+00 -0.00000000000E+00 -0.45593999997E+02  0.45594000000E+02  0.51100000000E-03 0. -1.
    9900012    2    1    2    0    0  0.18101872975E+02  0.34988071649E+02  0.18214829396E+02  0.47787274512E+02  0.20000015810E+02 0.  0.
         12    1    1    2    0    0 -0.18101872975E+02 -0.34988071649E+02 -0.18214829396E+02  0.43400725488E+02  0.00000000000E+00 0. -1.
         11    1    3    3    0    0  0.95206284522E+01  0.14788383656E+02  0.77491604701E+01  0.19219473081E+02  0.51100000000E-03 0.  1.
        -11    1    3    3    0    0  0.11824742593E+02  0.19046920131E+02  0.11180333158E+02  0.25052136708E+02  0.51100000000E-03 0. -1.
         12    1    3    3    0    0 -0.32434980703E+01  0.11527678629E+01 -0.71466423157E+00  0.35156647226E+01  0.00000000000E+00 0. -1.
</event>
<event>
 7    1  0.2599124E-010  0.4778727E+02  0.7816164E-02  0.1312668E+00
        -11   -1    0    0    0    0  0.00000000000E+00  0.00000000000E+00  0.45593999997E+02  0.45594000000E+02  0.51100000000E-03 0.  1.
         11   -1    0    0    0    0 -0.00000000000E+00 -0.00000000000E+00 -0.45593999997E+02  0.45594000000E+02  0.51100000000E-03 0. -1.
    9900012    2    1    2    0    0  0.27287024384E+02  0.41663373232E+01  0.33491537413E+02  0.47787272533E+02  0.20000006786E+02 0.  0.
         12    1    1    2    0    0 -0.27287024384E+02 -0.41663373232E+01 -0.33491537413E+02  0.43400727467E+02  0.00000000000E+00 0. -1.
         11    1    3    3    0    0  0.25492162377E+01 -0.14294606029E+00  0.65656951980E+01  0.70446639875E+01  0.51100000000E-03 0. -1.
        -11    1    3    3    0    0  0.21664801471E+02  0.10001572546E+02  0.23181597399E+02  0.33268326294E+02  0.51100000000E-03 0.  1.
         12    1    3    3    0    0  0.30730066747E+01 -0.56922891623E+01  0.37442448156E+01  0.74742822511E+01  0.00000000000E+00 0. -1.
</event>
<event>
 7    1  0.2599124E-010  0.4778727E+02  0.7816164E-02  0.1312668E+00
        -11   -1    0    0    0    0  0.00000000000E+00  0.00000000000E+00  0.45593999997E+02  0.45594000000E+02  0.51100000000E-03 0.  1.
         11   -1    0    0    0    0 -0.00000000000E+00 -0.00000000000E+00 -0.45593999997E+02  0.45594000000E+02  0.51100000000E-03 0. -1.
    9900012    2    1    2    0    0 -0.29995619880E+02  0.16828770457E+02  0.26470332467E+02  0.47787271573E+02  0.20000002408E+02 0.  0.
         12    1    1    2    0    0  0.29995619880E+02 -0.16828770457E+02 -0.26470332467E+02  0.43400728427E+02  0.00000000000E+00 0. -1.
         11    1    3    3    0    0 -0.18316416549E+02  0.76702460477E+01  0.69707628956E+01  0.21045553574E+02  0.51100000000E-03 0. -1.
        -11    1    3    3    0    0 -0.11441354760E+01 -0.10232058513E+01 -0.78131168478E+00  0.17223369042E+01  0.51100000000E-03 0.  1.
        -12    1    3    3    0    0 -0.10535067856E+02  0.10181730261E+02  0.20280881256E+02  0.25019381095E+02  0.00000000000E+00 0.  1.
</event>
<event>
 7    1  0.2599124E-010  0.4778730E+02  0.7816164E-02  0.1312668E+00
        -11   -1    0    0    0    0  0.00000000000E+00  0.00000000000E+00  0.45593999997E+02  0.45594000000E+02  0.51100000000E-03 0.  1.
         11   -1    0    0    0    0 -0.00000000000E+00 -0.00000000000E+00 -0.45593999997E+02  0.45594000000E+02  0.51100000000E-03 0. -1.
    9900012    2    1    2    0    0  0.10372902908E+02  0.14259027101E+02  0.39657333516E+02  0.47787296432E+02  0.20000115753E+02 0.  0.
         12    1    1    2    0    0 -0.10372902908E+02 -0.14259027101E+02 -0.39657333516E+02  0.43400703568E+02  0.00000000000E+00 0. -1.
         11    1    3    3    0    0  0.41169892539E+01  0.16649362969E+02  0.26894043865E+02  0.31897342890E+02  0.51100000000E-03 0. -1.
        -11    1    3    3    0    0  0.45864132052E+01  0.17287932480E+01  0.54306622629E+01  0.73154634206E+01  0.51100000000E-03 0.  1.
         12    1    3    3    0    0  0.16695004490E+01 -0.41191291167E+01  0.73326273880E+01  0.85744901214E+01  0.00000000000E+00 0. -1.
</event>
<event>
 7    1  0.2599124E-010  0.4778727E+02  0.7816164E-02  0.1312668E+00
        -11   -1    0    0    0    0  0.00000000000E+00  0.00000000000E+00  0.45593999997E+02  0.45594000000E+02  0.51100000000E-03 0.  1.
         11   -1    0    0    0    0 -0.00000000000E+00 -0.00000000000E+00 -0.45593999997E+02  0.45594000000E+02  0.51100000000E-03 0. -1.
    9900012    2    1    2    0    0  0.15710951499E+02  0.40453592142E+02 -0.54417598756E+00  0.47787271415E+02  0.20000001691E+02 0.  0.
         12    1    1    2    0    0 -0.15710951499E+02 -0.40453592142E+02  0.54417598756E+00  0.43400728585E+02  0.00000000000E+00 0. -1.
         11    1    3    3    0    0  0.49221338154E+01  0.28138956993E+02  0.47723585932E+00  0.28570195244E+02  0.51100000000E-03 0. -1.
        -11    1    3    3    0    0  0.81686285931E+01  0.11122077295E+02  0.31444766645E+01  0.14153262175E+02  0.51100000000E-03 0.  1.
         12    1    3    3    0    0  0.26201890903E+01  0.11925578545E+01 -0.41658885114E+01  0.50638139969E+01  0.00000000000E+00 0. -1.
</event>
<event>
 7    1  0.2599124E-010  0.4778727E+02  0.7816164E-02  0.1312668E+00
        -11   -1    0    0    0    0  0.00000000000E+00  0.00000000000E+00  0.45593999997E+02  0.45594000000E+02  0.51100000000E-03 0.  1.
         11   -1    0    0    0    0 -0.00000000000E+00 -0.00000000000E+00 -0.45593999997E+02  0.45594000000E+02  0.51100000000E-03 0. -1.
    9900012    2    1    2    0    0  0.12599163401E+02 -0.24970249633E+02  0.33186908491E+02  0.47787272121E+02  0.20000004910E+02 0.  0.
         12    1    1    2    0    0 -0.12599163401E+02  0.24970249633E+02 -0.33186908491E+02  0.43400727879E+02  0.00000000000E+00 0. -1.
         11    1    3    3    0    0  0.66820521831E+01 -0.96430767979E+01  0.99018720572E+01  0.15352062467E+02  0.51100000000E-03 0. -1.
        -11    1    3    3    0    0 -0.35522470356E+01 -0.11204002730E+02  0.89804078669E+01  0.14791749792E+02  0.51100000000E-03 0.  1.
         12    1    3    3    0    0  0.94693582540E+01 -0.41231701053E+01  0.14304628567E+02  0.17643459862E+02  0.00000000000E+00 0. -1.
</event>
<event>
 7    1  0.2599124E-010  0.4778727E+02  0.7816164E-02  0.1312668E+00
        -11   -1    0    0    0    0  0.00000000000E+00  0.00000000000E+00  0.45593999997E+02  0.45594000000E+02  0.51100000000E-03 0. -1.
         11   -1    0    0    0    0 -0.00000000000E+00 -0.00000000000E+00 -0.45593999997E+02  0.45594000000E+02  0.51100000000E-03 0.  1.
    9900012    2    1    2    0    0  0.31734853703E+01  0.34285278847E+02 -0.26421049528E+02  0.47787271744E+02  0.20000003190E+02 0.  0.
         12    1    1    2    0    0 -0.31734853703E+01 -0.34285278847E+02  0.26421049528E+02  0.43400728256E+02  0.00000000000E+00 0. -1.
         11    1    3    3    0    0  0.24484507039E+01  0.21203859274E+02 -0.17536535646E+02  0.27624783107E+02  0.51100000000E-03 0. -1.
        -11    1    3    3    0    0  0.38032037514E+01  0.11639143523E+02 -0.10742002702E+02  0.16288788876E+02  0.51100000000E-03 0.  1.
         12    1    3    3    0    0 -0.30781690850E+01  0.14422760496E+01  0.18574888211E+01  0.38736997612E+01  0.00000000000E+00 0. -1.
</event>
<event>
 7    1  0.2599124E-010  0.4778727E+02  0.7816164E-02  0.1312668E+00
        -11   -1    0    0    0    0  0.00000000000E+00  0.00000000000E+00  0.45593999997E+02  0.45594000000E+02  0.51100000000E-03 0.  1.
         11   -1    0    0    0    0 -0.00000000000E+00 -0.00000000000E+00 -0.45593999997E+02  0.45594000000E+02  0.51100000000E-03 0. -1.
    9900012    2    1    2    0    0  0.35815737131E+02  0.16653405661E+02 -0.17986663504E+02  0.47787274081E+02  0.20000013844E+02 0.  0.
         12    1    1    2    0    0 -0.35815737131E+02 -0.16653405661E+02  0.17986663504E+02  0.43400725919E+02  0.00000000000E+00 0. -1.
         11    1    3    3    0    0  0.44938056392E+01 -0.44509263074E+00 -0.41599622962E+01  0.61398439019E+01  0.51100000000E-03 0. -1.
        -11    1    3    3    0    0  0.83854512406E+01 -0.70246350655E+00  0.19018654051E+01  0.86270701728E+01  0.51100000000E-03 0.  1.
         12    1    3    3    0    0  0.22936480251E+02  0.17800961798E+02 -0.15728566612E+02  0.33020360006E+02  0.00000000000E+00 0. -1.
</event>
<event>
 7    1  0.2599124E-010  0.4778727E+02  0.7816164E-02  0.1312668E+00
        -11   -1    0    0    0    0  0.00000000000E+00  0.00000000000E+00  0.45593999997E+02  0.45594000000E+02  0.51100000000E-03 0.  1.
         11   -1    0    0    0    0 -0.00000000000E+00 -0.00000000000E+00 -0.45593999997E+02  0.45594000000E+02  0.51100000000E-03 0. -1.
    9900012    2    1    2    0    0  0.13651206613E+02  0.51892991455E+01  0.40869785583E+02  0.47787266812E+02  0.19999980703E+02 0.  0.
         12    1    1    2    0    0 -0.13651206613E+02 -0.51892991455E+01 -0.40869785583E+02  0.43400733188E+02  0.00000000000E+00 0. -1.
         11    1    3    3    0    0  0.31846151725E+01  0.75203725295E+01  0.48634029370E+01  0.95052861697E+01  0.51100000000E-03 0. -1.
        -11    1    3    3    0    0  0.36974518545E+01  0.26907785479E+01  0.12824958459E+02  0.13615836337E+02  0.51100000000E-03 0.  1.
        -12    1    3    3    0    0  0.67691395862E+01 -0.50218519320E+01  0.23181424187E+02  0.24666144306E+02  0.00000000000E+00 0.  1.
</event>
<event>
 7    1  0.2599124E-010  0.4778727E+02  0.7816164E-02  0.1312668E+00
        -11   -1    0    0    0    0  0.00000000000E+00  0.00000000000E+00  0.45593999997E+02  0.45594000000E+02  0.51100000000E-03 0.  1.
         11   -1    0    0    0    0 -0.00000000000E+00 -0.00000000000E+00 -0.45593999997E+02  0.45594000000E+02  0.51100000000E-03 0. -1.
    9900012    2    1    2    0    0  0.25691008244E+02  0.18628221836E+01  0.34930288593E+02  0.47787273367E+02  0.20000010591E+02 0.  0.
         12    1    1    2    0    0 -0.25691008244E+02 -0.18628221836E+01 -0.34930288593E+02  0.43400726633E+02  0.00000000000E+00 0. -1.
         11    1    3    3    0    0  0.22885813565E+02 -0.52728168884E+01  0.20795859044E+02  0.31369265438E+02  0.51100000000E-03 0.  1.
        -11    1    3    3    0    0 -0.34068789329E-01  0.18047123112E+01  0.12723793947E+01  0.22084149958E+01  0.51100000000E-03 0. -1.
        -12    1    3    3    0    0  0.28392634679E+01  0.53309267608E+01  0.12862050154E+02  0.14209592934E+02  0.00000000000E+00 0.  1.
</event>
<event>
 7    1  0.2599124E-010  0.4778727E+02  0.7816164E-02  0.1312668E+00
        -11   -1    0    0    0    0  0.00000000000E+00  0.00000000000E+00  0.45593999997E+02  0.45594000000E+02  0.51100000000E-03 0.  1.
         11   -1    0    0    0    0 -0.00000000000E+00 -0.00000000000E+00 -0.45593999997E+02  0.45594000000E+02  0.51100000000E-03 0. -1.
    9900012    2    1    2    0    0  0.41157739066E+02  0.13692103532E+02 -0.14799573013E+01  0.47787268926E+02  0.19999990340E+02 0.  0.
         12    1    1    2    0    0 -0.41157739066E+02 -0.13692103532E+02  0.14799573013E+01  0.43400731074E+02  0.00000000000E+00 0. -1.
         11    1    3    3    0    0  0.27279719694E+01  0.13208743912E+01 -0.48088485801E+01  0.56843262706E+01  0.51100000000E-03 0. -1.
        -11    1    3    3    0    0  0.25683250836E+02  0.97294508994E+01 -0.30015301952E+01  0.27627898438E+02  0.51100000000E-03 0.  1.
         12    1    3    3    0    0  0.12746516260E+02  0.26417782416E+01  0.63304214739E+01  0.14475044217E+02  0.00000000000E+00 0. -1.
</event>
<event>
 7    1  0.2599124E-010  0.4778727E+02  0.7816164E-02  0.1312668E+00
        -11   -1    0    0    0    0  0.00000000000E+00  0.00000000000E+00  0.45593999997E+02  0.45594000000E+02  0.51100000000E-03 0. -1.
         11   -1    0    0    0    0 -0.00000000000E+00 -0.00000000000E+00 -0.45593999997E+02  0.45594000000E+02  0.51100000000E-03 0.  1.
    9900012    2    1    2    0    0 -0.11290391249E+02  0.27376270782E+02 -0.31728383045E+02  0.47787269279E+02  0.19999991951E+02 0.  0.
         12    1    1    2    0    0  0.11290391249E+02 -0.27376270782E+02  0.31728383045E+02  0.43400730721E+02  0.00000000000E+00 0. -1.
         11    1    3    3    0    0 -0.23090317832E+01  0.59510715219E+01 -0.60006418530E+01  0.87609692924E+01  0.51100000000E-03 0. -1.
        -11    1    3    3    0    0 -0.96195610480E+01  0.22757908558E+02 -0.27332684026E+02  0.36844727886E+02  0.51100000000E-03 0.  1.
         12    1    3    3    0    0  0.63820158226E+00 -0.13327092979E+01  0.16049428336E+01  0.21815721009E+01  0.00000000000E+00 0. -1.
</event>
<event>
 7    1  0.2599124E-010  0.4778727E+02  0.7816164E-02  0.1312668E+00
        -11   -1    0    0    0    0  0.00000000000E+00  0.00000000000E+00  0.45593999997E+02  0.45594000000E+02  0.51100000000E-03 0. -1.
         11   -1    0    0    0    0 -0.00000000000E+00 -0.00000000000E+00 -0.45593999997E+02  0.45594000000E+02  0.51100000000E-03 0.  1.
    9900012    2    1    2    0    0  0.39394591190E+02  0.20693147371E+01 -0.18094406397E+02  0.47787269345E+02  0.19999992252E+02 0.  0.
         12    1    1    2    0    0 -0.39394591190E+02 -0.20693147371E+01  0.18094406397E+02  0.43400730655E+02  0.00000000000E+00 0. -1.
         11    1    3    3    0    0  0.15446090489E+02 -0.26923163709E+01 -0.78754957686E+00  0.15698742416E+02  0.51100000000E-03 0. -1.
        -11    1    3    3    0    0  0.17499136548E+02  0.41825128395E+01 -0.58336271765E+01  0.18914132279E+02  0.51100000000E-03 0.  1.
         12    1    3    3    0    0  0.64493641530E+01  0.57911826860E+00 -0.11473229644E+02  0.13174394650E+02  0.00000000000E+00 0. -1.
</event>
<event>
 7    1  0.2599124E-010  0.4778727E+02  0.7816164E-02  0.1312668E+00
        -11   -1    0    0    0    0  0.00000000000E+00  0.00000000000E+00  0.45593999997E+02  0.45594000000E+02  0.51100000000E-03 0.  1.
         11   -1    0    0    0    0 -0.00000000000E+00 -0.00000000000E+00 -0.45593999997E+02  0.45594000000E+02  0.51100000000E-03 0. -1.
    9900012    2    1    2    0    0 -0.18906511220E+02 -0.34858101446E+02  0.17637455379E+02  0.47787271490E+02  0.20000002033E+02 0.  0.
         12    1    1    2    0    0  0.18906511220E+02  0.34858101446E+02 -0.17637455379E+02  0.43400728510E+02  0.00000000000E+00 0. -1.
         11    1    3    3    0    0 -0.12179873810E+02 -0.10012769812E+02  0.10251582480E+02  0.18806909075E+02  0.51100000000E-03 0. -1.
        -11    1    3    3    0    0 -0.33362124649E+01 -0.11377529843E+02  0.91555341612E+01  0.14980063584E+02  0.51100000000E-03 0.  1.
         12    1    3    3    0    0 -0.33904249447E+01 -0.13467801791E+02 -0.17696612624E+01  0.14000298832E+02  0.00000000000E+00 0. -1.
</event>
<event>
 7    1  0.2599124E-010  0.4778727E+02  0.7816164E-02  0.1312668E+00
        -11   -1    0    0    0    0  0.00000000000E+00  0.00000000000E+00  0.45593999997E+02  0.45594000000E+02  0.51100000000E-03 0.  1.
         11   -1    0    0    0    0 -0.00000000000E+00 -0.00000000000E+00 -0.45593999997E+02  0.45594000000E+02  0.51100000000E-03 0. -1.
    9900012    2    1    2    0    0  0.17158344807E+02  0.38395477693E+02  0.10723895951E+02  0.47787269036E+02  0.19999990843E+02 0.  0.
         12    1    1    2    0    0 -0.17158344807E+02 -0.38395477693E+02 -0.10723895951E+02  0.43400730964E+02  0.00000000000E+00 0. -1.
         11    1    3    3    0    0  0.30082457380E+01  0.30249349815E+01  0.41220758886E+01  0.59322241997E+01  0.51100000000E-03 0. -1.
        -11    1    3    3    0    0  0.27386349084E+01  0.11477350023E+01  0.49125858747E+01  0.57402889330E+01  0.51100000000E-03 0.  1.
        -12    1    3    3    0    0  0.11411464161E+02  0.34222807710E+02  0.16892341876E+01  0.36114755903E+02  0.00000000000E+00 0.  1.
</event>
<event>
 7    1  0.2599124E-010  0.4778727E+02  0.7816164E-02  0.1312668E+00
        -11   -1    0    0    0    0  0.00000000000E+00  0.00000000000E+00  0.45593999997E+02  0.45594000000E+02  0.51100000000E-03 0.  1.
         11   -1    0    0    0    0 -0.00000000000E+00 -0.00000000000E+00 -0.45593999997E+02  0.45594000000E+02  0.51100000000E-03 0. -1.
    9900012    2    1    2    0    0  0.11193271510E+02 -0.40461559705E+01  0.41736821731E+02  0.47787274275E+02  0.20000014731E+02 0.  0.
         12    1    1    2    0    0 -0.11193271510E+02  0.40461559705E+01 -0.41736821731E+02  0.43400725725E+02  0.00000000000E+00 0. -1.
         11    1    3    3    0    0  0.75053851563E+01 -0.98911907310E+00  0.77165687225E+01  0.10809930434E+02  0.51100000000E-03 0. -1.
        -11    1    3    3    0    0  0.22706507658E+01  0.49209877240E+01  0.20596434604E+02  0.21297537269E+02  0.51100000000E-03 0.  1.
        -12    1    3    3    0    0  0.14172355875E+01 -0.79780246213E+01  0.13423818405E+02  0.15679806572E+02  0.00000000000E+00 0.  1.
</event>
<event>
 7    1  0.2599124E-010  0.4778724E+02  0.7816164E-02  0.1312668E+00
        -11   -1    0    0    0    0  0.00000000000E+00  0.00000000000E+00  0.45593999997E+02  0.45594000000E+02  0.51100000000E-03 0. -1.
         11   -1    0    0    0    0 -0.00000000000E+00 -0.00000000000E+00 -0.45593999997E+02  0.45594000000E+02  0.51100000000E-03 0.  1.
    9900012    2    1    2    0    0  0.88573801952E+01  0.31878183186E+02 -0.28088326593E+02  0.47787241505E+02  0.19999865315E+02 0.  0.
         12    1    1    2    0    0 -0.88573801952E+01 -0.31878183186E+02  0.28088326593E+02  0.43400758495E+02  0.00000000000E+00 0. -1.
         11    1    3    3    0    0 -0.10972581515E+00  0.19701166110E+01 -0.36134232884E+01  0.41170653793E+01  0.51100000000E-03 0. -1.
        -11    1    3    3    0    0  0.73490410563E+01  0.10497159732E+02 -0.55945690959E+00  0.12826213751E+02  0.51100000000E-03 0.  1.
         12    1    3    3    0    0  0.16180649541E+01  0.19410906843E+02 -0.23915446395E+02  0.30843962374E+02  0.00000000000E+00 0. -1.
</event>
<event>
 7    1  0.2599124E-010  0.4778728E+02  0.7816164E-02  0.1312668E+00
        -11   -1    0    0    0    0  0.00000000000E+00  0.00000000000E+00  0.45593999997E+02  0.45594000000E+02  0.51100000000E-03 0.  1.
         11   -1    0    0    0    0 -0.00000000000E+00 -0.00000000000E+00 -0.45593999997E+02  0.45594000000E+02  0.51100000000E-03 0. -1.
    9900012    2    1    2    0    0  0.35898263805E+02 -0.23260058007E+02  0.73421208940E+01  0.47787281320E+02  0.20000046851E+02 0.  0.
         12    1    1    2    0    0 -0.35898263805E+02  0.23260058007E+02 -0.73421208940E+01  0.43400718680E+02  0.00000000000E+00 0. -1.
         11    1    3    3    0    0  0.40943780786E+01 -0.21308826618E+00 -0.10777176862E+01  0.42391997042E+01  0.51100000000E-03 0. -1.
        -11    1    3    3    0    0  0.31043735125E+02 -0.14711060530E+02  0.65698789131E+01  0.34975592942E+02  0.51100000000E-03 0.  1.
        -12    1    3    3    0    0  0.76015060161E+00 -0.83359092103E+01  0.18499596671E+01  0.85724886742E+01  0.00000000000E+00 0.  1.
</event>
<event>
 7    1  0.2966598E-010  0.4778728E+02  0.7816164E-02  0.1312668E+00
        -11   -1    0    0    0    0  0.00000000000E+00  0.00000000000E+00  0.45593999997E+02  0.45594000000E+02  0.51100000000E-03 0. -1.
         11   -1    0    0    0    0 -0.00000000000E+00 -0.00000000000E+00 -0.45593999997E+02  0.45594000000E+02  0.51100000000E-03 0.  1.
    9900012    2    1    2    0    0  0.30877147372E+02 -0.15433306380E+02 -0.26306609819E+02  0.47787275399E+02  0.20000019856E+02 0.  0.
         12    1    1    2    0    0 -0.30877147372E+02  0.15433306380E+02  0.26306609819E+02  0.43400724601E+02  0.00000000000E+00 0. -1.
         11    1    3    3    0    0  0.87817446607E+01 -0.54254872724E+01 -0.32356252294E+00  0.10327615620E+02  0.51100000000E-03 0. -1.
        -11    1    3    3    0    0 -0.21127431040E+00  0.15066505872E+01 -0.32685319913E+01  0.36052648260E+01  0.51100000000E-03 0.  1.
        -12    1    3    3    0    0  0.22306677022E+02 -0.11514469695E+02 -0.22714515305E+02  0.33854394953E+02  0.00000000000E+00 0.  1.
</event>
<event>
 7    1  0.2599124E-010  0.4778727E+02  0.7816164E-02  0.1312668E+00
        -11   -1    0    0    0    0  0.00000000000E+00  0.00000000000E+00  0.45593999997E+02  0.45594000000E+02  0.51100000000E-03 0.  1.
         11   -1    0    0    0    0 -0.00000000000E+00 -0.00000000000E+00 -0.45593999997E+02  0.45594000000E+02  0.51100000000E-03 0. -1.
    9900012    2    1    2    0    0  0.22445377597E+02 -0.29629383617E+02  0.22403754024E+02  0.47787267940E+02  0.19999985845E+02 0.  0.
         12    1    1    2    0    0 -0.22445377597E+02  0.29629383617E+02 -0.22403754024E+02  0.43400732060E+02  0.00000000000E+00 0. -1.
         11    1    3    3    0    0  0.18433513543E+01 -0.63110501913E+01  0.40999312419E+01  0.77483375753E+01  0.51100000000E-03 0. -1.
        -11    1    3    3    0    0  0.11762226635E+02 -0.14849987655E+01  0.81613071554E+01  0.14393127926E+02  0.51100000000E-03 0.  1.
        -12    1    3    3    0    0  0.88397996077E+01 -0.21833334660E+02  0.10142515627E+02  0.25645802439E+02  0.00000000000E+00 0.  1.
</event>
<event>
 7    1  0.2599124E-010  0.4778728E+02  0.7816164E-02  0.1312668E+00
        -11   -1    0    0    0    0  0.00000000000E+00  0.00000000000E+00  0.45593999997E+02  0.45594000000E+02  0.51100000000E-03 0.  1.
         11   -1    0    0    0    0 -0.00000000000E+00 -0.00000000000E+00 -0.45593999997E+02  0.45594000000E+02  0.51100000000E-03 0. -1.
    9900012    2    1    2    0    0 -0.22064066310E+01 -0.94361534571E+01  0.42305006633E+02  0.47787276406E+02  0.20000024446E+02 0.  0.
         12    1    1    2    0    0  0.22064066310E+01  0.94361534571E+01 -0.42305006633E+02  0.43400723594E+02  0.00000000000E+00 0. -1.
         11    1    3    3    0    0 -0.29398140320E+01 -0.61592756856E+01  0.36291790908E+01  0.77298204797E+01  0.51100000000E-03 0. -1.
        -11    1    3    3    0    0  0.27915481096E+01 -0.61708477657E+00  0.27247071210E+01  0.39493750931E+01  0.51100000000E-03 0.  1.
        -12    1    3    3    0    0 -0.20581407086E+01 -0.26597929950E+01  0.35951120421E+02  0.36108080833E+02  0.00000000000E+00 0.  1.
</event>
<event>
 7    1  0.2599124E-010  0.4778727E+02  0.7816164E-02  0.1312668E+00
        -11   -1    0    0    0    0  0.00000000000E+00  0.00000000000E+00  0.45593999997E+02  0.45594000000E+02  0.51100000000E-03 0.  1.
         11   -1    0    0    0    0 -0.00000000000E+00 -0.00000000000E+00 -0.45593999997E+02  0.45594000000E+02  0.51100000000E-03 0. -1.
    9900012    2    1    2    0    0  0.12007483455E+02 -0.71675257497E+01  0.41086130621E+02  0.47787271738E+02  0.20000003161E+02 0.  0.
         12    1    1    2    0    0 -0.12007483455E+02  0.71675257497E+01 -0.41086130621E+02  0.43400728262E+02  0.00000000000E+00 0. -1.
         11    1    3    3    0    0  0.78797753089E+01 -0.39791300128E+01  0.62746853661E+01  0.10830328309E+02  0.51100000000E-03 0. -1.
        -11    1    3    3    0    0  0.74999905949E+01 -0.29530719821E+01  0.16831767373E+02  0.18662231544E+02  0.51100000000E-03 0.  1.
         12    1    3    3    0    0 -0.33722824493E+01 -0.23532375483E+00  0.17979677882E+02  0.18294711884E+02  0.00000000000E+00 0. -1.
</event>
<event>
 7    1  0.2599124E-010  0.4778727E+02  0.7816164E-02  0.1312668E+00
        -11   -1    0    0    0    0  0.00000000000E+00  0.00000000000E+00  0.45593999997E+02  0.45594000000E+02  0.51100000000E-03 0.  1.
         11   -1    0    0    0    0 -0.00000000000E+00 -0.00000000000E+00 -0.45593999997E+02  0.45594000000E+02  0.51100000000E-03 0. -1.
    9900012    2    1    2    0    0 -0.30144839321E+02  0.26028642100E+02  0.17245932360E+02  0.47787265787E+02  0.19999976028E+02 0.  0.
         12    1    1    2    0    0  0.30144839321E+02 -0.26028642100E+02 -0.17245932360E+02  0.43400734213E+02  0.00000000000E+00 0. -1.
         11    1    3    3    0    0 -0.43508385870E+01  0.75753606985E+01  0.45746290406E+01  0.98611924858E+01  0.51100000000E-03 0. -1.
        -11    1    3    3    0    0 -0.16191321888E+02  0.17754525570E+02  0.14586215311E+02  0.28109424755E+02  0.51100000000E-03 0.  1.
         12    1    3    3    0    0 -0.96026788468E+01  0.69875583171E+00 -0.19149119914E+01  0.98166485463E+01  0.00000000000E+00 0. -1.
</event>
<event>
 7    1  0.2599124E-010  0.4778727E+02  0.7816164E-02  0.1312668E+00
        -11   -1    0    0    0    0  0.00000000000E+00  0.00000000000E+00  0.45593999997E+02  0.45594000000E+02  0.51100000000E-03 0. -1.
         11   -1    0    0    0    0 -0.00000000000E+00 -0.00000000000E+00 -0.45593999997E+02  0.45594000000E+02  0.51100000000E-03 0.  1.
    9900012    2    1    2    0    0  0.38587808302E+02  0.10518258072E+02 -0.16851422031E+02  0.47787272738E+02  0.20000007721E+02 0.  0.
         12    1    1    2    0    0 -0.38587808302E+02 -0.10518258072E+02  0.16851422031E+02  0.43400727262E+02  0.00000000000E+00 0. -1.
         11    1    3    3    0    0  0.57104431662E+01 -0.21892084646E+01 -0.15019235060E+01  0.62974256117E+01  0.51100000000E-03 0. -1.
        -11    1    3    3    0    0  0.25144473847E+02  0.77672638711E+01 -0.35697704862E+01  0.26557827747E+02  0.51100000000E-03 0.  1.
         12    1    3    3    0    0  0.77328912894E+01  0.49402026655E+01 -0.11779728039E+02  0.14932019379E+02  0.00000000000E+00 0. -1.
</event>
<event>
 7    1  0.2599124E-010  0.4778727E+02  0.7816164E-02  0.1312668E+00
        -11   -1    0    0    0    0  0.00000000000E+00  0.00000000000E+00  0.45593999997E+02  0.45594000000E+02  0.51100000000E-03 0. -1.
         11   -1    0    0    0    0 -0.00000000000E+00 -0.00000000000E+00 -0.45593999997E+02  0.45594000000E+02  0.51100000000E-03 0.  1.
    9900012    2    1    2    0    0  0.39141030491E+02  0.18276872193E+02 -0.41903304995E+01  0.47787271956E+02  0.20000004155E+02 0.  0.
         12    1    1    2    0    0 -0.39141030491E+02 -0.18276872193E+02  0.41903304995E+01  0.43400728044E+02  0.00000000000E+00 0. -1.
         11    1    3    3    0    0  0.10082048577E+02  0.12373851494E+02  0.48993666634E+01  0.16696218083E+02  0.51100000000E-03 0. -1.
        -11    1    3    3    0    0  0.12193013467E+02  0.16331972095E+01 -0.30486412893E+01  0.12674033474E+02  0.51100000000E-03 0.  1.
         12    1    3    3    0    0  0.16865968447E+02  0.42698234896E+01 -0.60410558736E+01  0.18417020399E+02  0.00000000000E+00 0. -1.
</event>
<event>
 7    1  0.2599124E-010  0.4778727E+02  0.7816164E-02  0.1312668E+00
        -11   -1    0    0    0    0  0.00000000000E+00  0.00000000000E+00  0.45593999997E+02  0.45594000000E+02  0.51100000000E-03 0. -1.
         11   -1    0    0    0    0 -0.00000000000E+00 -0.00000000000E+00 -0.45593999997E+02  0.45594000000E+02  0.51100000000E-03 0.  1.
    9900012    2    1    2    0    0  0.66767399317E+01 -0.26295700163E+02 -0.33875957588E+02  0.47787271830E+02  0.20000003581E+02 0.  0.
         12    1    1    2    0    0 -0.66767399317E+01  0.26295700163E+02  0.33875957588E+02  0.43400728170E+02  0.00000000000E+00 0. -1.
         11    1    3    3    0    0  0.24536887318E+01 -0.80626332316E+01 -0.46195727772E+01  0.96107801933E+01  0.51100000000E-03 0. -1.
        -11    1    3    3    0    0 -0.25034448921E+01 -0.17173758130E+02 -0.17879631636E+02  0.24917592828E+02  0.51100000000E-03 0.  1.
         12    1    3    3    0    0  0.67264960920E+01 -0.10593088013E+01 -0.11376753174E+02  0.13258898808E+02  0.00000000000E+00 0. -1.
</event>
<event>
 7    1  0.2599124E-010  0.4778727E+02  0.7816164E-02  0.1312668E+00
        -11   -1    0    0    0    0  0.00000000000E+00  0.00000000000E+00  0.45593999997E+02  0.45594000000E+02  0.51100000000E-03 0.  1.
         11   -1    0    0    0    0 -0.00000000000E+00 -0.00000000000E+00 -0.45593999997E+02  0.45594000000E+02  0.51100000000E-03 0. -1.
    9900012    2    1    2    0    0  0.24193733600E+02 -0.25109452719E+02 -0.25841872320E+02  0.47787265831E+02  0.19999976231E+02 0.  0.
         12    1    1    2    0    0 -0.24193733600E+02  0.25109452719E+02  0.25841872320E+02  0.43400734169E+02  0.00000000000E+00 0. -1.
         11    1    3    3    0    0  0.16116248629E+01  0.23042415188E+00  0.14130868705E+01  0.21557469131E+01  0.51100000000E-03 0. -1.
        -11    1    3    3    0    0  0.12740545800E+02 -0.94222682943E+01 -0.51357383417E+01  0.16657624551E+02  0.51100000000E-03 0.  1.
         12    1    3    3    0    0  0.98415629375E+01 -0.15917608577E+02 -0.22119220849E+02  0.28973894368E+02  0.00000000000E+00 0. -1.
</event>
<event>
 7    1  0.2599124E-010  0.4778727E+02  0.7816164E-02  0.1312668E+00
        -11   -1    0    0    0    0  0.00000000000E+00  0.00000000000E+00  0.45593999997E+02  0.45594000000E+02  0.51100000000E-03 0. -1.
         11   -1    0    0    0    0 -0.00000000000E+00 -0.00000000000E+00 -0.45593999997E+02  0.45594000000E+02  0.51100000000E-03 0.  1.
    9900012    2    1    2    0    0 -0.96234418265E+01 -0.41956760884E+02  0.55356103582E+01  0.47787269609E+02  0.19999993455E+02 0.  0.
         12    1    1    2    0    0  0.96234418265E+01  0.41956760884E+02 -0.55356103582E+01  0.43400730391E+02  0.00000000000E+00 0. -1.
         11    1    3    3    0    0  0.17843332934E+00  0.96323693686E+00  0.11473183159E+01  0.15086429096E+01  0.51100000000E-03 0.  1.
        -11    1    3    3    0    0  0.29352539114E+01 -0.34575116102E+01 -0.31100116096E+00  0.45460778747E+01  0.51100000000E-03 0. -1.
        -12    1    3    3    0    0 -0.12737129067E+02 -0.39462486210E+02  0.46992932033E+01  0.41732548825E+02  0.00000000000E+00 0.  1.
</event>
<event>
 7    1  0.2599124E-010  0.4778726E+02  0.7816164E-02  0.1312668E+00
        -11   -1    0    0    0    0  0.00000000000E+00  0.00000000000E+00  0.45593999997E+02  0.45594000000E+02  0.51100000000E-03 0.  1.
         11   -1    0    0    0    0 -0.00000000000E+00 -0.00000000000E+00 -0.45593999997E+02  0.45594000000E+02  0.51100000000E-03 0. -1.
    9900012    2    1    2    0    0 -0.11193386259E+02  0.10168057424E+02  0.40680991082E+02  0.47787258957E+02  0.19999944888E+02 0.  0.
         12    1    1    2    0    0  0.11193386259E+02 -0.10168057424E+02 -0.40680991082E+02  0.43400741043E+02  0.00000000000E+00 0. -1.
         11    1    3    3    0    0  0.69045437303E+00 -0.29365807191E+01  0.48489517795E+01  0.57107413864E+01  0.51100000000E-03 0.  1.
        -11    1    3    3    0    0 -0.12585827165E+01  0.30256607465E+01  0.20921591085E+02  0.21176676491E+02  0.51100000000E-03 0. -1.
         12    1    3    3    0    0 -0.10625257915E+02  0.10078977396E+02  0.14910448217E+02  0.20899841080E+02  0.00000000000E+00 0. -1.
</event>
<event>
 7    1  0.2599124E-010  0.4778728E+02  0.7816164E-02  0.1312668E+00
        -11   -1    0    0    0    0  0.00000000000E+00  0.00000000000E+00  0.45593999997E+02  0.45594000000E+02  0.51100000000E-03 0. -1.
         11   -1    0    0    0    0 -0.00000000000E+00 -0.00000000000E+00 -0.45593999997E+02  0.45594000000E+02  0.51100000000E-03 0.  1.
    9900012    2    1    2    0    0  0.92270546620E+01  0.88711319620E+00 -0.42399261675E+02  0.47787275373E+02  0.20000019734E+02 0.  0.
         12    1    1    2    0    0 -0.92270546620E+01 -0.88711319620E+00  0.42399261675E+02  0.43400724627E+02  0.00000000000E+00 0. -1.
         11    1    3    3    0    0  0.70162693656E+01  0.15763123870E+01 -0.13813882291E+02  0.15573571869E+02  0.51100000000E-03 0. -1.
        -11    1    3    3    0    0  0.84115173885E+01  0.74030558236E+00 -0.15046129918E+02  0.17253628688E+02  0.51100000000E-03 0.  1.
         12    1    3    3    0    0 -0.62007320922E+01 -0.14295047732E+01 -0.13539249466E+02  0.14960074815E+02  0.00000000000E+00 0. -1.
</event>
<event>
 7    1  0.2599124E-010  0.4778726E+02  0.7816164E-02  0.1312668E+00
        -11   -1    0    0    0    0  0.00000000000E+00  0.00000000000E+00  0.45593999997E+02  0.45594000000E+02  0.51100000000E-03 0. -1.
         11   -1    0    0    0    0 -0.00000000000E+00 -0.00000000000E+00 -0.45593999997E+02  0.45594000000E+02  0.51100000000E-03 0.  1.
    9900012    2    1    2    0    0  0.89616546532E+01  0.40824505962E+02 -0.11690699432E+02  0.47787262743E+02  0.19999962153E+02 0.  0.
         12    1    1    2    0    0 -0.89616546532E+01 -0.40824505962E+02  0.11690699432E+02  0.43400737257E+02  0.00000000000E+00 0. -1.
         11    1    3    3    0    0 -0.41945125209E+01  0.74349802444E+01 -0.51965133025E+01  0.99938289603E+01  0.51100000000E-03 0. -1.
        -11    1    3    3    0    0  0.38261138890E+01  0.63255150315E+01 -0.53829048684E+01  0.91447773614E+01  0.51100000000E-03 0.  1.
        -12    1    3    3    0    0  0.93300532851E+01  0.27064010686E+02 -0.11112812614E+01  0.28648656422E+02  0.00000000000E+00 0.  1.
</event>
<event>
 7    1  0.2599124E-010  0.4778727E+02  0.7816164E-02  0.1312668E+00
        -11   -1    0    0    0    0  0.00000000000E+00  0.00000000000E+00  0.45593999997E+02  0.45594000000E+02  0.51100000000E-03 0. -1.
         11   -1    0    0    0    0 -0.00000000000E+00 -0.00000000000E+00 -0.45593999997E+02  0.45594000000E+02  0.51100000000E-03 0.  1.
    9900012    2    1    2    0    0 -0.17078616789E+02 -0.88227027994E+01 -0.38911490874E+02  0.47787270074E+02  0.19999995574E+02 0.  0.
         12    1    1    2    0    0  0.17078616789E+02  0.88227027994E+01  0.38911490874E+02  0.43400729926E+02  0.00000000000E+00 0. -1.
         11    1    3    3    0    0  0.19446544282E+01 -0.67627642392E+00 -0.86429983345E+00  0.22329453889E+01  0.51100000000E-03 0. -1.
        -11    1    3    3    0    0  0.10590996305E+01 -0.24650251067E+01 -0.11375171009E+02  0.11687281829E+02  0.51100000000E-03 0.  1.
        -12    1    3    3    0    0 -0.20082370848E+02 -0.56814012689E+01 -0.26672020031E+02  0.33867042856E+02  0.00000000000E+00 0.  1.
</event>
<event>
 7    1  0.2599124E-010  0.4778727E+02  0.7816164E-02  0.1312668E+00
        -11   -1    0    0    0    0  0.00000000000E+00  0.00000000000E+00  0.45593999997E+02  0.45594000000E+02  0.51100000000E-03 0.  1.
         11   -1    0    0    0    0 -0.00000000000E+00 -0.00000000000E+00 -0.45593999997E+02  0.45594000000E+02  0.51100000000E-03 0. -1.
    9900012    2    1    2    0    0 -0.73531779869E+01  0.39899666759E+02  0.15413319333E+02  0.47787273659E+02  0.20000011923E+02 0.  0.
         12    1    1    2    0    0  0.73531779869E+01 -0.39899666759E+02 -0.15413319333E+02  0.43400726341E+02  0.00000000000E+00 0. -1.
         11    1    3    3    0    0  0.44000532326E+01  0.79314656892E+01  0.48272979207E+01  0.10274795468E+02  0.51100000000E-03 0. -1.
        -11    1    3    3    0    0 -0.11623565545E+01  0.29325239507E+01 -0.24246879780E+01  0.39786783651E+01  0.51100000000E-03 0.  1.
        -12    1    3    3    0    0 -0.10590874665E+02  0.29035677119E+02  0.13010709391E+02  0.33533799827E+02  0.00000000000E+00 0.  1.
</event>
<event>
 7    1  0.2599124E-010  0.4778725E+02  0.7816164E-02  0.1312668E+00
        -11   -1    0    0    0    0  0.00000000000E+00  0.00000000000E+00  0.45593999997E+02  0.45594000000E+02  0.51100000000E-03 0. -1.
         11   -1    0    0    0    0 -0.00000000000E+00 -0.00000000000E+00 -0.45593999997E+02  0.45594000000E+02  0.51100000000E-03 0.  1.
    9900012    2    1    2    0    0 -0.18461721276E+02 -0.29757772013E+02 -0.25637179431E+02  0.47787249813E+02  0.19999903197E+02 0.  0.
         12    1    1    2    0    0  0.18461721276E+02  0.29757772013E+02  0.25637179431E+02  0.43400750187E+02  0.00000000000E+00 0. -1.
         11    1    3    3    0    0 -0.13739871437E+01 -0.29921949743E+00 -0.14278287597E+01  0.20040130256E+01  0.51100000000E-03 0. -1.
        -11    1    3    3    0    0  0.37447195204E+00  0.17192519145E+01 -0.48110350329E+01  0.51227058024E+01  0.51100000000E-03 0.  1.
        -12    1    3    3    0    0 -0.17462206084E+02 -0.31177804430E+02 -0.19398315638E+02  0.40660530985E+02  0.00000000000E+00 0.  1.
</event>
<event>
 7    1  0.2777286E-010  0.4778728E+02  0.7816164E-02  0.1312668E+00
        -11   -1    0    0    0    0  0.00000000000E+00  0.00000000000E+00  0.45593999997E+02  0.45594000000E+02  0.51100000000E-03 0. -1.
         11   -1    0    0    0    0 -0.00000000000E+00 -0.00000000000E+00 -0.45593999997E+02  0.45594000000E+02  0.51100000000E-03 0.  1.
    9900012    2    1    2    0    0 -0.13304871304E+02 -0.39926651652E+02 -0.10604957251E+02  0.47787283061E+02  0.20000054787E+02 0.  0.
         12    1    1    2    0    0  0.13304871304E+02  0.39926651652E+02  0.10604957251E+02  0.43400716939E+02  0.00000000000E+00 0. -1.
         11    1    3    3    0    0  0.87474379881E+00  0.67929974250E+00 -0.86250416261E+00  0.14037587205E+01  0.51100000000E-03 0. -1.
        -11    1    3    3    0    0 -0.12071085720E+02 -0.14857175567E+02 -0.70865704984E+01  0.20412404512E+02  0.51100000000E-03 0.  1.
        -12    1    3    3    0    0 -0.21085293826E+01 -0.25748775828E+02 -0.26558825897E+01  0.25971119828E+02  0.00000000000E+00 0.  1.
</event>
<event>
 7    1  0.2599124E-010  0.4778727E+02  0.7816164E-02  0.1312668E+00
        -11   -1    0    0    0    0  0.00000000000E+00  0.00000000000E+00  0.45593999997E+02  0.45594000000E+02  0.51100000000E-03 0.  1.
         11   -1    0    0    0    0 -0.00000000000E+00 -0.00000000000E+00 -0.45593999997E+02  0.45594000000E+02  0.51100000000E-03 0. -1.
    9900012    2    1    2    0    0  0.18119190207E+02 -0.34936556059E+01  0.39282473298E+02  0.47787269687E+02  0.19999993812E+02 0.  0.
         12    1    1    2    0    0 -0.18119190207E+02  0.34936556059E+01 -0.39282473298E+02  0.43400730313E+02  0.00000000000E+00 0. -1.
         11    1    3    3    0    0  0.10438048383E+02 -0.57223342262E+01  0.75229889437E+01  0.14081666306E+02  0.51100000000E-03 0. -1.
        -11    1    3    3    0    0  0.29227641184E+01  0.34167460215E+01  0.60798950715E+01  0.75618666881E+01  0.51100000000E-03 0.  1.
         12    1    3    3    0    0  0.47583777059E+01 -0.11880674012E+01  0.25679589283E+02  0.26143736693E+02  0.00000000000E+00 0. -1.
</event>
<event>
 7    1  0.2599124E-010  0.4778727E+02  0.7816164E-02  0.1312668E+00
        -11   -1    0    0    0    0  0.00000000000E+00  0.00000000000E+00  0.45593999997E+02  0.45594000000E+02  0.51100000000E-03 0.  1.
         11   -1    0    0    0    0 -0.00000000000E+00 -0.00000000000E+00 -0.45593999997E+02  0.45594000000E+02  0.51100000000E-03 0. -1.
    9900012    2    1    2    0    0 -0.32134439395E+02 -0.26255333315E+02 -0.12714490390E+02  0.47787274331E+02  0.20000014986E+02 0.  0.
         12    1    1    2    0    0  0.32134439395E+02  0.26255333315E+02  0.12714490390E+02  0.43400725669E+02  0.00000000000E+00 0. -1.
         11    1    3    3    0    0 -0.21022770934E+02 -0.16201442428E+02 -0.37416165196E+01  0.26803793182E+02  0.51100000000E-03 0.  1.
        -11    1    3    3    0    0 -0.12211097871E+02 -0.11339480220E+02 -0.62898359633E+01  0.17811702883E+02  0.51100000000E-03 0. -1.
         12    1    3    3    0    0  0.10994294105E+01  0.12855893330E+01 -0.26830379067E+01  0.31717782663E+01  0.00000000000E+00 0. -1.
</event>
<event>
 7    1  0.2599124E-010  0.4778727E+02  0.7816164E-02  0.1312668E+00
        -11   -1    0    0    0    0  0.00000000000E+00  0.00000000000E+00  0.45593999997E+02  0.45594000000E+02  0.51100000000E-03 0.  1.
         11   -1    0    0    0    0 -0.00000000000E+00 -0.00000000000E+00 -0.45593999997E+02  0.45594000000E+02  0.51100000000E-03 0. -1.
    9900012    2    1    2    0    0  0.26122080580E+02  0.34005994524E+02  0.66972183025E+01  0.47787268551E+02  0.19999988630E+02 0.  0.
         12    1    1    2    0    0 -0.26122080580E+02 -0.34005994524E+02 -0.66972183025E+01  0.43400731449E+02  0.00000000000E+00 0. -1.
         11    1    3    3    0    0  0.68738026228E+00  0.47410081530E+01  0.30330552751E+01  0.56700153875E+01  0.51100000000E-03 0. -1.
        -11    1    3    3    0    0  0.74861394845E+01  0.20385894029E+02 -0.22611308931E+00  0.21718151099E+02  0.51100000000E-03 0.  1.
         12    1    3    3    0    0  0.17948560833E+02  0.88790923411E+01  0.38902761168E+01  0.20399102064E+02  0.00000000000E+00 0. -1.
</event>
<event>
 7    1  0.2599124E-010  0.4778727E+02  0.7816164E-02  0.1312668E+00
        -11   -1    0    0    0    0  0.00000000000E+00  0.00000000000E+00  0.45593999997E+02  0.45594000000E+02  0.51100000000E-03 0.  1.
         11   -1    0    0    0    0 -0.00000000000E+00 -0.00000000000E+00 -0.45593999997E+02  0.45594000000E+02  0.51100000000E-03 0. -1.
    9900012    2    1    2    0    0 -0.42046158893E+02  0.10357377665E+02  0.29101066029E+01  0.47787268783E+02  0.19999989687E+02 0.  0.
         12    1    1    2    0    0  0.42046158893E+02 -0.10357377665E+02 -0.29101066029E+01  0.43400731217E+02  0.00000000000E+00 0. -1.
         11    1    3    3    0    0 -0.52045140662E+01  0.55093417877E+01 -0.44570070883E+01  0.87923106204E+01  0.51100000000E-03 0.  1.
        -11    1    3    3    0    0 -0.10259233163E+01 -0.70702503306E+00 -0.12241301338E+01  0.17466819670E+01  0.51100000000E-03 0. -1.
        -12    1    3    3    0    0 -0.35815721511E+02  0.55550609106E+01  0.85912438250E+01  0.37248276195E+02  0.00000000000E+00 0.  1.
</event>
<event>
 7    1  0.2599124E-010  0.4778727E+02  0.7816164E-02  0.1312668E+00
        -11   -1    0    0    0    0  0.00000000000E+00  0.00000000000E+00  0.45593999997E+02  0.45594000000E+02  0.51100000000E-03 0.  1.
         11   -1    0    0    0    0 -0.00000000000E+00 -0.00000000000E+00 -0.45593999997E+02  0.45594000000E+02  0.51100000000E-03 0. -1.
    9900012    2    1    2    0    0  0.25298743864E+02  0.10841135703E+02  0.33556916673E+02  0.47787270501E+02  0.19999997522E+02 0.  0.
         12    1    1    2    0    0 -0.25298743864E+02 -0.10841135703E+02 -0.33556916673E+02  0.43400729499E+02  0.00000000000E+00 0. -1.
         11    1    3    3    0    0  0.24672593196E+01 -0.16580592818E+01  0.93658133728E+01  0.98262398469E+01  0.51100000000E-03 0. -1.
        -11    1    3    3    0    0  0.15379216576E+00  0.53728622122E+01  0.32480387812E+01  0.62802115066E+01  0.51100000000E-03 0.  1.
        -12    1    3    3    0    0  0.22677692379E+02  0.71263327726E+01  0.20943064519E+02  0.31680819148E+02  0.00000000000E+00 0.  1.
</event>
<event>
 7    1  0.2599124E-010  0.4778728E+02  0.7816164E-02  0.1312668E+00
        -11   -1    0    0    0    0  0.00000000000E+00  0.00000000000E+00  0.45593999997E+02  0.45594000000E+02  0.51100000000E-03 0.  1.
         11   -1    0    0    0    0 -0.00000000000E+00 -0.00000000000E+00 -0.45593999997E+02  0.45594000000E+02  0.51100000000E-03 0. -1.
    9900012    2    1    2    0    0 -0.11193651461E+02  0.22499227645E+02  0.35385156414E+02  0.47787281433E+02  0.20000047367E+02 0.  0.
         12    1    1    2    0    0  0.11193651461E+02 -0.22499227645E+02 -0.35385156414E+02  0.43400718567E+02  0.00000000000E+00 0. -1.
         11    1    3    3    0    0  0.33346205632E+01 -0.39543430940E+00  0.37547812630E+01  0.50373053499E+01  0.51100000000E-03 0. -1.
        -11    1    3    3    0    0 -0.24770635117E-01 -0.13174770905E+00  0.38820121956E+01  0.38843261953E+01  0.51100000000E-03 0.  1.
        -12    1    3    3    0    0 -0.14503501389E+02  0.23026409664E+02  0.27748362955E+02  0.38865649888E+02  0.00000000000E+00 0.  1.
</event>
<event>
 7    1  0.2599124E-010  0.4778727E+02  0.7816164E-02  0.1312668E+00
        -11   -1    0    0    0    0  0.00000000000E+00  0.00000000000E+00  0.45593999997E+02  0.45594000000E+02  0.51100000000E-03 0.  1.
         11   -1    0    0    0    0 -0.00000000000E+00 -0.00000000000E+00 -0.45593999997E+02  0.45594000000E+02  0.51100000000E-03 0. -1.
    9900012    2    1    2    0    0  0.41389478379E+02 -0.12658963005E+02  0.32070347588E+01  0.47787270319E+02  0.19999996694E+02 0.  0.
         12    1    1    2    0    0 -0.41389478379E+02  0.12658963005E+02 -0.32070347588E+01  0.43400729681E+02  0.00000000000E+00 0. -1.
         11    1    3    3    0    0  0.20057591689E+01 -0.11710513370E+01 -0.10826557428E+01  0.25625328868E+01  0.51100000000E-03 0. -1.
        -11    1    3    3    0    0  0.37826535534E+02 -0.54638141314E+01  0.11052458984E+01  0.38235083681E+02  0.51100000000E-03 0.  1.
        -12    1    3    3    0    0  0.15571836765E+01 -0.60240975364E+01  0.31844446032E+01  0.69896537512E+01  0.00000000000E+00 0.  1.
</event>
<event>
 7    1  0.2599124E-010  0.4778727E+02  0.7816164E-02  0.1312668E+00
        -11   -1    0    0    0    0  0.00000000000E+00  0.00000000000E+00  0.45593999997E+02  0.45594000000E+02  0.51100000000E-03 0. -1.
         11   -1    0    0    0    0 -0.00000000000E+00 -0.00000000000E+00 -0.45593999997E+02  0.45594000000E+02  0.51100000000E-03 0.  1.
    9900012    2    1    2    0    0  0.17317355625E+02  0.39796134271E+02  0.13169280236E-01  0.47787270949E+02  0.19999999564E+02 0.  0.
         12    1    1    2    0    0 -0.17317355625E+02 -0.39796134271E+02 -0.13169280236E-01  0.43400729051E+02  0.00000000000E+00 0. -1.
         11    1    3    3    0    0  0.63506843279E+01  0.71591980473E+01  0.80390482954E+00  0.96037269510E+01  0.51100000000E-03 0. -1.
        -11    1    3    3    0    0  0.13079724319E+02  0.13741715870E+02  0.15122280548E+01  0.19031573169E+02  0.51100000000E-03 0.  1.
        -12    1    3    3    0    0 -0.21130530226E+01  0.18895220353E+02 -0.23029636041E+01  0.19151970829E+02  0.00000000000E+00 0.  1.
</event>
<event>
 7    1  0.2599124E-010  0.4778727E+02  0.7816164E-02  0.1312668E+00
        -11   -1    0    0    0    0  0.00000000000E+00  0.00000000000E+00  0.45593999997E+02  0.45594000000E+02  0.51100000000E-03 0.  1.
         11   -1    0    0    0    0 -0.00000000000E+00 -0.00000000000E+00 -0.45593999997E+02  0.45594000000E+02  0.51100000000E-03 0. -1.
    9900012    2    1    2    0    0  0.22342225009E+01 -0.20643455079E+00  0.43342688553E+02  0.47787274010E+02  0.20000013523E+02 0.  0.
         12    1    1    2    0    0 -0.22342225009E+01  0.20643455079E+00 -0.43342688553E+02  0.43400725990E+02  0.00000000000E+00 0. -1.
         11    1    3    3    0    0  0.20273534539E+01  0.22639436853E+01  0.17290300699E+01  0.34964479520E+01  0.51100000000E-03 0. -1.
        -11    1    3    3    0    0  0.20926032425E+01  0.60600447158E+01  0.18673572274E+02  0.19743490877E+02  0.51100000000E-03 0.  1.
         12    1    3    3    0    0 -0.18857341955E+01 -0.85304229519E+01  0.22940086209E+02  0.24547335181E+02  0.00000000000E+00 0. -1.
</event>
<event>
 7    1  0.2599124E-010  0.4778726E+02  0.7816164E-02  0.1312668E+00
        -11   -1    0    0    0    0  0.00000000000E+00  0.00000000000E+00  0.45593999997E+02  0.45594000000E+02  0.51100000000E-03 0.  1.
         11   -1    0    0    0    0 -0.00000000000E+00 -0.00000000000E+00 -0.45593999997E+02  0.45594000000E+02  0.51100000000E-03 0. -1.
    9900012    2    1    2    0    0 -0.28413425073E+02  0.31372594022E+02 -0.95948728264E+01  0.47787263087E+02  0.19999963719E+02 0.  0.
         12    1    1    2    0    0  0.28413425073E+02 -0.31372594022E+02  0.95948728264E+01  0.43400736913E+02  0.00000000000E+00 0. -1.
         11    1    3    3    0    0 -0.16842500148E+02  0.82832447458E+01 -0.65400369159E+01  0.19875966338E+02  0.51100000000E-03 0.  1.
        -11    1    3    3    0    0 -0.98433751587E+01  0.98145782012E+01  0.96589618261E+00  0.13933805492E+02  0.51100000000E-03 0. -1.
         12    1    3    3    0    0 -0.17275497664E+01  0.13274771075E+02 -0.40207320931E+01  0.13977491257E+02  0.00000000000E+00 0. -1.
</event>
<event>
 7    1  0.2599124E-010  0.4778727E+02  0.7816164E-02  0.1312668E+00
        -11   -1    0    0    0    0  0.00000000000E+00  0.00000000000E+00  0.45593999997E+02  0.45594000000E+02  0.51100000000E-03 0. -1.
         11   -1    0    0    0    0 -0.00000000000E+00 -0.00000000000E+00 -0.45593999997E+02  0.45594000000E+02  0.51100000000E-03 0.  1.
    9900012    2    1    2    0    0 -0.15071865069E+01 -0.42750487514E+02 -0.73312636939E+01  0.47787271652E+02  0.20000002769E+02 0.  0.
         12    1    1    2    0    0  0.15071865069E+01  0.42750487514E+02  0.73312636939E+01  0.43400728348E+02  0.00000000000E+00 0. -1.
         11    1    3    3    0    0 -0.33491501271E+01 -0.28060918861E+02 -0.47327221325E+01  0.28653632108E+02  0.51100000000E-03 0. -1.
        -11    1    3    3    0    0  0.45773119857E+01 -0.14690042827E+02 -0.42186560594E+01  0.15954504144E+02  0.51100000000E-03 0.  1.
         12    1    3    3    0    0 -0.27353483654E+01  0.47417480262E-03  0.16201144980E+01  0.31791354000E+01  0.00000000000E+00 0. -1.
</event>
<event>
 7    1  0.2599124E-010  0.4778727E+02  0.7816164E-02  0.1312668E+00
        -11   -1    0    0    0    0  0.00000000000E+00  0.00000000000E+00  0.45593999997E+02  0.45594000000E+02  0.51100000000E-03 0.  1.
         11   -1    0    0    0    0 -0.00000000000E+00 -0.00000000000E+00 -0.45593999997E+02  0.45594000000E+02  0.51100000000E-03 0. -1.
    9900012    2    1    2    0    0 -0.22189609758E+02 -0.15321114582E+02  0.34007469979E+02  0.47787270195E+02  0.19999996125E+02 0.  0.
         12    1    1    2    0    0  0.22189609758E+02  0.15321114582E+02 -0.34007469979E+02  0.43400729805E+02  0.00000000000E+00 0. -1.
         11    1    3    3    0    0 -0.48068016457E+01 -0.22133326649E+01 -0.12693500958E+01  0.54420063831E+01  0.51100000000E-03 0. -1.
        -11    1    3    3    0    0 -0.77949582592E+01 -0.24118566476E+01  0.75410200552E+01  0.11110599016E+02  0.51100000000E-03 0.  1.
        -12    1    3    3    0    0 -0.95878498535E+01 -0.10695925269E+02  0.27735800020E+02  0.31234664796E+02  0.00000000000E+00 0.  1.
</event>
<event>
 7    1  0.2599124E-010  0.4778727E+02  0.7816164E-02  0.1312668E+00
        -11   -1    0    0    0    0  0.00000000000E+00  0.00000000000E+00  0.45593999997E+02  0.45594000000E+02  0.51100000000E-03 0.  1.
         11   -1    0    0    0    0 -0.00000000000E+00 -0.00000000000E+00 -0.45593999997E+02  0.45594000000E+02  0.51100000000E-03 0. -1.
    9900012    2    1    2    0    0  0.12036202717E+02 -0.18473285350E+02  0.37383029442E+02  0.47787270309E+02  0.19999996647E+02 0.  0.
         12    1    1    2    0    0 -0.12036202717E+02  0.18473285350E+02 -0.37383029442E+02  0.43400729691E+02  0.00000000000E+00 0. -1.
         11    1    3    3    0    0  0.17540217419E+01 -0.13681120608E+02  0.29101184298E+02  0.32204480762E+02  0.51100000000E-03 0. -1.
        -11    1    3    3    0    0  0.62739317953E+01 -0.39554502819E+01  0.87397764577E+01  0.11462613136E+02  0.51100000000E-03 0.  1.
         12    1    3    3    0    0  0.40082491794E+01 -0.83671445998E+00 -0.45793131345E+00  0.41201764113E+01  0.00000000000E+00 0. -1.
</event>
<event>
 7    1  0.2599124E-010  0.4778728E+02  0.7816164E-02  0.1312668E+00
        -11   -1    0    0    0    0  0.00000000000E+00  0.00000000000E+00  0.45593999997E+02  0.45594000000E+02  0.51100000000E-03 0.  1.
         11   -1    0    0    0    0 -0.00000000000E+00 -0.00000000000E+00 -0.45593999997E+02  0.45594000000E+02  0.51100000000E-03 0. -1.
    9900012    2    1    2    0    0 -0.31771579277E+02 -0.17330553421E+02  0.23954982503E+02  0.47787279749E+02  0.20000039686E+02 0.  0.
         12    1    1    2    0    0  0.31771579277E+02  0.17330553421E+02 -0.23954982503E+02  0.43400720251E+02  0.00000000000E+00 0. -1.
         11    1    3    3    0    0 -0.95743618959E+01 -0.70681136723E+01  0.17866940170E+02  0.21467514711E+02  0.51100000000E-03 0. -1.
        -11    1    3    3    0    0 -0.21253111115E+01 -0.34373051855E+01 -0.60826285561E+00  0.40868078278E+01  0.51100000000E-03 0.  1.
        -12    1    3    3    0    0 -0.20071906269E+02 -0.68251345635E+01  0.66963051891E+01  0.22232957209E+02  0.00000000000E+00 0.  1.
</event>
<event>
 7    1  0.2599124E-010  0.4778728E+02  0.7816164E-02  0.1312668E+00
        -11   -1    0    0    0    0  0.00000000000E+00  0.00000000000E+00  0.45593999997E+02  0.45594000000E+02  0.51100000000E-03 0.  1.
         11   -1    0    0    0    0 -0.00000000000E+00 -0.00000000000E+00 -0.45593999997E+02  0.45594000000E+02  0.51100000000E-03 0. -1.
    9900012    2    1    2    0    0  0.71823627952E+01  0.36018493372E+02  0.23123670923E+02  0.47787281607E+02  0.20000048158E+02 0.  0.
         12    1    1    2    0    0 -0.71823627952E+01 -0.36018493372E+02 -0.23123670923E+02  0.43400718393E+02  0.00000000000E+00 0. -1.
         11    1    3    3    0    0  0.16365335687E+01  0.48671650576E+01  0.65582581938E+01  0.83293630379E+01  0.51100000000E-03 0. -1.
        -11    1    3    3    0    0  0.10290760849E+02  0.28097519747E+02  0.15559072924E+02  0.33726178635E+02  0.51100000000E-03 0.  1.
        -12    1    3    3    0    0 -0.47449316229E+01  0.30538085672E+01  0.10063398054E+01  0.57317399343E+01  0.00000000000E+00 0.  1.
</event>
<event>
 7    1  0.2599124E-010  0.4778727E+02  0.7816164E-02  0.1312668E+00
        -11   -1    0    0    0    0  0.00000000000E+00  0.00000000000E+00  0.45593999997E+02  0.45594000000E+02  0.51100000000E-03 0.  1.
         11   -1    0    0    0    0 -0.00000000000E+00 -0.00000000000E+00 -0.45593999997E+02  0.45594000000E+02  0.51100000000E-03 0. -1.
    9900012    2    1    2    0    0  0.10598675906E+02 -0.22491002813E+02  0.35573108791E+02  0.47787271809E+02  0.20000003486E+02 0.  0.
         12    1    1    2    0    0 -0.10598675906E+02  0.22491002813E+02 -0.35573108791E+02  0.43400728191E+02  0.00000000000E+00 0. -1.
         11    1    3    3    0    0  0.88846214752E+01 -0.88057676687E+01  0.43417715126E+01  0.13241186621E+02  0.51100000000E-03 0. -1.
        -11    1    3    3    0    0  0.82163866686E-01  0.13308268315E-01 -0.20213313841E+00  0.21860026935E+00  0.51100000000E-03 0.  1.
        -12    1    3    3    0    0  0.16318905638E+01 -0.13698543412E+02  0.31433470417E+02  0.34327484919E+02  0.00000000000E+00 0.  1.
</event>
<event>
 7    1  0.2599124E-010  0.4778727E+02  0.7816164E-02  0.1312668E+00
        -11   -1    0    0    0    0  0.00000000000E+00  0.00000000000E+00  0.45593999997E+02  0.45594000000E+02  0.51100000000E-03 0.  1.
         11   -1    0    0    0    0 -0.00000000000E+00 -0.00000000000E+00 -0.45593999997E+02  0.45594000000E+02  0.51100000000E-03 0. -1.
    9900012    2    1    2    0    0 -0.87595959337E+01 -0.42229292667E+02  0.48558745959E+01  0.47787271917E+02  0.20000003979E+02 0.  0.
         12    1    1    2    0    0  0.87595959337E+01  0.42229292667E+02 -0.48558745959E+01  0.43400728083E+02  0.00000000000E+00 0. -1.
         11    1    3    3    0    0 -0.16826058180E+01 -0.29427520264E+02 -0.25329876012E+01  0.29584221092E+02  0.51100000000E-03 0. -1.
        -11    1    3    3    0    0  0.50026308579E-03 -0.77810629427E+01  0.21735984096E+01  0.80789523502E+01  0.51100000000E-03 0.  1.
        -12    1    3    3    0    0 -0.70774903789E+01 -0.50207094603E+01  0.52152637874E+01  0.10124098474E+02  0.00000000000E+00 0.  1.
</event>
<event>
 7    1  0.2599124E-010  0.4778727E+02  0.7816164E-02  0.1312668E+00
        -11   -1    0    0    0    0  0.00000000000E+00  0.00000000000E+00  0.45593999997E+02  0.45594000000E+02  0.51100000000E-03 0.  1.
         11   -1    0    0    0    0 -0.00000000000E+00 -0.00000000000E+00 -0.45593999997E+02  0.45594000000E+02  0.51100000000E-03 0. -1.
    9900012    2    1    2    0    0 -0.39189818311E+01 -0.10159044099E+02  0.42012601360E+02  0.47787271105E+02  0.20000000276E+02 0.  0.
         12    1    1    2    0    0  0.39189818311E+01  0.10159044099E+02 -0.42012601360E+02  0.43400728895E+02  0.00000000000E+00 0. -1.
         11    1    3    3    0    0  0.29726258035E+01 -0.35421812759E+01  0.20481466641E+01  0.50575149409E+01  0.51100000000E-03 0. -1.
        -11    1    3    3    0    0  0.24205709721E+01  0.87532964105E+00  0.12737699634E+02  0.12995166718E+02  0.51100000000E-03 0.  1.
         12    1    3    3    0    0 -0.93121786066E+01 -0.74921924637E+01  0.27226755062E+02  0.29734589446E+02  0.00000000000E+00 0. -1.
</event>
<event>
 7    1  0.2599124E-010  0.4778727E+02  0.7816164E-02  0.1312668E+00
        -11   -1    0    0    0    0  0.00000000000E+00  0.00000000000E+00  0.45593999997E+02  0.45594000000E+02  0.51100000000E-03 0.  1.
         11   -1    0    0    0    0 -0.00000000000E+00 -0.00000000000E+00 -0.45593999997E+02  0.45594000000E+02  0.51100000000E-03 0. -1.
    9900012    2    1    2    0    0  0.29674356797E+02  0.26876169539E+02 -0.16754918551E+02  0.47787271480E+02  0.20000001988E+02 0.  0.
         12    1    1    2    0    0 -0.29674356797E+02 -0.26876169539E+02  0.16754918551E+02  0.43400728520E+02  0.00000000000E+00 0. -1.
         11    1    3    3    0    0  0.81631936320E+01  0.13478084009E+02 -0.92232980430E+01  0.18258305121E+02  0.51100000000E-03 0. -1.
        -11    1    3    3    0    0  0.19547820703E+02  0.15834114446E+02 -0.79263525336E+01  0.26375434390E+02  0.51100000000E-03 0.  1.
        -12    1    3    3    0    0  0.19633424624E+01 -0.24360289169E+01  0.39473202608E+00  0.31535319693E+01  0.00000000000E+00 0.  1.
</event>
<event>
 7    1  0.2599124E-010  0.4778727E+02  0.7816164E-02  0.1312668E+00
        -11   -1    0    0    0    0  0.00000000000E+00  0.00000000000E+00  0.45593999997E+02  0.45594000000E+02  0.51100000000E-03 0.  1.
         11   -1    0    0    0    0 -0.00000000000E+00 -0.00000000000E+00 -0.45593999997E+02  0.45594000000E+02  0.51100000000E-03 0. -1.
    9900012    2    1    2    0    0  0.26940844323E+01  0.37915358548E+02  0.20947335153E+02  0.47787270112E+02  0.19999995751E+02 0.  0.
         12    1    1    2    0    0 -0.26940844323E+01 -0.37915358548E+02 -0.20947335153E+02  0.43400729888E+02  0.00000000000E+00 0. -1.
         11    1    3    3    0    0  0.36683556200E+01  0.20829169662E+02  0.11561071194E+02  0.24103309092E+02  0.51100000000E-03 0. -1.
        -11    1    3    3    0    0  0.78677156314E+00  0.96992049029E+01  0.12182168112E+02  0.15591626131E+02  0.51100000000E-03 0.  1.
        -12    1    3    3    0    0 -0.17610427509E+01  0.73869839826E+01 -0.27959041526E+01  0.80923348893E+01  0.00000000000E+00 0.  1.
</event>
<event>
 7    1  0.2599124E-010  0.4778727E+02  0.7816164E-02  0.1312668E+00
        -11   -1    0    0    0    0  0.00000000000E+00  0.00000000000E+00  0.45593999997E+02  0.45594000000E+02  0.51100000000E-03 0. -1.
         11   -1    0    0    0    0 -0.00000000000E+00 -0.00000000000E+00 -0.45593999997E+02  0.45594000000E+02  0.51100000000E-03 0.  1.
    9900012    2    1    2    0    0  0.74649953063E+01  0.41895143921E+02 -0.85260880519E+01  0.47787269401E+02  0.19999992508E+02 0.  0.
         12    1    1    2    0    0 -0.74649953063E+01 -0.41895143921E+02  0.85260880519E+01  0.43400730599E+02  0.00000000000E+00 0. -1.
         11    1    3    3    0    0 -0.39622113916E+01  0.21634093921E+01  0.71019680464E+00  0.45698839233E+01  0.51100000000E-03 0. -1.
        -11    1    3    3    0    0 -0.13156895121E+01  0.63627465805E+01 -0.12629757162E+01  0.66189644855E+01  0.51100000000E-03 0.  1.
        -12    1    3    3    0    0  0.12742896210E+02  0.33368987948E+02 -0.79733091403E+01  0.36598420992E+02  0.00000000000E+00 0.  1.
</event>
<event>
 7    1  0.2599124E-010  0.4778727E+02  0.7816164E-02  0.1312668E+00
        -11   -1    0    0    0    0  0.00000000000E+00  0.00000000000E+00  0.45593999997E+02  0.45594000000E+02  0.51100000000E-03 0. -1.
         11   -1    0    0    0    0 -0.00000000000E+00 -0.00000000000E+00 -0.45593999997E+02  0.45594000000E+02  0.51100000000E-03 0.  1.
    9900012    2    1    2    0    0 -0.34871973608E+02 -0.22474946189E+02 -0.12745412710E+02  0.47787270805E+02  0.19999998908E+02 0.  0.
         12    1    1    2    0    0  0.34871973608E+02  0.22474946189E+02  0.12745412710E+02  0.43400729195E+02  0.00000000000E+00 0. -1.
         11    1    3    3    0    0 -0.40553910313E+01 -0.27173147289E+01 -0.60728725655E+01  0.77916479136E+01  0.51100000000E-03 0. -1.
        -11    1    3    3    0    0 -0.19614792648E+02 -0.17362057625E+02 -0.10044088563E+02  0.28054676097E+02  0.51100000000E-03 0.  1.
         12    1    3    3    0    0 -0.11201789928E+02 -0.23955738352E+01  0.33715484185E+01  0.11940946794E+02  0.00000000000E+00 0. -1.
</event>
<event>
 7    1  0.2599124E-010  0.4778727E+02  0.7816164E-02  0.1312668E+00
        -11   -1    0    0    0    0  0.00000000000E+00  0.00000000000E+00  0.45593999997E+02  0.45594000000E+02  0.51100000000E-03 0. -1.
         11   -1    0    0    0    0 -0.00000000000E+00 -0.00000000000E+00 -0.45593999997E+02  0.45594000000E+02  0.51100000000E-03 0.  1.
    9900012    2    1    2    0    0  0.37936571132E+02  0.14602133519E+02 -0.15205838886E+02  0.47787271103E+02  0.20000000268E+02 0.  0.
         12    1    1    2    0    0 -0.37936571132E+02 -0.14602133519E+02  0.15205838886E+02  0.43400728897E+02  0.00000000000E+00 0. -1.
         11    1    3    3    0    0  0.10832031266E+02  0.64093111837E+01 -0.74195465870E+01  0.14610333433E+02  0.51100000000E-03 0. -1.
        -11    1    3    3    0    0  0.20444327345E+02  0.67053264489E+01 -0.12499617625E+02  0.24883174323E+02  0.51100000000E-03 0.  1.
         12    1    3    3    0    0  0.66602125203E+01  0.14874958865E+01  0.47133253258E+01  0.82937633469E+01  0.00000000000E+00 0. -1.
</event>
<event>
 7    1  0.2599124E-010  0.4778727E+02  0.7816164E-02  0.1312668E+00
        -11   -1    0    0    0    0  0.00000000000E+00  0.00000000000E+00  0.45593999997E+02  0.45594000000E+02  0.51100000000E-03 0.  1.
         11   -1    0    0    0    0 -0.00000000000E+00 -0.00000000000E+00 -0.45593999997E+02  0.45594000000E+02  0.51100000000E-03 0. -1.
    9900012    2    1    2    0    0 -0.17612811570E+02 -0.20081491234E+02  0.34207393887E+02  0.47787271686E+02  0.20000002927E+02 0.  0.
         12    1    1    2    0    0  0.17612811570E+02  0.20081491234E+02 -0.34207393887E+02  0.43400728314E+02  0.00000000000E+00 0. -1.
         11    1    3    3    0    0 -0.11547194214E+02 -0.15990005086E+02  0.19902800410E+02  0.28020339422E+02  0.51100000000E-03 0.  1.
        -11    1    3    3    0    0  0.39147018641E+00 -0.63424807345E+01  0.94215964826E+01  0.11364276982E+02  0.51100000000E-03 0. -1.
        -12    1    3    3    0    0 -0.64570875425E+01  0.22509945867E+01  0.48829969945E+01  0.84026552833E+01  0.00000000000E+00 0.  1.
</event>
<event>
 7    1  0.2599124E-010  0.4778727E+02  0.7816164E-02  0.1312668E+00
        -11   -1    0    0    0    0  0.00000000000E+00  0.00000000000E+00  0.45593999997E+02  0.45594000000E+02  0.51100000000E-03 0. -1.
         11   -1    0    0    0    0 -0.00000000000E+00 -0.00000000000E+00 -0.45593999997E+02  0.45594000000E+02  0.51100000000E-03 0.  1.
    9900012    2    1    2    0    0  0.26408725414E+02 -0.14921501006E+02 -0.31041122403E+02  0.47787271316E+02  0.20000001240E+02 0.  0.
         12    1    1    2    0    0 -0.26408725414E+02  0.14921501006E+02  0.31041122403E+02  0.43400728684E+02  0.00000000000E+00 0. -1.
         11    1    3    3    0    0  0.21459375537E+02 -0.88969306873E+01 -0.15294862646E+02  0.27813539827E+02  0.51100000000E-03 0. -1.
        -11    1    3    3    0    0  0.64810361246E+01 -0.75260100109E+01 -0.11349012251E+02  0.15081271010E+02  0.51100000000E-03 0.  1.
        -12    1    3    3    0    0 -0.15316862484E+01  0.15014396926E+01 -0.43972475059E+01  0.48924604794E+01  0.00000000000E+00 0.  1.
</event>
<event>
 7    1  0.2599124E-010  0.4778727E+02  0.7816164E-02  0.1312668E+00
        -11   -1    0    0    0    0  0.00000000000E+00  0.00000000000E+00  0.45593999997E+02  0.45594000000E+02  0.51100000000E-03 0.  1.
         11   -1    0    0    0    0 -0.00000000000E+00 -0.00000000000E+00 -0.45593999997E+02  0.45594000000E+02  0.51100000000E-03 0. -1.
    9900012    2    1    2    0    0 -0.40856104017E+02  0.14419856963E+02  0.25436759815E+01  0.47787265008E+02  0.19999972480E+02 0.  0.
         12    1    1    2    0    0  0.40856104017E+02 -0.14419856963E+02 -0.25436759815E+01  0.43400734992E+02  0.00000000000E+00 0. -1.
         11    1    3    3    0    0 -0.55904289310E+01 -0.84776823776E+00 -0.68547846070E+00  0.56957429365E+01  0.51100000000E-03 0.  1.
        -11    1    3    3    0    0 -0.25574657179E+02  0.55281387596E+01  0.82937563496E+01  0.27448311471E+02  0.51100000000E-03 0. -1.
         12    1    3    3    0    0 -0.96910179073E+01  0.97394864413E+01 -0.50646019075E+01  0.14643210601E+02  0.00000000000E+00 0. -1.
</event>
<event>
 7    1  0.2599124E-010  0.4778727E+02  0.7816164E-02  0.1312668E+00
        -11   -1    0    0    0    0  0.00000000000E+00  0.00000000000E+00  0.45593999997E+02  0.45594000000E+02  0.51100000000E-03 0.  1.
         11   -1    0    0    0    0 -0.00000000000E+00 -0.00000000000E+00 -0.45593999997E+02  0.45594000000E+02  0.51100000000E-03 0. -1.
    9900012    2    1    2    0    0 -0.34198402490E+02  0.19040178072E+02  0.18750049974E+02  0.47787268578E+02  0.19999988757E+02 0.  0.
         12    1    1    2    0    0  0.34198402490E+02 -0.19040178072E+02 -0.18750049974E+02  0.43400731422E+02  0.00000000000E+00 0. -1.
         11    1    3    3    0    0  0.71503405569E+00  0.30679191182E+00  0.29657669816E+00  0.83267819533E+00  0.51100000000E-03 0. -1.
        -11    1    3    3    0    0 -0.29252272048E+02  0.21654276413E+02  0.13259443333E+02  0.38735202912E+02  0.51100000000E-03 0.  1.
        -12    1    3    3    0    0 -0.56611644983E+01 -0.29208902525E+01  0.51940299431E+01  0.82193874707E+01  0.00000000000E+00 0.  1.
</event>
<event>
 7    1  0.2599124E-010  0.4778727E+02  0.7816164E-02  0.1312668E+00
        -11   -1    0    0    0    0  0.00000000000E+00  0.00000000000E+00  0.45593999997E+02  0.45594000000E+02  0.51100000000E-03 0. -1.
         11   -1    0    0    0    0 -0.00000000000E+00 -0.00000000000E+00 -0.45593999997E+02  0.45594000000E+02  0.51100000000E-03 0.  1.
    9900012    2    1    2    0    0  0.43257422103E+02  0.11449598672E+01  0.33328246323E+01  0.47787271663E+02  0.20000002821E+02 0.  0.
         12    1    1    2    0    0 -0.43257422103E+02 -0.11449598672E+01 -0.33328246323E+01  0.43400728337E+02  0.00000000000E+00 0. -1.
         11    1    3    3    0    0  0.22625907425E+02 -0.80328391005E+00  0.34183614692E+01  0.22896771546E+02  0.51100000000E-03 0. -1.
        -11    1    3    3    0    0  0.77118741677E+01  0.40882655262E+01  0.58550455181E+01  0.10510398493E+02  0.51100000000E-03 0.  1.
        -12    1    3    3    0    0  0.12919640511E+02 -0.21400217489E+01 -0.59405823549E+01  0.14380101624E+02  0.00000000000E+00 0.  1.
</event>
<event>
 7    1  0.2599124E-010  0.4778727E+02  0.7816164E-02  0.1312668E+00
        -11   -1    0    0    0    0  0.00000000000E+00  0.00000000000E+00  0.45593999997E+02  0.45594000000E+02  0.51100000000E-03 0.  1.
         11   -1    0    0    0    0 -0.00000000000E+00 -0.00000000000E+00 -0.45593999997E+02  0.45594000000E+02  0.51100000000E-03 0. -1.
    9900012    2    1    2    0    0 -0.16977595842E+02  0.39300870005E+02  0.71292517302E+01  0.47787269891E+02  0.19999994742E+02 0.  0.
         12    1    1    2    0    0  0.16977595842E+02 -0.39300870005E+02 -0.71292517302E+01  0.43400730109E+02  0.00000000000E+00 0. -1.
         11    1    3    3    0    0 -0.87537438215E+01  0.97434324203E+01  0.46992546535E+01  0.13915656678E+02  0.51100000000E-03 0. -1.
        -11    1    3    3    0    0 -0.24341154821E+01  0.15249270108E+02  0.80878968765E+01  0.17432132203E+02  0.51100000000E-03 0.  1.
         12    1    3    3    0    0 -0.57897365381E+01  0.14308167477E+02 -0.56578997998E+01  0.16439481010E+02  0.00000000000E+00 0. -1.
</event>
<event>
 7    1  0.2599124E-010  0.4778728E+02  0.7816164E-02  0.1312668E+00
        -11   -1    0    0    0    0  0.00000000000E+00  0.00000000000E+00  0.45593999997E+02  0.45594000000E+02  0.51100000000E-03 0. -1.
         11   -1    0    0    0    0 -0.00000000000E+00 -0.00000000000E+00 -0.45593999997E+02  0.45594000000E+02  0.51100000000E-03 0.  1.
    9900012    2    1    2    0    0 -0.23929018204E+02 -0.28456320370E+02 -0.22388893102E+02  0.47787278629E+02  0.20000034581E+02 0.  0.
         12    1    1    2    0    0  0.23929018204E+02  0.28456320370E+02  0.22388893102E+02  0.43400721371E+02  0.00000000000E+00 0. -1.
         11    1    3    3    0    0  0.17540233437E+01 -0.63459393584E+01 -0.18900539799E+01  0.68498064599E+01  0.51100000000E-03 0. -1.
        -11    1    3    3    0    0 -0.48543122204E+01 -0.75157924644E+01 -0.12341012018E+01  0.90318596944E+01  0.51100000000E-03 0.  1.
        -12    1    3    3    0    0 -0.20828729327E+02 -0.14594588547E+02 -0.19264737921E+02  0.31905612475E+02  0.00000000000E+00 0.  1.
</event>
<event>
 7    1  0.2599124E-010  0.4778727E+02  0.7816164E-02  0.1312668E+00
        -11   -1    0    0    0    0  0.00000000000E+00  0.00000000000E+00  0.45593999997E+02  0.45594000000E+02  0.51100000000E-03 0. -1.
         11   -1    0    0    0    0 -0.00000000000E+00 -0.00000000000E+00 -0.45593999997E+02  0.45594000000E+02  0.51100000000E-03 0.  1.
    9900012    2    1    2    0    0  0.39985117229E+02  0.16874366035E+02  0.26292080109E+00  0.47787274704E+02  0.20000016685E+02 0.  0.
         12    1    1    2    0    0 -0.39985117229E+02 -0.16874366035E+02 -0.26292080109E+00  0.43400725296E+02  0.00000000000E+00 0. -1.
         11    1    3    3    0    0  0.76562443397E+01  0.40515416963E+01 -0.43387161810E+01  0.96880093862E+01  0.51100000000E-03 0. -1.
        -11    1    3    3    0    0  0.27922293955E+02  0.11091281247E+02 -0.18446866878E+01  0.30101061255E+02  0.51100000000E-03 0.  1.
         12    1    3    3    0    0  0.44065789334E+01  0.17315430917E+01  0.64463236699E+01  0.79982040629E+01  0.00000000000E+00 0. -1.
</event>
<event>
 7    1  0.2599124E-010  0.4778727E+02  0.7816164E-02  0.1312668E+00
        -11   -1    0    0    0    0  0.00000000000E+00  0.00000000000E+00  0.45593999997E+02  0.45594000000E+02  0.51100000000E-03 0.  1.
         11   -1    0    0    0    0 -0.00000000000E+00 -0.00000000000E+00 -0.45593999997E+02  0.45594000000E+02  0.51100000000E-03 0. -1.
    9900012    2    1    2    0    0 -0.88438363181E+01 -0.13566856052E+02  0.40265989774E+02  0.47787274701E+02  0.20000016673E+02 0.  0.
         12    1    1    2    0    0  0.88438363181E+01  0.13566856052E+02 -0.40265989774E+02  0.43400725299E+02  0.00000000000E+00 0. -1.
         11    1    3    3    0    0  0.12839908402E+01  0.47180169859E+00  0.91569798972E+01  0.92585911682E+01  0.51100000000E-03 0. -1.
        -11    1    3    3    0    0 -0.32907915391E+01 -0.91545970808E+01  0.27877939697E+02  0.29526521615E+02  0.51100000000E-03 0.  1.
         12    1    3    3    0    0 -0.68370356192E+01 -0.48840606702E+01  0.32310701794E+01  0.90021619177E+01  0.00000000000E+00 0. -1.
</event>
<event>
 7    1  0.2599124E-010  0.4778728E+02  0.7816164E-02  0.1312668E+00
        -11   -1    0    0    0    0  0.00000000000E+00  0.00000000000E+00  0.45593999997E+02  0.45594000000E+02  0.51100000000E-03 0.  1.
         11   -1    0    0    0    0 -0.00000000000E+00 -0.00000000000E+00 -0.45593999997E+02  0.45594000000E+02  0.51100000000E-03 0. -1.
    9900012    2    1    2    0    0  0.41253071239E+01 -0.18783957345E+02  0.38907167188E+02  0.47787275685E+02  0.20000021160E+02 0.  0.
         12    1    1    2    0    0 -0.41253071239E+01  0.18783957345E+02 -0.38907167188E+02  0.43400724315E+02  0.00000000000E+00 0. -1.
         11    1    3    3    0    0  0.36217445924E+01 -0.43460487467E+01  0.34504233255E+01  0.66265069975E+01  0.51100000000E-03 0. -1.
        -11    1    3    3    0    0  0.73362932110E+01 -0.58680012214E+01  0.11756852438E+02  0.15049193198E+02  0.51100000000E-03 0.  1.
        -12    1    3    3    0    0 -0.68327306795E+01 -0.85699073770E+01  0.23699891425E+02  0.26111575489E+02  0.00000000000E+00 0.  1.
</event>
<event>
 7    1  0.2599124E-010  0.4778727E+02  0.7816164E-02  0.1312668E+00
        -11   -1    0    0    0    0  0.00000000000E+00  0.00000000000E+00  0.45593999997E+02  0.45594000000E+02  0.51100000000E-03 0. -1.
         11   -1    0    0    0    0 -0.00000000000E+00 -0.00000000000E+00 -0.45593999997E+02  0.45594000000E+02  0.51100000000E-03 0.  1.
    9900012    2    1    2    0    0  0.42846886554E+02 -0.25159974391E+01  0.64371613753E+01  0.47787274464E+02  0.20000015591E+02 0.  0.
         12    1    1    2    0    0 -0.42846886554E+02  0.25159974391E+01 -0.64371613753E+01  0.43400725536E+02  0.00000000000E+00 0. -1.
         11    1    3    3    0    0  0.44060254550E+01 -0.13653356246E+01 -0.29062810697E+01  0.54519420022E+01  0.51100000000E-03 0. -1.
        -11    1    3    3    0    0  0.13497659858E+02 -0.74700660352E+01  0.51551200154E+01  0.16265422553E+02  0.51100000000E-03 0.  1.
         12    1    3    3    0    0  0.24943201241E+02  0.63194042207E+01  0.41883224296E+01  0.26069909908E+02  0.00000000000E+00 0. -1.
</event>
<event>
 7    1  0.2599124E-010  0.4778727E+02  0.7816164E-02  0.1312668E+00
        -11   -1    0    0    0    0  0.00000000000E+00  0.00000000000E+00  0.45593999997E+02  0.45594000000E+02  0.51100000000E-03 0.  1.
         11   -1    0    0    0    0 -0.00000000000E+00 -0.00000000000E+00 -0.45593999997E+02  0.45594000000E+02  0.51100000000E-03 0. -1.
    9900012    2    1    2    0    0  0.17611608511E+02  0.29780384219E+01  0.39554845471E+02  0.47787271118E+02  0.20000000337E+02 0.  0.
         12    1    1    2    0    0 -0.17611608511E+02 -0.29780384219E+01 -0.39554845471E+02  0.43400728882E+02  0.00000000000E+00 0. -1.
         11    1    3    3    0    0  0.51160994140E+01  0.16008650000E+01  0.77801108910E+01  0.94481409653E+01  0.51100000000E-03 0. -1.
        -11    1    3    3    0    0  0.50396056851E+01 -0.59609885983E+01  0.24188088951E+02  0.25416424963E+02  0.51100000000E-03 0.  1.
        -12    1    3    3    0    0  0.74559034122E+01  0.73381620203E+01  0.75866456289E+01  0.12922705190E+02  0.00000000000E+00 0.  1.
</event>
<event>
 7    1  0.2599124E-010  0.4778724E+02  0.7816164E-02  0.1312668E+00
        -11   -1    0    0    0    0  0.00000000000E+00  0.00000000000E+00  0.45593999997E+02  0.45594000000E+02  0.51100000000E-03 0. -1.
         11   -1    0    0    0    0 -0.00000000000E+00 -0.00000000000E+00 -0.45593999997E+02  0.45594000000E+02  0.51100000000E-03 0.  1.
    9900012    2    1    2    0    0  0.82433351820E+01 -0.32288393880E+02 -0.27805271736E+02  0.47787238594E+02  0.19999852046E+02 0.  0.
         12    1    1    2    0    0 -0.82433351820E+01  0.32288393880E+02  0.27805271736E+02  0.43400761406E+02  0.00000000000E+00 0. -1.
         11    1    3    3    0    0 -0.37781272916E+01 -0.72800115033E+01 -0.80069587735E+01  0.11462294813E+02  0.51100000000E-03 0. -1.
        -11    1    3    3    0    0  0.47478040274E+01 -0.16826208191E+02 -0.18241734681E+02  0.25267049879E+02  0.51100000000E-03 0.  1.
         12    1    3    3    0    0  0.72736584462E+01 -0.81821741858E+01 -0.15565782815E+01  0.11057893902E+02  0.00000000000E+00 0. -1.
</event>
<event>
 7    1  0.2599124E-010  0.4778724E+02  0.7816164E-02  0.1312668E+00
        -11   -1    0    0    0    0  0.00000000000E+00  0.00000000000E+00  0.45593999997E+02  0.45594000000E+02  0.51100000000E-03 0.  1.
         11   -1    0    0    0    0 -0.00000000000E+00 -0.00000000000E+00 -0.45593999997E+02  0.45594000000E+02  0.51100000000E-03 0. -1.
    9900012    2    1    2    0    0 -0.22559551254E+02  0.36419623146E+01  0.36897540399E+02  0.47787242751E+02  0.19999870998E+02 0.  0.
         12    1    1    2    0    0  0.22559551254E+02 -0.36419623146E+01 -0.36897540399E+02  0.43400757249E+02  0.00000000000E+00 0. -1.
         11    1    3    3    0    0 -0.22672492458E+01  0.34628447361E+01  0.36434945086E+01  0.55142329751E+01  0.51100000000E-03 0. -1.
        -11    1    3    3    0    0 -0.79766567826E+01  0.81133837970E+01  0.12998169716E+02  0.17274445470E+02  0.51100000000E-03 0.  1.
        -12    1    3    3    0    0 -0.12315645225E+02 -0.79342662184E+01  0.20255876175E+02  0.24998564306E+02  0.00000000000E+00 0.  1.
</event>
<event>
 7    1  0.2599124E-010  0.4778728E+02  0.7816164E-02  0.1312668E+00
        -11   -1    0    0    0    0  0.00000000000E+00  0.00000000000E+00  0.45593999997E+02  0.45594000000E+02  0.51100000000E-03 0.  1.
         11   -1    0    0    0    0 -0.00000000000E+00 -0.00000000000E+00 -0.45593999997E+02  0.45594000000E+02  0.51100000000E-03 0. -1.
    9900012    2    1    2    0    0 -0.32691980932E+02 -0.20360046893E+02  0.20008132949E+02  0.47787279835E+02  0.20000040079E+02 0.  0.
         12    1    1    2    0    0  0.32691980932E+02  0.20360046893E+02 -0.20008132949E+02  0.43400720165E+02  0.00000000000E+00 0. -1.
         11    1    3    3    0    0 -0.18084127365E+01 -0.26145583139E+01  0.18808374643E+01  0.36937544085E+01  0.51100000000E-03 0. -1.
        -11    1    3    3    0    0 -0.14795513388E+02 -0.97483776999E+01  0.19161258758E+02  0.26097737865E+02  0.51100000000E-03 0.  1.
         12    1    3    3    0    0 -0.16088054808E+02 -0.79971108794E+01 -0.10339632740E+01  0.17995787562E+02  0.00000000000E+00 0. -1.
</event>
<event>
 7    1  0.2599124E-010  0.4778727E+02  0.7816164E-02  0.1312668E+00
        -11   -1    0    0    0    0  0.00000000000E+00  0.00000000000E+00  0.45593999997E+02  0.45594000000E+02  0.51100000000E-03 0. -1.
         11   -1    0    0    0    0 -0.00000000000E+00 -0.00000000000E+00 -0.45593999997E+02  0.45594000000E+02  0.51100000000E-03 0.  1.
    9900012    2    1    2    0    0  0.87658254341E-01 -0.29400785023E+02 -0.31925061245E+02  0.47787269828E+02  0.19999994454E+02 0.  0.
         12    1    1    2    0    0 -0.87658254341E-01  0.29400785023E+02  0.31925061245E+02  0.43400730172E+02  0.00000000000E+00 0. -1.
         11    1    3    3    0    0  0.31332776087E+01 -0.38595664008E+00 -0.38172738113E+01  0.49535816046E+01  0.51100000000E-03 0. -1.
        -11    1    3    3    0    0 -0.23773240272E-01 -0.14193981016E+02 -0.46768327563E+01  0.14944645434E+02  0.51100000000E-03 0.  1.
        -12    1    3    3    0    0 -0.30218461141E+01 -0.14820847367E+02 -0.23430954678E+02  0.27889042789E+02  0.00000000000E+00 0.  1.
</event>
<event>
 7    1  0.2599124E-010  0.4778727E+02  0.7816164E-02  0.1312668E+00
        -11   -1    0    0    0    0  0.00000000000E+00  0.00000000000E+00  0.45593999997E+02  0.45594000000E+02  0.51100000000E-03 0.  1.
         11   -1    0    0    0    0 -0.00000000000E+00 -0.00000000000E+00 -0.45593999997E+02  0.45594000000E+02  0.51100000000E-03 0. -1.
    9900012    2    1    2    0    0  0.23461844512E+02  0.82819864735E+01  0.35560847179E+02  0.47787270744E+02  0.19999998629E+02 0.  0.
         12    1    1    2    0    0 -0.23461844512E+02 -0.82819864735E+01 -0.35560847179E+02  0.43400729256E+02  0.00000000000E+00 0. -1.
         11    1    3    3    0    0  0.31096060215E+00 -0.17270757882E+01  0.11502473369E+02  0.11635565356E+02  0.51100000000E-03 0. -1.
        -11    1    3    3    0    0  0.14909608859E+02  0.13504467393E+01  0.12176298928E+02  0.19297212197E+02  0.51100000000E-03 0.  1.
        -12    1    3    3    0    0  0.82412750509E+01  0.86586155224E+01  0.11882074882E+02  0.16854493191E+02  0.00000000000E+00 0.  1.
</event>
<event>
 7    1  0.2599124E-010  0.4778727E+02  0.7816164E-02  0.1312668E+00
        -11   -1    0    0    0    0  0.00000000000E+00  0.00000000000E+00  0.45593999997E+02  0.45594000000E+02  0.51100000000E-03 0.  1.
         11   -1    0    0    0    0 -0.00000000000E+00 -0.00000000000E+00 -0.45593999997E+02  0.45594000000E+02  0.51100000000E-03 0. -1.
    9900012    2    1    2    0    0  0.45491888926E+01 -0.28304450847E+02  0.32585056039E+02  0.47787274955E+02  0.20000017831E+02 0.  0.
         12    1    1    2    0    0 -0.45491888926E+01  0.28304450847E+02 -0.32585056039E+02  0.43400725045E+02  0.00000000000E+00 0. -1.
         11    1    3    3    0    0  0.63598895034E+01 -0.17068567316E+02  0.17281202327E+02  0.25108248422E+02  0.51100000000E-03 0. -1.
        -11    1    3    3    0    0  0.19303953478E+01 -0.11377502580E+02  0.68171833954E+01  0.13403282466E+02  0.51100000000E-03 0.  1.
        -12    1    3    3    0    0 -0.37410959586E+01  0.14161904878E+00  0.84866703169E+01  0.92757440669E+01  0.00000000000E+00 0.  1.
</event>
<event>
 7    1  0.2599124E-010  0.4778727E+02  0.7816164E-02  0.1312668E+00
        -11   -1    0    0    0    0  0.00000000000E+00  0.00000000000E+00  0.45593999997E+02  0.45594000000E+02  0.51100000000E-03 0. -1.
         11   -1    0    0    0    0 -0.00000000000E+00 -0.00000000000E+00 -0.45593999997E+02  0.45594000000E+02  0.51100000000E-03 0.  1.
    9900012    2    1    2    0    0 -0.39514381584E+02 -0.17410072590E+02 -0.43733579891E+01  0.47787271439E+02  0.20000001797E+02 0.  0.
         12    1    1    2    0    0  0.39514381584E+02  0.17410072590E+02  0.43733579891E+01  0.43400728561E+02  0.00000000000E+00 0. -1.
         11    1    3    3    0    0 -0.13744087163E+02 -0.10908601922E+02 -0.24230461749E+01  0.17713516897E+02  0.51100000000E-03 0. -1.
        -11    1    3    3    0    0 -0.18681085252E+02 -0.10925885631E+02 -0.17925805620E+01  0.21715691754E+02  0.51100000000E-03 0.  1.
         12    1    3    3    0    0 -0.70892091697E+01  0.44244149633E+01 -0.15773125225E+00  0.83580627880E+01  0.00000000000E+00 0. -1.
</event>
<event>
 7    1  0.2599124E-010  0.4778727E+02  0.7816164E-02  0.1312668E+00
        -11   -1    0    0    0    0  0.00000000000E+00  0.00000000000E+00  0.45593999997E+02  0.45594000000E+02  0.51100000000E-03 0.  1.
         11   -1    0    0    0    0 -0.00000000000E+00 -0.00000000000E+00 -0.45593999997E+02  0.45594000000E+02  0.51100000000E-03 0. -1.
    9900012    2    1    2    0    0 -0.30181593201E+02 -0.13967421781E+02  0.27885588790E+02  0.47787268421E+02  0.19999988041E+02 0.  0.
         12    1    1    2    0    0  0.30181593201E+02  0.13967421781E+02 -0.27885588790E+02  0.43400731579E+02  0.00000000000E+00 0. -1.
         11    1    3    3    0    0 -0.55804655643E+01  0.29286662179E+01  0.39296434816E+01  0.74270303543E+01  0.51100000000E-03 0. -1.
        -11    1    3    3    0    0 -0.14293242015E+02 -0.21462528658E+01  0.11584296506E+02  0.18522934283E+02  0.51100000000E-03 0.  1.
        -12    1    3    3    0    0 -0.10307885622E+02 -0.14749835133E+02  0.12371648803E+02  0.21837303784E+02  0.00000000000E+00 0.  1.
</event>
<event>
 7    1  0.2599124E-010  0.4778727E+02  0.7816164E-02  0.1312668E+00
        -11   -1    0    0    0    0  0.00000000000E+00  0.00000000000E+00  0.45593999997E+02  0.45594000000E+02  0.51100000000E-03 0.  1.
         11   -1    0    0    0    0 -0.00000000000E+00 -0.00000000000E+00 -0.45593999997E+02  0.45594000000E+02  0.51100000000E-03 0. -1.
    9900012    2    1    2    0    0  0.66086231713E+01 -0.20998510650E+02  0.37403369491E+02  0.47787269603E+02  0.19999993426E+02 0.  0.
         12    1    1    2    0    0 -0.66086231713E+01  0.20998510650E+02 -0.37403369491E+02  0.43400730397E+02  0.00000000000E+00 0. -1.
         11    1    3    3    0    0  0.47099399085E+00  0.32689352388E+01  0.20368826891E+01  0.38802917783E+01  0.51100000000E-03 0. -1.
        -11    1    3    3    0    0 -0.13185040036E+01 -0.70842678981E+01  0.11444759123E+02  0.13524341615E+02  0.51100000000E-03 0.  1.
        -12    1    3    3    0    0  0.74561331840E+01 -0.17183177991E+02  0.23921727678E+02  0.30382636210E+02  0.00000000000E+00 0.  1.
</event>
<event>
 7    1  0.2599124E-010  0.4778727E+02  0.7816164E-02  0.1312668E+00
        -11   -1    0    0    0    0  0.00000000000E+00  0.00000000000E+00  0.45593999997E+02  0.45594000000E+02  0.51100000000E-03 0. -1.
         11   -1    0    0    0    0 -0.00000000000E+00 -0.00000000000E+00 -0.45593999997E+02  0.45594000000E+02  0.51100000000E-03 0.  1.
    9900012    2    1    2    0    0  0.41393893700E+02  0.11513238061E+02 -0.61330298794E+01  0.47787272566E+02  0.20000006937E+02 0.  0.
         12    1    1    2    0    0 -0.41393893700E+02 -0.11513238061E+02  0.61330298794E+01  0.43400727434E+02  0.00000000000E+00 0. -1.
         11    1    3    3    0    0  0.30199766054E+02 -0.86152806093E+00 -0.15575576904E+01  0.30252174906E+02  0.51100000000E-03 0. -1.
        -11    1    3    3    0    0  0.47295112249E+01  0.33709930572E+01 -0.10366785007E+01  0.58997095854E+01  0.51100000000E-03 0.  1.
         12    1    3    3    0    0  0.64646164214E+01  0.90037730647E+01 -0.35387936884E+01  0.11635388075E+02  0.00000000000E+00 0. -1.
</event>
<event>
 7    1  0.2599124E-010  0.4778727E+02  0.7816164E-02  0.1312668E+00
        -11   -1    0    0    0    0  0.00000000000E+00  0.00000000000E+00  0.45593999997E+02  0.45594000000E+02  0.51100000000E-03 0.  1.
         11   -1    0    0    0    0 -0.00000000000E+00 -0.00000000000E+00 -0.45593999997E+02  0.45594000000E+02  0.51100000000E-03 0. -1.
    9900012    2    1    2    0    0 -0.22368197005E+02  0.68273896786E+01  0.36560548282E+02  0.47787272152E+02  0.20000005050E+02 0.  0.
         12    1    1    2    0    0  0.22368197005E+02 -0.68273896786E+01 -0.36560548282E+02  0.43400727848E+02  0.00000000000E+00 0. -1.
         11    1    3    3    0    0 -0.10777132667E+01  0.63539839730E+01  0.57444715908E+01  0.86332805082E+01  0.51100000000E-03 0. -1.
        -11    1    3    3    0    0  0.10815331657E+01 -0.70630908645E+00  0.40420094364E+01  0.42433980557E+01  0.51100000000E-03 0.  1.
         12    1    3    3    0    0 -0.22372016904E+02  0.11797147921E+01  0.26774067255E+02  0.34910593588E+02  0.00000000000E+00 0. -1.
</event>
<event>
 7    1  0.2599124E-010  0.4778727E+02  0.7816164E-02  0.1312668E+00
        -11   -1    0    0    0    0  0.00000000000E+00  0.00000000000E+00  0.45593999997E+02  0.45594000000E+02  0.51100000000E-03 0.  1.
         11   -1    0    0    0    0 -0.00000000000E+00 -0.00000000000E+00 -0.45593999997E+02  0.45594000000E+02  0.51100000000E-03 0. -1.
    9900012    2    1    2    0    0  0.28742654057E+02  0.24087833634E+02  0.21846267843E+02  0.47787270627E+02  0.19999998099E+02 0.  0.
         12    1    1    2    0    0 -0.28742654057E+02 -0.24087833634E+02 -0.21846267843E+02  0.43400729373E+02  0.00000000000E+00 0. -1.
         11    1    3    3    0    0  0.30194472791E+01  0.26403961298E+01 -0.27113150494E+01  0.48414856348E+01  0.51100000000E-03 0. -1.
        -11    1    3    3    0    0 -0.81075109108E-01  0.39788033920E+01  0.38105995131E+01  0.55098201891E+01  0.51100000000E-03 0.  1.
        -12    1    3    3    0    0  0.25804281887E+02  0.17468634112E+02  0.20746983379E+02  0.37435964804E+02  0.00000000000E+00 0.  1.
</event>
<event>
 7    1  0.2599124E-010  0.4778727E+02  0.7816164E-02  0.1312668E+00
        -11   -1    0    0    0    0  0.00000000000E+00  0.00000000000E+00  0.45593999997E+02  0.45594000000E+02  0.51100000000E-03 0.  1.
         11   -1    0    0    0    0 -0.00000000000E+00 -0.00000000000E+00 -0.45593999997E+02  0.45594000000E+02  0.51100000000E-03 0. -1.
    9900012    2    1    2    0    0  0.11464458928E+02  0.28865822204E+02  0.30314248637E+02  0.47787272121E+02  0.20000004909E+02 0.  0.
         12    1    1    2    0    0 -0.11464458928E+02 -0.28865822204E+02 -0.30314248637E+02  0.43400727879E+02  0.00000000000E+00 0. -1.
         11    1    3    3    0    0  0.12317494935E+01  0.20631416879E+02  0.11572464556E+02  0.23687433491E+02  0.51100000000E-03 0.  1.
        -11    1    3    3    0    0  0.36742469538E+01  0.56761219858E+01  0.14184705821E+02  0.15713826108E+02  0.51100000000E-03 0. -1.
         12    1    3    3    0    0  0.65584624802E+01  0.25582833392E+01  0.45570782595E+01  0.83860125215E+01  0.00000000000E+00 0. -1.
</event>
<event>
 7    1  0.3360376E-010  0.4778728E+02  0.7816164E-02  0.1312668E+00
        -11   -1    0    0    0    0  0.00000000000E+00  0.00000000000E+00  0.45593999997E+02  0.45594000000E+02  0.51100000000E-03 0.  1.
         11   -1    0    0    0    0 -0.00000000000E+00 -0.00000000000E+00 -0.45593999997E+02  0.45594000000E+02  0.51100000000E-03 0. -1.
    9900012    2    1    2    0    0 -0.39519613126E+02  0.41875912560E+01  0.17443827053E+02  0.47787275993E+02  0.20000022561E+02 0.  0.
         12    1    1    2    0    0  0.39519613126E+02 -0.41875912560E+01 -0.17443827053E+02  0.43400724007E+02  0.00000000000E+00 0. -1.
         11    1    3    3    0    0  0.39224134536E+00  0.91685715325E-01  0.28790092473E+01  0.29070524678E+01  0.51100000000E-03 0. -1.
        -11    1    3    3    0    0 -0.24389402394E+02  0.20846031414E+00  0.15419413229E+02  0.28855583678E+02  0.51100000000E-03 0.  1.
        -12    1    3    3    0    0 -0.15522452077E+02  0.38874452265E+01 -0.85459542369E+00  0.16024639847E+02  0.00000000000E+00 0.  1.
</event>
<event>
 7    1  0.2599124E-010  0.4778728E+02  0.7816164E-02  0.1312668E+00
        -11   -1    0    0    0    0  0.00000000000E+00  0.00000000000E+00  0.45593999997E+02  0.45594000000E+02  0.51100000000E-03 0. -1.
         11   -1    0    0    0    0 -0.00000000000E+00 -0.00000000000E+00 -0.45593999997E+02  0.45594000000E+02  0.51100000000E-03 0.  1.
    9900012    2    1    2    0    0  0.24824582600E+02  0.26821702945E+02  0.23408528789E+02  0.47787275695E+02  0.20000021203E+02 0.  0.
         12    1    1    2    0    0 -0.24824582600E+02 -0.26821702945E+02 -0.23408528789E+02  0.43400724305E+02  0.00000000000E+00 0. -1.
         11    1    3    3    0    0  0.15315870492E+02  0.12063867126E+02  0.10081371779E+02  0.21948731994E+02  0.51100000000E-03 0. -1.
        -11    1    3    3    0    0  0.31464978987E+01  0.13005925895E+01 -0.24141461446E+01  0.41737383697E+01  0.51100000000E-03 0.  1.
         12    1    3    3    0    0  0.63622142091E+01  0.13457243230E+02  0.15741303155E+02  0.21664805331E+02  0.00000000000E+00 0. -1.
</event>
<event>
 7    1  0.2599124E-010  0.4778727E+02  0.7816164E-02  0.1312668E+00
        -11   -1    0    0    0    0  0.00000000000E+00  0.00000000000E+00  0.45593999997E+02  0.45594000000E+02  0.51100000000E-03 0. -1.
         11   -1    0    0    0    0 -0.00000000000E+00 -0.00000000000E+00 -0.45593999997E+02  0.45594000000E+02  0.51100000000E-03 0.  1.
    9900012    2    1    2    0    0 -0.42787879870E+02  0.56211823786E+01  0.46068553952E+01  0.47787268765E+02  0.19999989606E+02 0.  0.
         12    1    1    2    0    0  0.42787879870E+02 -0.56211823786E+01 -0.46068553952E+01  0.43400731235E+02  0.00000000000E+00 0. -1.
         11    1    3    3    0    0 -0.35436551615E+01 -0.12253846079E+01  0.51892686175E+00  0.37852800016E+01  0.51100000000E-03 0. -1.
        -11    1    3    3    0    0 -0.14791122830E+00 -0.23065855312E+01  0.30606960665E+01  0.38353715878E+01  0.51100000000E-03 0.  1.
        -12    1    3    3    0    0 -0.39096313480E+02  0.91531525178E+01  0.10272324670E+01  0.40166617175E+02  0.00000000000E+00 0.  1.
</event>
<event>
 7    1  0.2599124E-010  0.4778727E+02  0.7816164E-02  0.1312668E+00
        -11   -1    0    0    0    0  0.00000000000E+00  0.00000000000E+00  0.45593999997E+02  0.45594000000E+02  0.51100000000E-03 0.  1.
         11   -1    0    0    0    0 -0.00000000000E+00 -0.00000000000E+00 -0.45593999997E+02  0.45594000000E+02  0.51100000000E-03 0. -1.
    9900012    2    1    2    0    0 -0.56214901098E+01  0.29414488088E+01  0.42934485387E+02  0.47787270656E+02  0.19999998228E+02 0.  0.
         12    1    1    2    0    0  0.56214901098E+01 -0.29414488088E+01 -0.42934485387E+02  0.43400729344E+02  0.00000000000E+00 0. -1.
         11    1    3    3    0    0 -0.22355720116E+01 -0.46716426513E+01  0.13474563140E+02  0.14435576863E+02  0.51100000000E-03 0. -1.
        -11    1    3    3    0    0 -0.62543981792E+01 -0.10355817451E+01  0.96427057036E+01  0.11540004319E+02  0.51100000000E-03 0.  1.
        -12    1    3    3    0    0  0.28684800810E+01  0.86486732052E+01  0.19817216543E+02  0.21811689474E+02  0.00000000000E+00 0.  1.
</event>
<event>
 7    1  0.2599124E-010  0.4778727E+02  0.7816164E-02  0.1312668E+00
        -11   -1    0    0    0    0  0.00000000000E+00  0.00000000000E+00  0.45593999997E+02  0.45594000000E+02  0.51100000000E-03 0.  1.
         11   -1    0    0    0    0 -0.00000000000E+00 -0.00000000000E+00 -0.45593999997E+02  0.45594000000E+02  0.51100000000E-03 0. -1.
    9900012    2    1    2    0    0  0.14428327856E+02  0.97809069798E+01  0.39746452870E+02  0.47787270723E+02  0.19999998534E+02 0.  0.
         12    1    1    2    0    0 -0.14428327856E+02 -0.97809069798E+01 -0.39746452870E+02  0.43400729277E+02  0.00000000000E+00 0. -1.
         11    1    3    3    0    0 -0.36114484258E+01  0.14279799235E+01  0.55354066500E+01  0.67618350642E+01  0.51100000000E-03 0. -1.
        -11    1    3    3    0    0  0.39660514377E+01  0.68896338902E+00  0.99629295643E+00  0.41469066151E+01  0.51100000000E-03 0.  1.
        -12    1    3    3    0    0  0.14073724844E+02  0.76639636673E+01  0.33214753263E+02  0.36878529044E+02  0.00000000000E+00 0.  1.
</event>
<event>
 7    1  0.2599124E-010  0.4778727E+02  0.7816164E-02  0.1312668E+00
        -11   -1    0    0    0    0  0.00000000000E+00  0.00000000000E+00  0.45593999997E+02  0.45594000000E+02  0.51100000000E-03 0.  1.
         11   -1    0    0    0    0 -0.00000000000E+00 -0.00000000000E+00 -0.45593999997E+02  0.45594000000E+02  0.51100000000E-03 0. -1.
    9900012    2    1    2    0    0 -0.33226670653E+01  0.42323423616E+02  0.90172642532E+01  0.47787270079E+02  0.19999995600E+02 0.  0.
         12    1    1    2    0    0  0.33226670653E+01 -0.42323423616E+02 -0.90172642532E+01  0.43400729921E+02  0.00000000000E+00 0. -1.
         11    1    3    3    0    0 -0.94328681369E+00 -0.89926389520E-01  0.12717571562E+01  0.15859518574E+01  0.51100000000E-03 0. -1.
        -11    1    3    3    0    0 -0.91928595721E+01  0.20645777029E+02  0.20549161859E+01  0.22693158816E+02  0.51100000000E-03 0.  1.
         12    1    3    3    0    0  0.68134793205E+01  0.21767572977E+02  0.56905909111E+01  0.23508159406E+02  0.00000000000E+00 0. -1.
</event>
<event>
 7    1  0.2599124E-010  0.4778729E+02  0.7816164E-02  0.1312668E+00
        -11   -1    0    0    0    0  0.00000000000E+00  0.00000000000E+00  0.45593999997E+02  0.45594000000E+02  0.51100000000E-03 0. -1.
         11   -1    0    0    0    0 -0.00000000000E+00 -0.00000000000E+00 -0.45593999997E+02  0.45594000000E+02  0.51100000000E-03 0.  1.
    9900012    2    1    2    0    0  0.99110360362E+01  0.40727024343E+02 -0.11256229403E+02  0.47787287477E+02  0.20000074922E+02 0.  0.
         12    1    1    2    0    0 -0.99110360362E+01 -0.40727024343E+02  0.11256229403E+02  0.43400712523E+02  0.00000000000E+00 0. -1.
         11    1    3    3    0    0  0.33263917096E+00  0.23498808917E+02 -0.99670457242E+01  0.25527370998E+02  0.51100000000E-03 0. -1.
        -11    1    3    3    0    0  0.30071208613E+01  0.14247946849E+02  0.12386714615E+01  0.14614413178E+02  0.51100000000E-03 0.  1.
        -12    1    3    3    0    0  0.65712760040E+01  0.29802685764E+01 -0.25278551402E+01  0.76455033005E+01  0.00000000000E+00 0.  1.
</event>
<event>
 7    1  0.2599124E-010  0.4778724E+02  0.7816164E-02  0.1312668E+00
        -11   -1    0    0    0    0  0.00000000000E+00  0.00000000000E+00  0.45593999997E+02  0.45594000000E+02  0.51100000000E-03 0.  1.
         11   -1    0    0    0    0 -0.00000000000E+00 -0.00000000000E+00 -0.45593999997E+02  0.45594000000E+02  0.51100000000E-03 0. -1.
    9900012    2    1    2    0    0 -0.12490927233E+02 -0.96308729928E+01  0.40433261543E+02  0.47787244053E+02  0.19999876935E+02 0.  0.
         12    1    1    2    0    0  0.12490927233E+02  0.96308729928E+01 -0.40433261543E+02  0.43400755947E+02  0.00000000000E+00 0. -1.
         11    1    3    3    0    0 -0.73614137891E-01  0.19211766604E+01  0.43237884533E+01  0.47319642488E+01  0.51100000000E-03 0. -1.
        -11    1    3    3    0    0 -0.11192491926E+02 -0.81813894901E+01  0.11018107566E+02  0.17708915949E+02  0.51100000000E-03 0.  1.
        -12    1    3    3    0    0 -0.12248211692E+01 -0.33706601631E+01  0.25091365524E+02  0.25346363855E+02  0.00000000000E+00 0.  1.
</event>
<event>
 7    1  0.2599124E-010  0.4778727E+02  0.7816164E-02  0.1312668E+00
        -11   -1    0    0    0    0  0.00000000000E+00  0.00000000000E+00  0.45593999997E+02  0.45594000000E+02  0.51100000000E-03 0.  1.
         11   -1    0    0    0    0 -0.00000000000E+00 -0.00000000000E+00 -0.45593999997E+02  0.45594000000E+02  0.51100000000E-03 0. -1.
    9900012    2    1    2    0    0 -0.17717669502E+02  0.13810803397E+02  0.37134474698E+02  0.47787270581E+02  0.19999997886E+02 0.  0.
         12    1    1    2    0    0  0.17717669502E+02 -0.13810803397E+02 -0.37134474698E+02  0.43400729419E+02  0.00000000000E+00 0. -1.
         11    1    3    3    0    0  0.76961323894E-01  0.69835759369E+00 -0.13773686543E+01  0.15462118371E+01  0.51100000000E-03 0. -1.
        -11    1    3    3    0    0 -0.88164564269E+00  0.78234684744E+01  0.12009245131E+02  0.14359872105E+02  0.51100000000E-03 0.  1.
        -12    1    3    3    0    0 -0.16912985183E+02  0.52889773292E+01  0.26502598221E+02  0.31881186638E+02  0.00000000000E+00 0.  1.
</event>
<event>
 7    1  0.2599124E-010  0.4778727E+02  0.7816164E-02  0.1312668E+00
        -11   -1    0    0    0    0  0.00000000000E+00  0.00000000000E+00  0.45593999997E+02  0.45594000000E+02  0.51100000000E-03 0. -1.
         11   -1    0    0    0    0 -0.00000000000E+00 -0.00000000000E+00 -0.45593999997E+02  0.45594000000E+02  0.51100000000E-03 0.  1.
    9900012    2    1    2    0    0 -0.21972936451E+01  0.28696057405E+02 -0.32485869440E+02  0.47787268172E+02  0.19999986905E+02 0.  0.
         12    1    1    2    0    0  0.21972936451E+01 -0.28696057405E+02  0.32485869440E+02  0.43400731828E+02  0.00000000000E+00 0. -1.
         11    1    3    3    0    0  0.18340468040E+01  0.48337370507E+01 -0.57203944661E+00  0.52015354410E+01  0.51100000000E-03 0. -1.
        -11    1    3    3    0    0 -0.62489867295E+01  0.13655579119E+02 -0.92676987497E+01  0.17646952049E+02  0.51100000000E-03 0.  1.
        -12    1    3    3    0    0  0.22176462803E+01  0.10206741235E+02 -0.22646131243E+02  0.24938780683E+02  0.00000000000E+00 0.  1.
</event>
<event>
 7    1  0.2599124E-010  0.4778727E+02  0.7816164E-02  0.1312668E+00
        -11   -1    0    0    0    0  0.00000000000E+00  0.00000000000E+00  0.45593999997E+02  0.45594000000E+02  0.51100000000E-03 0. -1.
         11   -1    0    0    0    0 -0.00000000000E+00 -0.00000000000E+00 -0.45593999997E+02  0.45594000000E+02  0.51100000000E-03 0.  1.
    9900012    2    1    2    0    0 -0.68424582062E+01 -0.23855931779E+02 -0.35604760254E+02  0.47787266503E+02  0.19999979293E+02 0.  0.
         12    1    1    2    0    0  0.68424582062E+01  0.23855931779E+02  0.35604760254E+02  0.43400733497E+02  0.00000000000E+00 0. -1.
         11    1    3    3    0    0 -0.23505294656E+01 -0.48663242676E+01 -0.63187938751E+00  0.54410819206E+01  0.51100000000E-03 0. -1.
        -11    1    3    3    0    0  0.41259484600E-01  0.20992425317E+01 -0.17417659793E+01  0.27280525178E+01  0.51100000000E-03 0.  1.
         12    1    3    3    0    0 -0.45331882252E+01 -0.21088850043E+02 -0.33231114887E+02  0.39618132064E+02  0.00000000000E+00 0. -1.
</event>
<event>
 7    1  0.2599124E-010  0.4778728E+02  0.7816164E-02  0.1312668E+00
        -11   -1    0    0    0    0  0.00000000000E+00  0.00000000000E+00  0.45593999997E+02  0.45594000000E+02  0.51100000000E-03 0.  1.
         11   -1    0    0    0    0 -0.00000000000E+00 -0.00000000000E+00 -0.45593999997E+02  0.45594000000E+02  0.51100000000E-03 0. -1.
    9900012    2    1    2    0    0  0.42097219450E+02  0.10529667535E+02  0.75690319236E+00  0.47787277814E+02  0.20000030867E+02 0.  0.
         12    1    1    2    0    0 -0.42097219450E+02 -0.10529667535E+02 -0.75690319236E+00  0.43400722186E+02  0.00000000000E+00 0. -1.
         11    1    3    3    0    0  0.59063205424E+01  0.43039462556E+01 -0.90569103833E-01  0.73086783173E+01  0.51100000000E-03 0. -1.
        -11    1    3    3    0    0  0.16899336392E+02  0.11352536837E+02  0.21691612666E+01  0.20473712999E+02  0.51100000000E-03 0.  1.
         12    1    3    3    0    0  0.19291562516E+02 -0.51268155578E+01 -0.13216889704E+01  0.20004886498E+02  0.00000000000E+00 0. -1.
</event>
<event>
 7    1  0.2599124E-010  0.4778727E+02  0.7816164E-02  0.1312668E+00
        -11   -1    0    0    0    0  0.00000000000E+00  0.00000000000E+00  0.45593999997E+02  0.45594000000E+02  0.51100000000E-03 0.  1.
         11   -1    0    0    0    0 -0.00000000000E+00 -0.00000000000E+00 -0.45593999997E+02  0.45594000000E+02  0.51100000000E-03 0. -1.
    9900012    2    1    2    0    0 -0.26963959919E+02 -0.18889299545E+01  0.33955856548E+02  0.47787269766E+02  0.19999994172E+02 0.  0.
         12    1    1    2    0    0  0.26963959919E+02  0.18889299545E+01 -0.33955856548E+02  0.43400730234E+02  0.00000000000E+00 0. -1.
         11    1    3    3    0    0 -0.13843498399E+02 -0.64696726225E+01  0.15587813758E+02  0.21828400074E+02  0.51100000000E-03 0. -1.
        -11    1    3    3    0    0 -0.14165400096E+02  0.54665547482E+00  0.14241393884E+02  0.20094145717E+02  0.51100000000E-03 0.  1.
         12    1    3    3    0    0  0.10449385758E+01  0.40340871932E+01  0.41266489058E+01  0.58647239748E+01  0.00000000000E+00 0. -1.
</event>
<event>
 7    1  0.2599124E-010  0.4778726E+02  0.7816164E-02  0.1312668E+00
        -11   -1    0    0    0    0  0.00000000000E+00  0.00000000000E+00  0.45593999997E+02  0.45594000000E+02  0.51100000000E-03 0.  1.
         11   -1    0    0    0    0 -0.00000000000E+00 -0.00000000000E+00 -0.45593999997E+02  0.45594000000E+02  0.51100000000E-03 0. -1.
    9900012    2    1    2    0    0  0.20617023036E+02  0.70745533761E+01  0.37530162541E+02  0.47787262164E+02  0.19999959513E+02 0.  0.
         12    1    1    2    0    0 -0.20617023036E+02 -0.70745533761E+01 -0.37530162541E+02  0.43400737836E+02  0.00000000000E+00 0. -1.
         11    1    3    3    0    0  0.80128821662E+01 -0.20201803759E+01  0.11250471997E+02  0.13959245315E+02  0.51100000000E-03 0. -1.
        -11    1    3    3    0    0  0.43751367121E+01  0.17834799048E+01  0.21172356806E+02  0.21693116761E+02  0.51100000000E-03 0.  1.
        -12    1    3    3    0    0  0.82290041572E+01  0.73112538472E+01  0.51073337380E+01  0.12134900088E+02  0.00000000000E+00 0.  1.
</event>
<event>
 7    1  0.2599124E-010  0.4778727E+02  0.7816164E-02  0.1312668E+00
        -11   -1    0    0    0    0  0.00000000000E+00  0.00000000000E+00  0.45593999997E+02  0.45594000000E+02  0.51100000000E-03 0. -1.
         11   -1    0    0    0    0 -0.00000000000E+00 -0.00000000000E+00 -0.45593999997E+02  0.45594000000E+02  0.51100000000E-03 0.  1.
    9900012    2    1    2    0    0  0.15898347017E+01  0.15558333410E+02 -0.40484984552E+02  0.47787270893E+02  0.19999999309E+02 0.  0.
         12    1    1    2    0    0 -0.15898347017E+01 -0.15558333410E+02  0.40484984552E+02  0.43400729107E+02  0.00000000000E+00 0. -1.
         11    1    3    3    0    0  0.54955939081E+00  0.40258163604E+01 -0.20116919404E+02  0.20523149355E+02  0.51100000000E-03 0. -1.
        -11    1    3    3    0    0 -0.38557700011E+00  0.63093300526E+01 -0.20889341461E+02  0.21824777256E+02  0.51100000000E-03 0.  1.
         12    1    3    3    0    0  0.14258523110E+01  0.52231869970E+01  0.52127631326E+00  0.54393442816E+01  0.00000000000E+00 0. -1.
</event>
<event>
 7    1  0.2599124E-010  0.4778727E+02  0.7816164E-02  0.1312668E+00
        -11   -1    0    0    0    0  0.00000000000E+00  0.00000000000E+00  0.45593999997E+02  0.45594000000E+02  0.51100000000E-03 0.  1.
         11   -1    0    0    0    0 -0.00000000000E+00 -0.00000000000E+00 -0.45593999997E+02  0.45594000000E+02  0.51100000000E-03 0. -1.
    9900012    2    1    2    0    0  0.10632351742E+02 -0.41306250003E+01  0.41874980175E+02  0.47787274993E+02  0.20000018005E+02 0.  0.
         12    1    1    2    0    0 -0.10632351742E+02  0.41306250003E+01 -0.41874980175E+02  0.43400725007E+02  0.00000000000E+00 0. -1.
         11    1    3    3    0    0  0.21231373199E+00 -0.47829472673E+01  0.69362562244E+01  0.84281262660E+01  0.51100000000E-03 0. -1.
        -11    1    3    3    0    0  0.31963011875E+01 -0.67004378553E+01  0.18765048207E+02  0.20180169554E+02  0.51100000000E-03 0.  1.
        -12    1    3    3    0    0  0.72237368227E+01  0.73527601223E+01  0.16173675743E+02  0.19178979174E+02  0.00000000000E+00 0.  1.
</event>
<event>
 7    1  0.2599124E-010  0.4778727E+02  0.7816164E-02  0.1312668E+00
        -11   -1    0    0    0    0  0.00000000000E+00  0.00000000000E+00  0.45593999997E+02  0.45594000000E+02  0.51100000000E-03 0.  1.
         11   -1    0    0    0    0 -0.00000000000E+00 -0.00000000000E+00 -0.45593999997E+02  0.45594000000E+02  0.51100000000E-03 0. -1.
    9900012    2    1    2    0    0 -0.41524165330E+02  0.59055213466E+01  0.11157607062E+02  0.47787266319E+02  0.19999978454E+02 0.  0.
         12    1    1    2    0    0  0.41524165330E+02 -0.59055213466E+01 -0.11157607062E+02  0.43400733681E+02  0.00000000000E+00 0. -1.
         11    1    3    3    0    0 -0.46273236288E+00  0.15080068661E+01 -0.11580012339E+01  0.19568272961E+01  0.51100000000E-03 0. -1.
        -11    1    3    3    0    0 -0.15556526520E+02  0.75912861807E+00 -0.29962229523E+01  0.15860616188E+02  0.51100000000E-03 0.  1.
        -12    1    3    3    0    0 -0.25504906447E+02  0.36383858624E+01  0.15311831248E+02  0.29969822834E+02  0.00000000000E+00 0.  1.
</event>
<event>
 7    1  0.2599124E-010  0.4778727E+02  0.7816164E-02  0.1312668E+00
        -11   -1    0    0    0    0  0.00000000000E+00  0.00000000000E+00  0.45593999997E+02  0.45594000000E+02  0.51100000000E-03 0.  1.
         11   -1    0    0    0    0 -0.00000000000E+00 -0.00000000000E+00 -0.45593999997E+02  0.45594000000E+02  0.51100000000E-03 0. -1.
    9900012    2    1    2    0    0  0.17860081721E+02  0.34871680056E+02  0.18671011891E+02  0.47787271043E+02  0.19999999994E+02 0.  0.
         12    1    1    2    0    0 -0.17860081721E+02 -0.34871680056E+02 -0.18671011891E+02  0.43400728957E+02  0.00000000000E+00 0. -1.
         11    1    3    3    0    0 -0.90967727902E+00  0.81616755854E+00  0.17194076289E+01  0.21095035176E+01  0.51100000000E-03 0. -1.
        -11    1    3    3    0    0 -0.23432440531E+00  0.10582529680E+02 -0.85170177729E+00  0.10619333243E+02  0.51100000000E-03 0.  1.
         12    1    3    3    0    0  0.19004083405E+02  0.23472982817E+02  0.17803306039E+02  0.35058434282E+02  0.00000000000E+00 0. -1.
</event>
<event>
 7    1  0.2599124E-010  0.4778727E+02  0.7816164E-02  0.1312668E+00
        -11   -1    0    0    0    0  0.00000000000E+00  0.00000000000E+00  0.45593999997E+02  0.45594000000E+02  0.51100000000E-03 0.  1.
         11   -1    0    0    0    0 -0.00000000000E+00 -0.00000000000E+00 -0.45593999997E+02  0.45594000000E+02  0.51100000000E-03 0. -1.
    9900012    2    1    2    0    0  0.34787020174E+02  0.15408152829E+02  0.20882420479E+02  0.47787269232E+02  0.19999991734E+02 0.  0.
         12    1    1    2    0    0 -0.34787020174E+02 -0.15408152829E+02 -0.20882420479E+02  0.43400730768E+02  0.00000000000E+00 0. -1.
         11    1    3    3    0    0  0.13108712796E+01  0.59827624598E+00 -0.11003783963E+01  0.18130501522E+01  0.51100000000E-03 0. -1.
        -11    1    3    3    0    0  0.26795358394E+02  0.14217147565E+02  0.24312215364E+02  0.38874185940E+02  0.51100000000E-03 0.  1.
        -12    1    3    3    0    0  0.66807905002E+01  0.59272901725E+00 -0.23294164888E+01  0.71000331389E+01  0.00000000000E+00 0.  1.
</event>
<event>
 7    1  0.2599124E-010  0.4778727E+02  0.7816164E-02  0.1312668E+00
        -11   -1    0    0    0    0  0.00000000000E+00  0.00000000000E+00  0.45593999997E+02  0.45594000000E+02  0.51100000000E-03 0. -1.
         11   -1    0    0    0    0 -0.00000000000E+00 -0.00000000000E+00 -0.45593999997E+02  0.45594000000E+02  0.51100000000E-03 0.  1.
    9900012    2    1    2    0    0  0.60333329601E+01  0.32605928761E+02 -0.28001349398E+02  0.47787271145E+02  0.20000000460E+02 0.  0.
         12    1    1    2    0    0 -0.60333329601E+01 -0.32605928761E+02  0.28001349398E+02  0.43400728855E+02  0.00000000000E+00 0. -1.
         11    1    3    3    0    0  0.35916411566E+01  0.33723779291E+01 -0.27682113215E+01  0.56511780432E+01  0.51100000000E-03 0. -1.
        -11    1    3    3    0    0  0.79609724299E+01  0.18869555348E+02 -0.96916278654E+01  0.22657556179E+02  0.51100000000E-03 0.  1.
        -12    1    3    3    0    0 -0.55192806263E+01  0.10363995484E+02 -0.15541510211E+02  0.19478536923E+02  0.00000000000E+00 0.  1.
</event>
<event>
 7    1  0.2599124E-010  0.4778727E+02  0.7816164E-02  0.1312668E+00
        -11   -1    0    0    0    0  0.00000000000E+00  0.00000000000E+00  0.45593999997E+02  0.45594000000E+02  0.51100000000E-03 0.  1.
         11   -1    0    0    0    0 -0.00000000000E+00 -0.00000000000E+00 -0.45593999997E+02  0.45594000000E+02  0.51100000000E-03 0. -1.
    9900012    2    1    2    0    0 -0.17035338761E+02  0.73692405307E+01  0.39231549290E+02  0.47787274978E+02  0.20000017937E+02 0.  0.
         12    1    1    2    0    0  0.17035338761E+02 -0.73692405307E+01 -0.39231549290E+02  0.43400725022E+02  0.00000000000E+00 0. -1.
         11    1    3    3    0    0 -0.52421482729E+01 -0.45272649859E+01  0.40645742555E+01  0.80310031072E+01  0.51100000000E-03 0. -1.
        -11    1    3    3    0    0 -0.77966940470E+01  0.57699306425E+01  0.27496238270E+02  0.29156880096E+02  0.51100000000E-03 0.  1.
        -12    1    3    3    0    0 -0.39964964412E+01  0.61265748742E+01  0.76707367645E+01  0.10599391775E+02  0.00000000000E+00 0.  1.
</event>
<event>
 7    1  0.2599124E-010  0.4778727E+02  0.7816164E-02  0.1312668E+00
        -11   -1    0    0    0    0  0.00000000000E+00  0.00000000000E+00  0.45593999997E+02  0.45594000000E+02  0.51100000000E-03 0.  1.
         11   -1    0    0    0    0 -0.00000000000E+00 -0.00000000000E+00 -0.45593999997E+02  0.45594000000E+02  0.51100000000E-03 0. -1.
    9900012    2    1    2    0    0  0.29648678007E+02 -0.52230498634E+00  0.31690795284E+02  0.47787269410E+02  0.19999992546E+02 0.  0.
         12    1    1    2    0    0 -0.29648678007E+02  0.52230498634E+00 -0.31690795284E+02  0.43400730590E+02  0.00000000000E+00 0. -1.
         11    1    3    3    0    0 -0.43577450934E-01  0.29855882376E+01  0.88458797295E+01  0.93362318185E+01  0.51100000000E-03 0. -1.
        -11    1    3    3    0    0  0.12745791517E+02  0.11581999320E+01  0.13266265739E+02  0.18433405421E+02  0.51100000000E-03 0.  1.
         12    1    3    3    0    0  0.16946463941E+02 -0.46660931559E+01  0.95786498152E+01  0.20017632170E+02  0.00000000000E+00 0. -1.
</event>
<event>
 7    1  0.2599124E-010  0.4778727E+02  0.7816164E-02  0.1312668E+00
        -11   -1    0    0    0    0  0.00000000000E+00  0.00000000000E+00  0.45593999997E+02  0.45594000000E+02  0.51100000000E-03 0. -1.
         11   -1    0    0    0    0 -0.00000000000E+00 -0.00000000000E+00 -0.45593999997E+02  0.45594000000E+02  0.51100000000E-03 0.  1.
    9900012    2    1    2    0    0 -0.29050735330E+02 -0.16242497368E+02 -0.27854250653E+02  0.47787271626E+02  0.20000002651E+02 0.  0.
         12    1    1    2    0    0  0.29050735330E+02  0.16242497368E+02  0.27854250653E+02  0.43400728374E+02  0.00000000000E+00 0. -1.
         11    1    3    3    0    0 -0.31677064688E+01 -0.51091828080E+01 -0.10096629535E+02  0.11750746421E+02  0.51100000000E-03 0. -1.
        -11    1    3    3    0    0 -0.64365404035E+01  0.89947925315E-01 -0.10724326788E+02  0.12507930616E+02  0.51100000000E-03 0.  1.
         12    1    3    3    0    0 -0.19446488457E+02 -0.11223262486E+02 -0.70332943312E+01  0.23528594588E+02  0.00000000000E+00 0. -1.
</event>
<event>
 7    1  0.2599124E-010  0.4778727E+02  0.7816164E-02  0.1312668E+00
        -11   -1    0    0    0    0  0.00000000000E+00  0.00000000000E+00  0.45593999997E+02  0.45594000000E+02  0.51100000000E-03 0.  1.
         11   -1    0    0    0    0 -0.00000000000E+00 -0.00000000000E+00 -0.45593999997E+02  0.45594000000E+02  0.51100000000E-03 0. -1.
    9900012    2    1    2    0    0 -0.28868214094E+02 -0.26381804803E+02  0.18821529100E+02  0.47787269968E+02  0.19999995093E+02 0.  0.
         12    1    1    2    0    0  0.28868214094E+02  0.26381804803E+02 -0.18821529100E+02  0.43400730032E+02  0.00000000000E+00 0. -1.
         11    1    3    3    0    0 -0.52726112956E+01 -0.38565124063E+01 -0.17951421687E+01  0.67746330884E+01  0.51100000000E-03 0. -1.
        -11    1    3    3    0    0  0.93246655542E+00  0.75866906949E+00  0.21915637115E+01  0.24996048481E+01  0.51100000000E-03 0.  1.
        -12    1    3    3    0    0 -0.24528069354E+02 -0.23283961466E+02  0.18425107557E+02  0.38513032032E+02  0.00000000000E+00 0.  1.
</event>
<event>
 7    1  0.2599124E-010  0.4778727E+02  0.7816164E-02  0.1312668E+00
        -11   -1    0    0    0    0  0.00000000000E+00  0.00000000000E+00  0.45593999997E+02  0.45594000000E+02  0.51100000000E-03 0. -1.
         11   -1    0    0    0    0 -0.00000000000E+00 -0.00000000000E+00 -0.45593999997E+02  0.45594000000E+02  0.51100000000E-03 0.  1.
    9900012    2    1    2    0    0  0.17675108454E+01  0.53484871860E+01 -0.43033622224E+02  0.47787273606E+02  0.20000011680E+02 0.  0.
         12    1    1    2    0    0 -0.17675108454E+01 -0.53484871860E+01  0.43033622224E+02  0.43400726394E+02  0.00000000000E+00 0. -1.
         11    1    3    3    0    0  0.27463981333E+01  0.37842860290E+00 -0.36212476142E+00  0.27958979807E+01  0.51100000000E-03 0. -1.
        -11    1    3    3    0    0  0.83260957227E+00 -0.31658682357E+01 -0.29560341176E+01  0.44106800327E+01  0.51100000000E-03 0.  1.
        -12    1    3    3    0    0 -0.18114968602E+01  0.81359268188E+01 -0.39715463345E+02  0.40580695593E+02  0.00000000000E+00 0.  1.
</event>
<event>
 7    1  0.2599124E-010  0.4778728E+02  0.7816164E-02  0.1312668E+00
        -11   -1    0    0    0    0  0.00000000000E+00  0.00000000000E+00  0.45593999997E+02  0.45594000000E+02  0.51100000000E-03 0.  1.
         11   -1    0    0    0    0 -0.00000000000E+00 -0.00000000000E+00 -0.45593999997E+02  0.45594000000E+02  0.51100000000E-03 0. -1.
    9900012    2    1    2    0    0  0.19173372048E+02 -0.24875388580E+02  0.29953623823E+02  0.47787277278E+02  0.20000028419E+02 0.  0.
         12    1    1    2    0    0 -0.19173372048E+02  0.24875388580E+02 -0.29953623823E+02  0.43400722722E+02  0.00000000000E+00 0. -1.
         11    1    3    3    0    0  0.12533430462E+02 -0.95795360449E+01  0.12348683546E+02  0.20033581197E+02  0.51100000000E-03 0. -1.
        -11    1    3    3    0    0  0.40691381289E+01 -0.51546913081E+01  0.15835374908E+02  0.17143156837E+02  0.51100000000E-03 0.  1.
         12    1    3    3    0    0  0.25708034570E+01 -0.10141161227E+02  0.17695653685E+01  0.10610539244E+02  0.00000000000E+00 0. -1.
</event>
<event>
 7    1  0.2599124E-010  0.4778727E+02  0.7816164E-02  0.1312668E+00
        -11   -1    0    0    0    0  0.00000000000E+00  0.00000000000E+00  0.45593999997E+02  0.45594000000E+02  0.51100000000E-03 0.  1.
         11   -1    0    0    0    0 -0.00000000000E+00 -0.00000000000E+00 -0.45593999997E+02  0.45594000000E+02  0.51100000000E-03 0. -1.
    9900012    2    1    2    0    0  0.42551589302E+02 -0.78851708338E+01 -0.32877526260E+01  0.47787274332E+02  0.20000014988E+02 0.  0.
         12    1    1    2    0    0 -0.42551589302E+02  0.78851708338E+01  0.32877526260E+01  0.43400725668E+02  0.00000000000E+00 0. -1.
         11    1    3    3    0    0  0.77689438823E+01  0.28927193576E+01  0.18532187982E+01  0.84946297449E+01  0.51100000000E-03 0. -1.
        -11    1    3    3    0    0  0.10870560838E+01  0.18101038332E+01 -0.24319519123E+01  0.32206454604E+01  0.51100000000E-03 0.  1.
        -12    1    3    3    0    0  0.33695589336E+02 -0.12587994025E+02 -0.27090195119E+01  0.36071999126E+02  0.00000000000E+00 0.  1.
</event>
<event>
 7    1  0.2599124E-010  0.4778727E+02  0.7816164E-02  0.1312668E+00
        -11   -1    0    0    0    0  0.00000000000E+00  0.00000000000E+00  0.45593999997E+02  0.45594000000E+02  0.51100000000E-03 0. -1.
         11   -1    0    0    0    0 -0.00000000000E+00 -0.00000000000E+00 -0.45593999997E+02  0.45594000000E+02  0.51100000000E-03 0.  1.
    9900012    2    1    2    0    0 -0.36424293469E+02  0.71566023993E+01 -0.22487264656E+02  0.47787272076E+02  0.20000004703E+02 0.  0.
         12    1    1    2    0    0  0.36424293469E+02 -0.71566023993E+01  0.22487264656E+02  0.43400727924E+02  0.00000000000E+00 0. -1.
         11    1    3    3    0    0 -0.21018413673E+02  0.64024030141E+01 -0.17775764382E+02  0.28262028896E+02  0.51100000000E-03 0. -1.
        -11    1    3    3    0    0 -0.12085350059E+01  0.40934624775E+01 -0.19001399081E+01  0.46719935624E+01  0.51100000000E-03 0.  1.
         12    1    3    3    0    0 -0.14197344790E+02 -0.33392630924E+01 -0.28113603657E+01  0.14853249617E+02  0.00000000000E+00 0. -1.
</event>
<event>
 7    1  0.2599124E-010  0.4778727E+02  0.7816164E-02  0.1312668E+00
        -11   -1    0    0    0    0  0.00000000000E+00  0.00000000000E+00  0.45593999997E+02  0.45594000000E+02  0.51100000000E-03 0.  1.
         11   -1    0    0    0    0 -0.00000000000E+00 -0.00000000000E+00 -0.45593999997E+02  0.45594000000E+02  0.51100000000E-03 0. -1.
    9900012    2    1    2    0    0  0.24846461078E+02  0.20347666132E+02  0.29193309898E+02  0.47787268579E+02  0.19999988759E+02 0.  0.
         12    1    1    2    0    0 -0.24846461078E+02 -0.20347666132E+02 -0.29193309898E+02  0.43400731421E+02  0.00000000000E+00 0. -1.
         11    1    3    3    0    0 -0.15216834425E+01  0.41820160086E+01 -0.29365820041E+00  0.44599342815E+01  0.51100000000E-03 0. -1.
        -11    1    3    3    0    0  0.99991978881E+01  0.71104778185E+01  0.71846603272E+01  0.14218375346E+02  0.51100000000E-03 0.  1.
         12    1    3    3    0    0  0.16368946632E+02  0.90551723045E+01  0.22302307771E+02  0.29108958951E+02  0.00000000000E+00 0. -1.
</event>
<event>
 7    1  0.2599124E-010  0.4778727E+02  0.7816164E-02  0.1312668E+00
        -11   -1    0    0    0    0  0.00000000000E+00  0.00000000000E+00  0.45593999997E+02  0.45594000000E+02  0.51100000000E-03 0.  1.
         11   -1    0    0    0    0 -0.00000000000E+00 -0.00000000000E+00 -0.45593999997E+02  0.45594000000E+02  0.51100000000E-03 0. -1.
    9900012    2    1    2    0    0 -0.31259176635E+02 -0.36351407864E+01  0.29887673741E+02  0.47787269429E+02  0.19999992634E+02 0.  0.
         12    1    1    2    0    0  0.31259176635E+02  0.36351407864E+01 -0.29887673741E+02  0.43400730571E+02  0.00000000000E+00 0. -1.
         11    1    3    3    0    0 -0.17927422766E+00 -0.26368949173E+01  0.17279032342E+01  0.31576896461E+01  0.51100000000E-03 0. -1.
        -11    1    3    3    0    0 -0.31142899394E+02  0.74329679539E+00  0.29117490626E+02  0.42641070970E+02  0.51100000000E-03 0.  1.
        -12    1    3    3    0    0  0.62996986288E-01 -0.17415426645E+01 -0.95772011952E+00  0.19885088131E+01  0.00000000000E+00 0.  1.
</event>
<event>
 7    1  0.2599124E-010  0.4778727E+02  0.7816164E-02  0.1312668E+00
        -11   -1    0    0    0    0  0.00000000000E+00  0.00000000000E+00  0.45593999997E+02  0.45594000000E+02  0.51100000000E-03 0.  1.
         11   -1    0    0    0    0 -0.00000000000E+00 -0.00000000000E+00 -0.45593999997E+02  0.45594000000E+02  0.51100000000E-03 0. -1.
    9900012    2    1    2    0    0  0.23741079258E+02 -0.24247808059E+02  0.27056022922E+02  0.47787269403E+02  0.19999992516E+02 0.  0.
         12    1    1    2    0    0 -0.23741079258E+02  0.24247808059E+02 -0.27056022922E+02  0.43400730597E+02  0.00000000000E+00 0. -1.
         11    1    3    3    0    0  0.42798801022E+01 -0.13294086491E+02  0.75060308824E+01  0.15855302242E+02  0.51100000000E-03 0. -1.
        -11    1    3    3    0    0  0.27590948062E+01 -0.48506037390E+01  0.10703184543E+02  0.12070589066E+02  0.51100000000E-03 0.  1.
        -12    1    3    3    0    0  0.16702104350E+02 -0.61031178293E+01  0.88468074967E+01  0.19861378095E+02  0.00000000000E+00 0.  1.
</event>
<event>
 7    1  0.2599124E-010  0.4778727E+02  0.7816164E-02  0.1312668E+00
        -11   -1    0    0    0    0  0.00000000000E+00  0.00000000000E+00  0.45593999997E+02  0.45594000000E+02  0.51100000000E-03 0.  1.
         11   -1    0    0    0    0 -0.00000000000E+00 -0.00000000000E+00 -0.45593999997E+02  0.45594000000E+02  0.51100000000E-03 0. -1.
    9900012    2    1    2    0    0  0.28151170075E+02 -0.24525972673E+02  0.22127165594E+02  0.47787272248E+02  0.20000005489E+02 0.  0.
         12    1    1    2    0    0 -0.28151170075E+02  0.24525972673E+02 -0.22127165594E+02  0.43400727752E+02  0.00000000000E+00 0. -1.
         11    1    3    3    0    0  0.48794431368E+01 -0.45590772471E+01 -0.23811042564E+01  0.70896973427E+01  0.51100000000E-03 0. -1.
        -11    1    3    3    0    0  0.43538830617E+01 -0.98178495896E+01  0.57164025523E+01  0.12166500182E+02  0.51100000000E-03 0.  1.
        -12    1    3    3    0    0  0.18917843876E+02 -0.10149045837E+02  0.18791867298E+02  0.28531074723E+02  0.00000000000E+00 0.  1.
</event>
<event>
 7    1  0.2599124E-010  0.4778727E+02  0.7816164E-02  0.1312668E+00
        -11   -1    0    0    0    0  0.00000000000E+00  0.00000000000E+00  0.45593999997E+02  0.45594000000E+02  0.51100000000E-03 0.  1.
         11   -1    0    0    0    0 -0.00000000000E+00 -0.00000000000E+00 -0.45593999997E+02  0.45594000000E+02  0.51100000000E-03 0. -1.
    9900012    2    1    2    0    0 -0.36141816933E+02 -0.20627981274E+01  0.23940280420E+02  0.47787273117E+02  0.20000009451E+02 0.  0.
         12    1    1    2    0    0  0.36141816933E+02  0.20627981274E+01 -0.23940280420E+02  0.43400726883E+02  0.00000000000E+00 0. -1.
         11    1    3    3    0    0 -0.10589508209E+01 -0.16039024251E+01 -0.55925233897E+00  0.20016601285E+01  0.51100000000E-03 0. -1.
        -11    1    3    3    0    0 -0.18420920345E+02  0.61545343111E+01  0.18656577929E+02  0.26930958008E+02  0.51100000000E-03 0.  1.
        -12    1    3    3    0    0 -0.16661945768E+02 -0.66134300135E+01  0.58429548297E+01  0.18854654981E+02  0.00000000000E+00 0.  1.
</event>
<event>
 7    1  0.2599124E-010  0.4778727E+02  0.7816164E-02  0.1312668E+00
        -11   -1    0    0    0    0  0.00000000000E+00  0.00000000000E+00  0.45593999997E+02  0.45594000000E+02  0.51100000000E-03 0. -1.
         11   -1    0    0    0    0 -0.00000000000E+00 -0.00000000000E+00 -0.45593999997E+02  0.45594000000E+02  0.51100000000E-03 0.  1.
    9900012    2    1    2    0    0  0.66720696889E+01 -0.60029323801E+01 -0.42462588775E+02  0.47787272396E+02  0.20000006163E+02 0.  0.
         12    1    1    2    0    0 -0.66720696889E+01  0.60029323801E+01  0.42462588775E+02  0.43400727604E+02  0.00000000000E+00 0. -1.
         11    1    3    3    0    0  0.50755240637E+01  0.16796859880E+01 -0.13764471733E+02  0.14766278200E+02  0.51100000000E-03 0. -1.
        -11    1    3    3    0    0  0.62401612089E+01  0.30603454790E+00 -0.17012993755E+02  0.18123885506E+02  0.51100000000E-03 0.  1.
         12    1    3    3    0    0 -0.46436155837E+01 -0.79886529159E+01 -0.11685123287E+02  0.14897108690E+02  0.00000000000E+00 0. -1.
</event>
<event>
 7    1  0.2599124E-010  0.4778728E+02  0.7816164E-02  0.1312668E+00
        -11   -1    0    0    0    0  0.00000000000E+00  0.00000000000E+00  0.45593999997E+02  0.45594000000E+02  0.51100000000E-03 0.  1.
         11   -1    0    0    0    0 -0.00000000000E+00 -0.00000000000E+00 -0.45593999997E+02  0.45594000000E+02  0.51100000000E-03 0. -1.
    9900012    2    1    2    0    0 -0.41651552083E+01  0.39673469088E+02 -0.17096492273E+02  0.47787277478E+02  0.20000029333E+02 0.  0.
         12    1    1    2    0    0  0.41651552083E+01 -0.39673469088E+02  0.17096492273E+02  0.43400722522E+02  0.00000000000E+00 0. -1.
         11    1    3    3    0    0  0.39653433174E+01  0.19856854114E+01 -0.20362398851E+00  0.44394095517E+01  0.51100000000E-03 0. -1.
        -11    1    3    3    0    0  0.15839786204E+01  0.15919203673E+01  0.18074651166E+00  0.22529687722E+01  0.51100000000E-03 0.  1.
        -12    1    3    3    0    0 -0.97144771461E+01  0.36095863310E+02 -0.17073614796E+02  0.41094899154E+02  0.00000000000E+00 0.  1.
</event>
<event>
 7    1  0.2599124E-010  0.4778727E+02  0.7816164E-02  0.1312668E+00
        -11   -1    0    0    0    0  0.00000000000E+00  0.00000000000E+00  0.45593999997E+02  0.45594000000E+02  0.51100000000E-03 0.  1.
         11   -1    0    0    0    0 -0.00000000000E+00 -0.00000000000E+00 -0.45593999997E+02  0.45594000000E+02  0.51100000000E-03 0. -1.
    9900012    2    1    2    0    0  0.15772869075E+02  0.57575050767E+01  0.40021129137E+02  0.47787273728E+02  0.20000012235E+02 0.  0.
         12    1    1    2    0    0 -0.15772869075E+02 -0.57575050767E+01 -0.40021129137E+02  0.43400726272E+02  0.00000000000E+00 0. -1.
         11    1    3    3    0    0 -0.17804624763E+01  0.75828766218E+01  0.14126738385E+02  0.16131794759E+02  0.51100000000E-03 0. -1.
        -11    1    3    3    0    0  0.14362116513E+01 -0.13853048607E+01  0.39425763631E+01  0.44187874020E+01  0.51100000000E-03 0.  1.
         12    1    3    3    0    0  0.16117119900E+02 -0.44006668436E+00  0.21951814388E+02  0.27236691567E+02  0.00000000000E+00 0. -1.
</event>
<event>
 7    1  0.2599124E-010  0.4778727E+02  0.7816164E-02  0.1312668E+00
        -11   -1    0    0    0    0  0.00000000000E+00  0.00000000000E+00  0.45593999997E+02  0.45594000000E+02  0.51100000000E-03 0. -1.
         11   -1    0    0    0    0 -0.00000000000E+00 -0.00000000000E+00 -0.45593999997E+02  0.45594000000E+02  0.51100000000E-03 0.  1.
    9900012    2    1    2    0    0  0.18197922525E+02 -0.28831437649E+02 -0.26855308643E+02  0.47787265174E+02  0.19999973232E+02 0.  0.
         12    1    1    2    0    0 -0.18197922525E+02  0.28831437649E+02  0.26855308643E+02  0.43400734826E+02  0.00000000000E+00 0. -1.
         11    1    3    3    0    0  0.14575911504E+01 -0.73103042619E+01 -0.18875152298E+01  0.76894625539E+01  0.51100000000E-03 0. -1.
        -11    1    3    3    0    0  0.17368551331E+02 -0.23531640473E+02 -0.22897156855E+02  0.37144104122E+02  0.51100000000E-03 0.  1.
         12    1    3    3    0    0 -0.62821995621E+00  0.20105070865E+01 -0.20706365584E+01  0.29536984976E+01  0.00000000000E+00 0. -1.
</event>
<event>
 7    1  0.2599124E-010  0.4778727E+02  0.7816164E-02  0.1312668E+00
        -11   -1    0    0    0    0  0.00000000000E+00  0.00000000000E+00  0.45593999997E+02  0.45594000000E+02  0.51100000000E-03 0. -1.
         11   -1    0    0    0    0 -0.00000000000E+00 -0.00000000000E+00 -0.45593999997E+02  0.45594000000E+02  0.51100000000E-03 0.  1.
    9900012    2    1    2    0    0 -0.14114424320E+02 -0.35715679646E+02 -0.20218719726E+02  0.47787269893E+02  0.19999994749E+02 0.  0.
         12    1    1    2    0    0  0.14114424320E+02  0.35715679646E+02  0.20218719726E+02  0.43400730107E+02  0.00000000000E+00 0. -1.
         11    1    3    3    0    0 -0.40960656677E+01  0.10908717087E+01 -0.33415107688E+01  0.53975410622E+01  0.51100000000E-03 0. -1.
        -11    1    3    3    0    0 -0.62187625161E-01 -0.73748390745E+01 -0.83404204935E+00  0.74221119014E+01  0.51100000000E-03 0.  1.
         12    1    3    3    0    0 -0.99561710271E+01 -0.29431712280E+02 -0.16043166908E+02  0.34967616929E+02  0.00000000000E+00 0. -1.
</event>
<event>
 7    1  0.2599124E-010  0.4778727E+02  0.7816164E-02  0.1312668E+00
        -11   -1    0    0    0    0  0.00000000000E+00  0.00000000000E+00  0.45593999997E+02  0.45594000000E+02  0.51100000000E-03 0. -1.
         11   -1    0    0    0    0 -0.00000000000E+00 -0.00000000000E+00 -0.45593999997E+02  0.45594000000E+02  0.51100000000E-03 0.  1.
    9900012    2    1    2    0    0 -0.29742429715E+02 -0.28136467406E+02  0.14399674849E+02  0.47787267758E+02  0.19999985015E+02 0.  0.
         12    1    1    2    0    0  0.29742429715E+02  0.28136467406E+02 -0.14399674849E+02  0.43400732242E+02  0.00000000000E+00 0. -1.
         11    1    3    3    0    0 -0.18878254855E+02 -0.18747548518E+02  0.13130043767E+02  0.29669127581E+02  0.51100000000E-03 0. -1.
        -11    1    3    3    0    0 -0.11250370653E+02 -0.11159060430E+02 -0.10100572663E+00  0.15846314143E+02  0.51100000000E-03 0.  1.
         12    1    3    3    0    0  0.38619579384E+00  0.17701415415E+01  0.13706368087E+01  0.22718260342E+01  0.00000000000E+00 0. -1.
</event>
<event>
 7    1  0.2599124E-010  0.4778727E+02  0.7816164E-02  0.1312668E+00
        -11   -1    0    0    0    0  0.00000000000E+00  0.00000000000E+00  0.45593999997E+02  0.45594000000E+02  0.51100000000E-03 0.  1.
         11   -1    0    0    0    0 -0.00000000000E+00 -0.00000000000E+00 -0.45593999997E+02  0.45594000000E+02  0.51100000000E-03 0. -1.
    9900012    2    1    2    0    0  0.32772905348E+02  0.53596005789E+01  0.27943424060E+02  0.47787267385E+02  0.19999983315E+02 0.  0.
         12    1    1    2    0    0 -0.32772905348E+02 -0.53596005789E+01 -0.27943424060E+02  0.43400732615E+02  0.00000000000E+00 0. -1.
         11    1    3    3    0    0  0.22716296945E+01 -0.16667399898E+01  0.45487680572E+01  0.53506648897E+01  0.51100000000E-03 0. -1.
        -11    1    3    3    0    0  0.67379810039E+01 -0.50868811764E+01  0.80491689684E+01  0.11664727577E+02  0.51100000000E-03 0.  1.
         12    1    3    3    0    0  0.23763294649E+02  0.12113221745E+02  0.15345487035E+02  0.30771874918E+02  0.00000000000E+00 0. -1.
</event>
<event>
 7    1  0.2599124E-010  0.4778727E+02  0.7816164E-02  0.1312668E+00
        -11   -1    0    0    0    0  0.00000000000E+00  0.00000000000E+00  0.45593999997E+02  0.45594000000E+02  0.51100000000E-03 0.  1.
         11   -1    0    0    0    0 -0.00000000000E+00 -0.00000000000E+00 -0.45593999997E+02  0.45594000000E+02  0.51100000000E-03 0. -1.
    9900012    2    1    2    0    0 -0.22611882551E+02 -0.30723916320E+02  0.20697033234E+02  0.47787269002E+02  0.19999990686E+02 0.  0.
         12    1    1    2    0    0  0.22611882551E+02  0.30723916320E+02 -0.20697033234E+02  0.43400730998E+02  0.00000000000E+00 0. -1.
         11    1    3    3    0    0  0.12700101747E+01 -0.32815959962E+01 -0.52489381345E+00  0.35577116104E+01  0.51100000000E-03 0. -1.
        -11    1    3    3    0    0 -0.12482740173E+02 -0.17970327195E+02  0.53728124064E+01  0.22530392254E+02  0.51100000000E-03 0.  1.
         12    1    3    3    0    0 -0.11399152553E+02 -0.94719931289E+01  0.15849114641E+02  0.21699165137E+02  0.00000000000E+00 0. -1.
</event>
<event>
 7    1  0.2861934E-010  0.4778726E+02  0.7816164E-02  0.1312668E+00
        -11   -1    0    0    0    0  0.00000000000E+00  0.00000000000E+00  0.45593999997E+02  0.45594000000E+02  0.51100000000E-03 0. -1.
         11   -1    0    0    0    0 -0.00000000000E+00 -0.00000000000E+00 -0.45593999997E+02  0.45594000000E+02  0.51100000000E-03 0.  1.
    9900012    2    1    2    0    0 -0.25637440651E+02  0.30238290220E+02 -0.17663278273E+02  0.47787263164E+02  0.19999964071E+02 0.  0.
         12    1    1    2    0    0  0.25637440651E+02 -0.30238290220E+02  0.17663278273E+02  0.43400736836E+02  0.00000000000E+00 0. -1.
         11    1    3    3    0    0 -0.55399779709E+01  0.31415741465E+01  0.21140956351E+01  0.67104578571E+01  0.51100000000E-03 0.  1.
        -11    1    3    3    0    0 -0.81727573739E+01  0.31599428506E+01 -0.79653123902E+01  0.11841680778E+02  0.51100000000E-03 0. -1.
        -12    1    3    3    0    0 -0.11924705306E+02  0.23936773223E+02 -0.11812061518E+02  0.29235124529E+02  0.00000000000E+00 0.  1.
</event>
<event>
 7    1  0.2599124E-010  0.4778727E+02  0.7816164E-02  0.1312668E+00
        -11   -1    0    0    0    0  0.00000000000E+00  0.00000000000E+00  0.45593999997E+02  0.45594000000E+02  0.51100000000E-03 0.  1.
         11   -1    0    0    0    0 -0.00000000000E+00 -0.00000000000E+00 -0.45593999997E+02  0.45594000000E+02  0.51100000000E-03 0. -1.
    9900012    2    1    2    0    0  0.82901567568E+01 -0.10886560387E+02  0.41187128053E+02  0.47787269438E+02  0.19999992674E+02 0.  0.
         12    1    1    2    0    0 -0.82901567568E+01  0.10886560387E+02 -0.41187128053E+02  0.43400730562E+02  0.00000000000E+00 0. -1.
         11    1    3    3    0    0  0.35074536914E+01  0.31631308683E+01  0.13532972633E+02  0.14333491439E+02  0.51100000000E-03 0.  1.
        -11    1    3    3    0    0  0.67949087202E+01 -0.14121141678E+02  0.27197462671E+02  0.31389160594E+02  0.51100000000E-03 0. -1.
         12    1    3    3    0    0 -0.20122056548E+01  0.71450422010E-01  0.45669274858E+00  0.20646174044E+01  0.00000000000E+00 0. -1.
</event>
<event>
 7    1  0.2599124E-010  0.4778728E+02  0.7816164E-02  0.1312668E+00
        -11   -1    0    0    0    0  0.00000000000E+00  0.00000000000E+00  0.45593999997E+02  0.45594000000E+02  0.51100000000E-03 0.  1.
         11   -1    0    0    0    0 -0.00000000000E+00 -0.00000000000E+00 -0.45593999997E+02  0.45594000000E+02  0.51100000000E-03 0. -1.
    9900012    2    1    2    0    0 -0.22390856155E+02  0.12504752901E+02  0.35012897936E+02  0.47787282191E+02  0.20000050823E+02 0.  0.
         12    1    1    2    0    0  0.22390856155E+02 -0.12504752901E+02 -0.35012897936E+02  0.43400717809E+02  0.00000000000E+00 0. -1.
         11    1    3    3    0    0  0.44934838269E+00  0.56197996426E-01  0.44219204024E+01  0.44450480863E+01  0.51100000000E-03 0. -1.
        -11    1    3    3    0    0 -0.10719193499E+02 -0.11926036154E+01  0.18619221705E+02  0.21517407600E+02  0.51100000000E-03 0.  1.
        -12    1    3    3    0    0 -0.12121011039E+02  0.13641158520E+02  0.11971755828E+02  0.21824826505E+02  0.00000000000E+00 0.  1.
</event>
<event>
 7    1  0.2599124E-010  0.4778727E+02  0.7816164E-02  0.1312668E+00
        -11   -1    0    0    0    0  0.00000000000E+00  0.00000000000E+00  0.45593999997E+02  0.45594000000E+02  0.51100000000E-03 0.  1.
         11   -1    0    0    0    0 -0.00000000000E+00 -0.00000000000E+00 -0.45593999997E+02  0.45594000000E+02  0.51100000000E-03 0. -1.
    9900012    2    1    2    0    0 -0.39512500210E+01 -0.36687177354E+02  0.22848671955E+02  0.47787272252E+02  0.20000005507E+02 0.  0.
         12    1    1    2    0    0  0.39512500210E+01  0.36687177354E+02 -0.22848671955E+02  0.43400727748E+02  0.00000000000E+00 0. -1.
         11    1    3    3    0    0 -0.34797132851E+01 -0.11804660933E+02  0.61484112568E+01  0.13757230300E+02  0.51100000000E-03 0. -1.
        -11    1    3    3    0    0 -0.29543964982E+01 -0.24918431065E+02  0.18316832316E+02  0.31067072790E+02  0.51100000000E-03 0.  1.
         12    1    3    3    0    0  0.24828597622E+01  0.35914643642E-01 -0.16165716176E+01  0.29629691620E+01  0.00000000000E+00 0. -1.
</event>
<event>
 7    1  0.2599124E-010  0.4778727E+02  0.7816164E-02  0.1312668E+00
        -11   -1    0    0    0    0  0.00000000000E+00  0.00000000000E+00  0.45593999997E+02  0.45594000000E+02  0.51100000000E-03 0.  1.
         11   -1    0    0    0    0 -0.00000000000E+00 -0.00000000000E+00 -0.45593999997E+02  0.45594000000E+02  0.51100000000E-03 0. -1.
    9900012    2    1    2    0    0  0.34616327854E+01  0.44465833625E+01  0.43033336886E+02  0.47787273178E+02  0.20000009728E+02 0.  0.
         12    1    1    2    0    0 -0.34616327854E+01 -0.44465833625E+01 -0.43033336886E+02  0.43400726822E+02  0.00000000000E+00 0. -1.
         11    1    3    3    0    0  0.50963402357E+01  0.45869517274E+01  0.20612440268E+02  0.21722925770E+02  0.51100000000E-03 0. -1.
        -11    1    3    3    0    0  0.53813783733E+01 -0.10953909047E+01  0.57458451220E+01  0.79481979629E+01  0.51100000000E-03 0.  1.
         12    1    3    3    0    0 -0.70160858235E+01  0.95502253976E+00  0.16675051496E+02  0.18116149446E+02  0.00000000000E+00 0. -1.
</event>
<event>
 7    1  0.2599124E-010  0.4778727E+02  0.7816164E-02  0.1312668E+00
        -11   -1    0    0    0    0  0.00000000000E+00  0.00000000000E+00  0.45593999997E+02  0.45594000000E+02  0.51100000000E-03 0. -1.
         11   -1    0    0    0    0 -0.00000000000E+00 -0.00000000000E+00 -0.45593999997E+02  0.45594000000E+02  0.51100000000E-03 0.  1.
    9900012    2    1    2    0    0 -0.42874805722E+02 -0.14391833524E+01 -0.65805010064E+01  0.47787271805E+02  0.20000003466E+02 0.  0.
         12    1    1    2    0    0  0.42874805722E+02  0.14391833524E+01  0.65805010064E+01  0.43400728195E+02  0.00000000000E+00 0. -1.
         11    1    3    3    0    0 -0.48479158328E+01  0.58161169065E+01  0.97088991096E+00  0.76336184913E+01  0.51100000000E-03 0. -1.
        -11    1    3    3    0    0 -0.47595659795E+01 -0.35477925140E+01 -0.16783949143E+01  0.61690606890E+01  0.51100000000E-03 0.  1.
        -12    1    3    3    0    0 -0.33267323909E+02 -0.37075077449E+01 -0.58729960031E+01  0.33984592624E+02  0.00000000000E+00 0.  1.
</event>
<event>
 7    1  0.2599124E-010  0.4778727E+02  0.7816164E-02  0.1312668E+00
        -11   -1    0    0    0    0  0.00000000000E+00  0.00000000000E+00  0.45593999997E+02  0.45594000000E+02  0.51100000000E-03 0. -1.
         11   -1    0    0    0    0 -0.00000000000E+00 -0.00000000000E+00 -0.45593999997E+02  0.45594000000E+02  0.51100000000E-03 0.  1.
    9900012    2    1    2    0    0 -0.86787314419E+01 -0.15941969736E+02 -0.39422788841E+02  0.47787273526E+02  0.20000011314E+02 0.  0.
         12    1    1    2    0    0  0.86787314419E+01  0.15941969736E+02  0.39422788841E+02  0.43400726474E+02  0.00000000000E+00 0. -1.
         11    1    3    3    0    0 -0.37046659724E+01 -0.81162890699E+01 -0.21015103922E+02  0.22830534189E+02  0.51100000000E-03 0. -1.
        -11    1    3    3    0    0 -0.75864671407E+01 -0.43485854983E+00 -0.14087175994E+02  0.16006002417E+02  0.51100000000E-03 0.  1.
         12    1    3    3    0    0  0.26124016713E+01 -0.73908221159E+01 -0.43205089252E+01  0.89507369201E+01  0.00000000000E+00 0. -1.
</event>
<event>
 7    1  0.2599124E-010  0.4778727E+02  0.7816164E-02  0.1312668E+00
        -11   -1    0    0    0    0  0.00000000000E+00  0.00000000000E+00  0.45593999997E+02  0.45594000000E+02  0.51100000000E-03 0.  1.
         11   -1    0    0    0    0 -0.00000000000E+00 -0.00000000000E+00 -0.45593999997E+02  0.45594000000E+02  0.51100000000E-03 0. -1.
    9900012    2    1    2    0    0 -0.12418566810E+02 -0.27841459248E+02  0.30891026337E+02  0.47787272324E+02  0.20000005834E+02 0.  0.
         12    1    1    2    0    0  0.12418566810E+02  0.27841459248E+02 -0.30891026337E+02  0.43400727676E+02  0.00000000000E+00 0. -1.
         11    1    3    3    0    0 -0.14647204239E+02 -0.25599071725E+02  0.19935502325E+02  0.35598838723E+02  0.51100000000E-03 0.  1.
        -11    1    3    3    0    0  0.83774194240E+00 -0.33301547883E+01  0.58163670287E+01  0.67543962091E+01  0.51100000000E-03 0. -1.
         12    1    3    3    0    0  0.13908954872E+01  0.10877672652E+01  0.51391569836E+01  0.54340373924E+01  0.00000000000E+00 0. -1.
</event>
<event>
 7    1  0.2599124E-010  0.4778727E+02  0.7816164E-02  0.1312668E+00
        -11   -1    0    0    0    0  0.00000000000E+00  0.00000000000E+00  0.45593999997E+02  0.45594000000E+02  0.51100000000E-03 0.  1.
         11   -1    0    0    0    0 -0.00000000000E+00 -0.00000000000E+00 -0.45593999997E+02  0.45594000000E+02  0.51100000000E-03 0. -1.
    9900012    2    1    2    0    0  0.35727505782E+02  0.15535658532E+02  0.19126208944E+02  0.47787271619E+02  0.20000002619E+02 0.  0.
         12    1    1    2    0    0 -0.35727505782E+02 -0.15535658532E+02 -0.19126208944E+02  0.43400728381E+02  0.00000000000E+00 0. -1.
         11    1    3    3    0    0  0.86756452664E+01  0.44603177596E+01 -0.17174625877E+01  0.99050963300E+01  0.51100000000E-03 0. -1.
        -11    1    3    3    0    0  0.27893442791E+01  0.24845343679E+01 -0.12732975959E+01  0.39464717865E+01  0.51100000000E-03 0.  1.
        -12    1    3    3    0    0  0.24262516237E+02  0.85908064046E+01  0.22116969127E+02  0.33935703502E+02  0.00000000000E+00 0.  1.
</event>
<event>
 7    1  0.2599124E-010  0.4778727E+02  0.7816164E-02  0.1312668E+00
        -11   -1    0    0    0    0  0.00000000000E+00  0.00000000000E+00  0.45593999997E+02  0.45594000000E+02  0.51100000000E-03 0.  1.
         11   -1    0    0    0    0 -0.00000000000E+00 -0.00000000000E+00 -0.45593999997E+02  0.45594000000E+02  0.51100000000E-03 0. -1.
    9900012    2    1    2    0    0 -0.22694935341E+02  0.34333488724E+02  0.13775877809E+02  0.47787270196E+02  0.19999996130E+02 0.  0.
         12    1    1    2    0    0  0.22694935341E+02 -0.34333488724E+02 -0.13775877809E+02  0.43400729804E+02  0.00000000000E+00 0. -1.
         11    1    3    3    0    0 -0.12343255065E+02  0.16595860900E+02  0.93893992204E+01  0.22714298637E+02  0.51100000000E-03 0. -1.
        -11    1    3    3    0    0 -0.12945066228E+02  0.96168141289E+01  0.35035739611E+01  0.16502511457E+02  0.51100000000E-03 0.  1.
         12    1    3    3    0    0  0.25933859509E+01  0.81208136957E+01  0.88290462711E+00  0.85704601015E+01  0.00000000000E+00 0. -1.
</event>
<event>
 7    1  0.2599124E-010  0.4778727E+02  0.7816164E-02  0.1312668E+00
        -11   -1    0    0    0    0  0.00000000000E+00  0.00000000000E+00  0.45593999997E+02  0.45594000000E+02  0.51100000000E-03 0. -1.
         11   -1    0    0    0    0 -0.00000000000E+00 -0.00000000000E+00 -0.45593999997E+02  0.45594000000E+02  0.51100000000E-03 0.  1.
    9900012    2    1    2    0    0  0.42615531871E+02 -0.80893030271E+01  0.14501052892E+01  0.47787272063E+02  0.20000004645E+02 0.  0.
         12    1    1    2    0    0 -0.42615531871E+02  0.80893030271E+01 -0.14501052892E+01  0.43400727937E+02  0.00000000000E+00 0. -1.
         11    1    3    3    0    0  0.98874625239E+01  0.21468813858E+01  0.14737757893E+01  0.10224628609E+02  0.51100000000E-03 0. -1.
        -11    1    3    3    0    0  0.10896101307E+02  0.22779285084E+01  0.44786156976E+01  0.11998832477E+02  0.51100000000E-03 0.  1.
        -12    1    3    3    0    0  0.21831968040E+02 -0.12514112921E+02 -0.45022861977E+01  0.25563810978E+02  0.00000000000E+00 0.  1.
</event>
<event>
 7    1  0.2599124E-010  0.4778729E+02  0.7816164E-02  0.1312668E+00
        -11   -1    0    0    0    0  0.00000000000E+00  0.00000000000E+00  0.45593999997E+02  0.45594000000E+02  0.51100000000E-03 0.  1.
         11   -1    0    0    0    0 -0.00000000000E+00 -0.00000000000E+00 -0.45593999997E+02  0.45594000000E+02  0.51100000000E-03 0. -1.
    9900012    2    1    2    0    0  0.13437777676E+02  0.39043838068E+02  0.13365136229E+02  0.47787285416E+02  0.20000065526E+02 0.  0.
         12    1    1    2    0    0 -0.13437777676E+02 -0.39043838068E+02 -0.13365136229E+02  0.43400714584E+02  0.00000000000E+00 0. -1.
         11    1    3    3    0    0  0.53381965904E+01  0.90876416935E+01 -0.12306711117E+01  0.10611132175E+02  0.51100000000E-03 0. -1.
        -11    1    3    3    0    0  0.65941207940E+00  0.92037548728E+01 -0.21703463258E+01  0.94791524666E+01  0.51100000000E-03 0.  1.
         12    1    3    3    0    0  0.74401690058E+01  0.20752441502E+02  0.16766153667E+02  0.27697000775E+02  0.00000000000E+00 0. -1.
</event>
<event>
 7    1  0.2599124E-010  0.4778727E+02  0.7816164E-02  0.1312668E+00
        -11   -1    0    0    0    0  0.00000000000E+00  0.00000000000E+00  0.45593999997E+02  0.45594000000E+02  0.51100000000E-03 0. -1.
         11   -1    0    0    0    0 -0.00000000000E+00 -0.00000000000E+00 -0.45593999997E+02  0.45594000000E+02  0.51100000000E-03 0.  1.
    9900012    2    1    2    0    0 -0.16689115128E+02  0.36789122301E+02  0.15863699409E+02  0.47787273712E+02  0.20000012161E+02 0.  0.
         12    1    1    2    0    0  0.16689115128E+02 -0.36789122301E+02 -0.15863699409E+02  0.43400726288E+02  0.00000000000E+00 0. -1.
         11    1    3    3    0    0 -0.49907562864E+01  0.16038117634E+01  0.37694558473E+00  0.52556587330E+01  0.51100000000E-03 0. -1.
        -11    1    3    3    0    0 -0.87139811723E+01  0.17373806939E+02  0.14850563226E+02  0.24460618631E+02  0.51100000000E-03 0.  1.
         12    1    3    3    0    0 -0.29843776688E+01  0.17811503599E+02  0.63619059832E+00  0.18070996348E+02  0.00000000000E+00 0. -1.
</event>
<event>
 7    1  0.2599124E-010  0.4778728E+02  0.7816164E-02  0.1312668E+00
        -11   -1    0    0    0    0  0.00000000000E+00  0.00000000000E+00  0.45593999997E+02  0.45594000000E+02  0.51100000000E-03 0. -1.
         11   -1    0    0    0    0 -0.00000000000E+00 -0.00000000000E+00 -0.45593999997E+02  0.45594000000E+02  0.51100000000E-03 0.  1.
    9900012    2    1    2    0    0 -0.36264257065E+02 -0.94357448678E+01  0.21897328703E+02  0.47787278508E+02  0.20000034030E+02 0.  0.
         12    1    1    2    0    0  0.36264257065E+02  0.94357448678E+01 -0.21897328703E+02  0.43400721492E+02  0.00000000000E+00 0. -1.
         11    1    3    3    0    0 -0.28655903292E+01 -0.24014837509E+01  0.43926144957E+01  0.57683441740E+01  0.51100000000E-03 0. -1.
        -11    1    3    3    0    0 -0.31432949424E+02 -0.10332729007E+02  0.18688605447E+02  0.38000783834E+02  0.51100000000E-03 0.  1.
         12    1    3    3    0    0 -0.19657173119E+01  0.32984678903E+01 -0.11838912393E+01  0.40181504999E+01  0.00000000000E+00 0. -1.
</event>
<event>
 7    1  0.2599124E-010  0.4778727E+02  0.7816164E-02  0.1312668E+00
        -11   -1    0    0    0    0  0.00000000000E+00  0.00000000000E+00  0.45593999997E+02  0.45594000000E+02  0.51100000000E-03 0. -1.
         11   -1    0    0    0    0 -0.00000000000E+00 -0.00000000000E+00 -0.45593999997E+02  0.45594000000E+02  0.51100000000E-03 0.  1.
    9900012    2    1    2    0    0 -0.25218195413E+02  0.33958624982E+02  0.97199696514E+01  0.47787269585E+02  0.19999993346E+02 0.  0.
         12    1    1    2    0    0  0.25218195413E+02 -0.33958624982E+02 -0.97199696514E+01  0.43400730415E+02  0.00000000000E+00 0. -1.
         11    1    3    3    0    0 -0.10447020585E+00  0.68399546979E+01  0.63525254231E+01  0.93354418109E+01  0.51100000000E-03 0. -1.
        -11    1    3    3    0    0 -0.11412031665E+01 -0.85686487041E+00 -0.18592956308E+00  0.14391428480E+01  0.51100000000E-03 0.  1.
        -12    1    3    3    0    0 -0.23972522040E+02  0.27975535154E+02  0.35533737915E+01  0.37012684926E+02  0.00000000000E+00 0.  1.
</event>
<event>
 7    1  0.2599124E-010  0.4778727E+02  0.7816164E-02  0.1312668E+00
        -11   -1    0    0    0    0  0.00000000000E+00  0.00000000000E+00  0.45593999997E+02  0.45594000000E+02  0.51100000000E-03 0.  1.
         11   -1    0    0    0    0 -0.00000000000E+00 -0.00000000000E+00 -0.45593999997E+02  0.45594000000E+02  0.51100000000E-03 0. -1.
    9900012    2    1    2    0    0 -0.21771657152E+02 -0.32733152480E+01  0.37401917536E+02  0.47787273241E+02  0.20000010013E+02 0.  0.
         12    1    1    2    0    0  0.21771657152E+02  0.32733152480E+01 -0.37401917536E+02  0.43400726759E+02  0.00000000000E+00 0. -1.
         11    1    3    3    0    0 -0.86960739900E+01  0.13989033492E+01  0.51108759381E+01  0.10183304303E+02  0.51100000000E-03 0. -1.
        -11    1    3    3    0    0 -0.13526240083E+02 -0.70578926767E+01  0.20436728721E+02  0.25503586040E+02  0.51100000000E-03 0.  1.
         12    1    3    3    0    0  0.45065692096E+00  0.23856740795E+01  0.11854312877E+02  0.12100382897E+02  0.00000000000E+00 0. -1.
</event>
<event>
 7    1  0.2599124E-010  0.4778723E+02  0.7816164E-02  0.1312668E+00
        -11   -1    0    0    0    0  0.00000000000E+00  0.00000000000E+00  0.45593999997E+02  0.45594000000E+02  0.51100000000E-03 0.  1.
         11   -1    0    0    0    0 -0.00000000000E+00 -0.00000000000E+00 -0.45593999997E+02  0.45594000000E+02  0.51100000000E-03 0. -1.
    9900012    2    1    2    0    0 -0.20722752733E+02  0.34708462338E+02  0.15796119478E+02  0.47787225477E+02  0.19999792237E+02 0.  0.
         12    1    1    2    0    0  0.20722752733E+02 -0.34708462338E+02 -0.15796119478E+02  0.43400774523E+02  0.00000000000E+00 0. -1.
         11    1    3    3    0    0 -0.29971703056E+01  0.15151641111E+01 -0.12954763694E+01  0.35995848940E+01  0.51100000000E-03 0. -1.
        -11    1    3    3    0    0 -0.75380239336E+01  0.32298166165E+01 -0.38721804657E-01  0.82009157927E+01  0.51100000000E-03 0.  1.
        -12    1    3    3    0    0 -0.10187558493E+02  0.29963481610E+02  0.17130317652E+02  0.35986724790E+02  0.00000000000E+00 0.  1.
</event>
<event>
 7    1  0.2599124E-010  0.4778727E+02  0.7816164E-02  0.1312668E+00
        -11   -1    0    0    0    0  0.00000000000E+00  0.00000000000E+00  0.45593999997E+02  0.45594000000E+02  0.51100000000E-03 0.  1.
         11   -1    0    0    0    0 -0.00000000000E+00 -0.00000000000E+00 -0.45593999997E+02  0.45594000000E+02  0.51100000000E-03 0. -1.
    9900012    2    1    2    0    0  0.29864920850E+02  0.27740633289E+02  0.14905263120E+02  0.47787273032E+02  0.20000009064E+02 0.  0.
         12    1    1    2    0    0 -0.29864920850E+02 -0.27740633289E+02 -0.14905263120E+02  0.43400726968E+02  0.00000000000E+00 0. -1.
         11    1    3    3    0    0 -0.62290484908E+00 -0.26859845505E+00  0.14477225243E+01  0.15987671342E+01  0.51100000000E-03 0. -1.
        -11    1    3    3    0    0  0.66152230092E+01 -0.79849099756E+00  0.32137613778E+01  0.73977716773E+01  0.51100000000E-03 0.  1.
        -12    1    3    3    0    0  0.23872602689E+02  0.28807722742E+02  0.10243779218E+02  0.38790734221E+02  0.00000000000E+00 0.  1.
</event>
<event>
 7    1  0.2599124E-010  0.4778727E+02  0.7816164E-02  0.1312668E+00
        -11   -1    0    0    0    0  0.00000000000E+00  0.00000000000E+00  0.45593999997E+02  0.45594000000E+02  0.51100000000E-03 0.  1.
         11   -1    0    0    0    0 -0.00000000000E+00 -0.00000000000E+00 -0.45593999997E+02  0.45594000000E+02  0.51100000000E-03 0. -1.
    9900012    2    1    2    0    0  0.32749254378E+01  0.24224365982E+02  0.35861932061E+02  0.47787271723E+02  0.20000003092E+02 0.  0.
         12    1    1    2    0    0 -0.32749254378E+01 -0.24224365982E+02 -0.35861932061E+02  0.43400728277E+02  0.00000000000E+00 0. -1.
         11    1    3    3    0    0  0.14855068187E+01 -0.86808354265E+00  0.31037978542E+01  0.35487830205E+01  0.51100000000E-03 0. -1.
        -11    1    3    3    0    0  0.68448887086E+00  0.16182954005E+02  0.31161692051E+02  0.35119902862E+02  0.51100000000E-03 0.  1.
        -12    1    3    3    0    0  0.11049297482E+01  0.89094955197E+01  0.15964421564E+01  0.91185858401E+01  0.00000000000E+00 0.  1.
</event>
<event>
 7    1  0.2659226E-010  0.4778728E+02  0.7816164E-02  0.1312668E+00
        -11   -1    0    0    0    0  0.00000000000E+00  0.00000000000E+00  0.45593999997E+02  0.45594000000E+02  0.51100000000E-03 0.  1.
         11   -1    0    0    0    0 -0.00000000000E+00 -0.00000000000E+00 -0.45593999997E+02  0.45594000000E+02  0.51100000000E-03 0. -1.
    9900012    2    1    2    0    0 -0.39822636248E+02  0.11487867740E+02  0.12876681981E+02  0.47787281092E+02  0.20000045809E+02 0.  0.
         12    1    1    2    0    0  0.39822636248E+02 -0.11487867740E+02 -0.12876681981E+02  0.43400718908E+02  0.00000000000E+00 0. -1.
         11    1    3    3    0    0 -0.11398844298E+02 -0.26862389241E+01  0.19197154338E+01  0.11867385495E+02  0.51100000000E-03 0. -1.
        -11    1    3    3    0    0 -0.18187158177E+01  0.30336195290E+01 -0.22548472127E+01  0.41946288138E+01  0.51100000000E-03 0.  1.
        -12    1    3    3    0    0 -0.26605076133E+02  0.11140487135E+02  0.13211813760E+02  0.31725266783E+02  0.00000000000E+00 0.  1.
</event>
<event>
 7    1  0.2599124E-010  0.4778724E+02  0.7816164E-02  0.1312668E+00
        -11   -1    0    0    0    0  0.00000000000E+00  0.00000000000E+00  0.45593999997E+02  0.45594000000E+02  0.51100000000E-03 0. -1.
         11   -1    0    0    0    0 -0.00000000000E+00 -0.00000000000E+00 -0.45593999997E+02  0.45594000000E+02  0.51100000000E-03 0.  1.
    9900012    2    1    2    0    0  0.16179705669E+01 -0.42724055552E+02 -0.74608004305E+01  0.47787236244E+02  0.19999841331E+02 0.  0.
         12    1    1    2    0    0 -0.16179705669E+01  0.42724055552E+02  0.74608004305E+01  0.43400763756E+02  0.00000000000E+00 0. -1.
         11    1    3    3    0    0 -0.40649184431E+01 -0.13505199469E+02 -0.28444425689E+01  0.14387662369E+02  0.51100000000E-03 0. -1.
        -11    1    3    3    0    0 -0.43199817634E+01 -0.51976294445E+01  0.84737669460E+00  0.68114346361E+01  0.51100000000E-03 0.  1.
         12    1    3    3    0    0  0.10002870773E+02 -0.24021226638E+02 -0.54637345562E+01  0.26588139239E+02  0.00000000000E+00 0. -1.
</event>
<event>
 7    1  0.2599124E-010  0.4778726E+02  0.7816164E-02  0.1312668E+00
        -11   -1    0    0    0    0  0.00000000000E+00  0.00000000000E+00  0.45593999997E+02  0.45594000000E+02  0.51100000000E-03 0. -1.
         11   -1    0    0    0    0 -0.00000000000E+00 -0.00000000000E+00 -0.45593999997E+02  0.45594000000E+02  0.51100000000E-03 0.  1.
    9900012    2    1    2    0    0 -0.24235390379E+02 -0.31032816456E+02 -0.18254697590E+02  0.47787264659E+02  0.19999970887E+02 0.  0.
         12    1    1    2    0    0  0.24235390379E+02  0.31032816456E+02  0.18254697590E+02  0.43400735341E+02  0.00000000000E+00 0. -1.
         11    1    3    3    0    0  0.81054238149E+00 -0.70066091535E+01 -0.46783593070E+01  0.84638405496E+01  0.51100000000E-03 0. -1.
        -11    1    3    3    0    0 -0.46529419606E+01 -0.24420507557E+01 -0.72643140583E+01  0.89656979528E+01  0.51100000000E-03 0.  1.
        -12    1    3    3    0    0 -0.20392990799E+02 -0.21584156547E+02 -0.63120242250E+01  0.30357726157E+02  0.00000000000E+00 0.  1.
</event>
<event>
 7    1  0.2599124E-010  0.4778727E+02  0.7816164E-02  0.1312668E+00
        -11   -1    0    0    0    0  0.00000000000E+00  0.00000000000E+00  0.45593999997E+02  0.45594000000E+02  0.51100000000E-03 0.  1.
         11   -1    0    0    0    0 -0.00000000000E+00 -0.00000000000E+00 -0.45593999997E+02  0.45594000000E+02  0.51100000000E-03 0. -1.
    9900012    2    1    2    0    0 -0.10329262875E+02  0.42083581193E+02 -0.24293024379E+01  0.47787274339E+02  0.20000015023E+02 0.  0.
         12    1    1    2    0    0  0.10329262875E+02 -0.42083581193E+02  0.24293024379E+01  0.43400725661E+02  0.00000000000E+00 0. -1.
         11    1    3    3    0    0 -0.82370400908E+00  0.13912914741E+02 -0.17760997986E+01  0.14049989881E+02  0.51100000000E-03 0. -1.
        -11    1    3    3    0    0 -0.11976248911E+02  0.27109227789E+02 -0.34744697997E+01  0.29839784013E+02  0.51100000000E-03 0.  1.
         12    1    3    3    0    0  0.24706900448E+01  0.10614386618E+01  0.28212671604E+01  0.38975004452E+01  0.00000000000E+00 0. -1.
</event>
<event>
 7    1  0.2599124E-010  0.4778727E+02  0.7816164E-02  0.1312668E+00
        -11   -1    0    0    0    0  0.00000000000E+00  0.00000000000E+00  0.45593999997E+02  0.45594000000E+02  0.51100000000E-03 0. -1.
         11   -1    0    0    0    0 -0.00000000000E+00 -0.00000000000E+00 -0.45593999997E+02  0.45594000000E+02  0.51100000000E-03 0.  1.
    9900012    2    1    2    0    0 -0.39523934076E+02  0.87603769465E+01 -0.15644095638E+02  0.47787270773E+02  0.19999998764E+02 0.  0.
         12    1    1    2    0    0  0.39523934076E+02 -0.87603769465E+01  0.15644095638E+02  0.43400729227E+02  0.00000000000E+00 0. -1.
         11    1    3    3    0    0 -0.53224057223E+01  0.44693803221E+01 -0.18774359877E+01  0.71991755976E+01  0.51100000000E-03 0. -1.
        -11    1    3    3    0    0 -0.46480526063E+01 -0.50961651014E+01 -0.44571475319E+01  0.82122747247E+01  0.51100000000E-03 0.  1.
        -12    1    3    3    0    0 -0.29553475747E+02  0.93871617258E+01 -0.93095121182E+01  0.32375820451E+02  0.00000000000E+00 0.  1.
</event>
<event>
 7    1  0.2599124E-010  0.4778727E+02  0.7816164E-02  0.1312668E+00
        -11   -1    0    0    0    0  0.00000000000E+00  0.00000000000E+00  0.45593999997E+02  0.45594000000E+02  0.51100000000E-03 0.  1.
         11   -1    0    0    0    0 -0.00000000000E+00 -0.00000000000E+00 -0.45593999997E+02  0.45594000000E+02  0.51100000000E-03 0. -1.
    9900012    2    1    2    0    0  0.33713337799E+02  0.27331646548E+02 -0.12261745381E+00  0.47787273236E+02  0.20000009991E+02 0.  0.
         12    1    1    2    0    0 -0.33713337799E+02 -0.27331646548E+02  0.12261745381E+00  0.43400726764E+02  0.00000000000E+00 0. -1.
         11    1    3    3    0    0  0.50780310621E+01  0.42309596442E+01 -0.58858869775E+01  0.88504850009E+01  0.51100000000E-03 0. -1.
        -11    1    3    3    0    0  0.15084374268E+02  0.80250466096E+01 -0.20575081480E+01  0.17209679258E+02  0.51100000000E-03 0.  1.
        -12    1    3    3    0    0  0.13550932470E+02  0.15075640295E+02  0.78207776717E+01  0.21727108976E+02  0.00000000000E+00 0.  1.
</event>
<event>
 7    1  0.2599124E-010  0.4778727E+02  0.7816164E-02  0.1312668E+00
        -11   -1    0    0    0    0  0.00000000000E+00  0.00000000000E+00  0.45593999997E+02  0.45594000000E+02  0.51100000000E-03 0. -1.
         11   -1    0    0    0    0 -0.00000000000E+00 -0.00000000000E+00 -0.45593999997E+02  0.45594000000E+02  0.51100000000E-03 0.  1.
    9900012    2    1    2    0    0  0.13366758539E+02 -0.14388008996E+02 -0.38703207088E+02  0.47787271025E+02  0.19999999910E+02 0.  0.
         12    1    1    2    0    0 -0.13366758539E+02  0.14388008996E+02  0.38703207088E+02  0.43400728975E+02  0.00000000000E+00 0. -1.
         11    1    3    3    0    0  0.53762608841E+01  0.47014180970E+00 -0.65434788128E+01  0.84818824355E+01  0.51100000000E-03 0. -1.
        -11    1    3    3    0    0  0.59427257264E+01 -0.97829845309E+01 -0.66981087836E+01  0.13262256103E+02  0.51100000000E-03 0.  1.
        -12    1    3    3    0    0  0.20477719284E+01 -0.50751662748E+01 -0.25461619491E+02  0.26043132487E+02  0.00000000000E+00 0.  1.
</event>
<event>
 7    1  0.2599124E-010  0.4778727E+02  0.7816164E-02  0.1312668E+00
        -11   -1    0    0    0    0  0.00000000000E+00  0.00000000000E+00  0.45593999997E+02  0.45594000000E+02  0.51100000000E-03 0. -1.
         11   -1    0    0    0    0 -0.00000000000E+00 -0.00000000000E+00 -0.45593999997E+02  0.45594000000E+02  0.51100000000E-03 0.  1.
    9900012    2    1    2    0    0 -0.35130890229E+01 -0.41173414828E+02 -0.13267678605E+02  0.47787272142E+02  0.20000005004E+02 0.  0.
         12    1    1    2    0    0  0.35130890229E+01  0.41173414828E+02  0.13267678605E+02  0.43400727858E+02  0.00000000000E+00 0. -1.
         11    1    3    3    0    0 -0.30966604915E+01 -0.11211179101E+02  0.26230927049E+01  0.11923106081E+02  0.51100000000E-03 0. -1.
        -11    1    3    3    0    0  0.11040054389E+01 -0.20127602957E+02 -0.43436193313E+01  0.20620530012E+02  0.51100000000E-03 0.  1.
         12    1    3    3    0    0 -0.15204339703E+01 -0.98346327696E+01 -0.11547151978E+02  0.15243636049E+02  0.00000000000E+00 0. -1.
</event>
<event>
 7    1  0.2599124E-010  0.4778728E+02  0.7816164E-02  0.1312668E+00
        -11   -1    0    0    0    0  0.00000000000E+00  0.00000000000E+00  0.45593999997E+02  0.45594000000E+02  0.51100000000E-03 0. -1.
         11   -1    0    0    0    0 -0.00000000000E+00 -0.00000000000E+00 -0.45593999997E+02  0.45594000000E+02  0.51100000000E-03 0.  1.
    9900012    2    1    2    0    0  0.28403869715E+02  0.73980257186E+01 -0.31970486797E+02  0.47787278516E+02  0.20000034065E+02 0.  0.
         12    1    1    2    0    0 -0.28403869715E+02 -0.73980257186E+01  0.31970486797E+02  0.43400721484E+02  0.00000000000E+00 0. -1.
         11    1    3    3    0    0  0.11447334422E+02  0.59270540121E+00 -0.76199789479E+01  0.13764332330E+02  0.51100000000E-03 0. -1.
        -11    1    3    3    0    0  0.50879804537E+01 -0.32869130468E+01 -0.14174945469E+02  0.15414941511E+02  0.51100000000E-03 0.  1.
         12    1    3    3    0    0  0.11868554840E+02  0.10092233364E+02 -0.10175562380E+02  0.18608004676E+02  0.00000000000E+00 0. -1.
</event>
<event>
 7    1  0.2599124E-010  0.4778727E+02  0.7816164E-02  0.1312668E+00
        -11   -1    0    0    0    0  0.00000000000E+00  0.00000000000E+00  0.45593999997E+02  0.45594000000E+02  0.51100000000E-03 0. -1.
         11   -1    0    0    0    0 -0.00000000000E+00 -0.00000000000E+00 -0.45593999997E+02  0.45594000000E+02  0.51100000000E-03 0.  1.
    9900012    2    1    2    0    0  0.29707542636E+02  0.13182604098E+02 -0.28762894910E+02  0.47787271159E+02  0.20000000522E+02 0.  0.
         12    1    1    2    0    0 -0.29707542636E+02 -0.13182604098E+02  0.28762894910E+02  0.43400728841E+02  0.00000000000E+00 0. -1.
         11    1    3    3    0    0  0.17907584422E+02 -0.51364474222E+00 -0.14032932207E+02  0.22756726420E+02  0.51100000000E-03 0. -1.
        -11    1    3    3    0    0  0.99669186371E+01  0.66886506125E+01 -0.52527243736E+01  0.13102237509E+02  0.51100000000E-03 0.  1.
         12    1    3    3    0    0  0.18330395771E+01  0.70075982280E+01 -0.94772383297E+01  0.11928307230E+02  0.00000000000E+00 0. -1.
</event>
<event>
 7    1  0.2599124E-010  0.4778727E+02  0.7816164E-02  0.1312668E+00
        -11   -1    0    0    0    0  0.00000000000E+00  0.00000000000E+00  0.45593999997E+02  0.45594000000E+02  0.51100000000E-03 0.  1.
         11   -1    0    0    0    0 -0.00000000000E+00 -0.00000000000E+00 -0.45593999997E+02  0.45594000000E+02  0.51100000000E-03 0. -1.
    9900012    2    1    2    0    0 -0.88670616024E+01 -0.19022849359E+02  0.37988542933E+02  0.47787274506E+02  0.20000015784E+02 0.  0.
         12    1    1    2    0    0  0.88670616024E+01  0.19022849359E+02 -0.37988542933E+02  0.43400725494E+02  0.00000000000E+00 0. -1.
         11    1    3    3    0    0 -0.54007292517E+01  0.98314462413E+00  0.11726608340E+02  0.12947887597E+02  0.51100000000E-03 0. -1.
        -11    1    3    3    0    0 -0.37367634253E+01 -0.92769486583E+01  0.20132818313E+02  0.22480114563E+02  0.51100000000E-03 0.  1.
         12    1    3    3    0    0  0.27043107460E+00 -0.10729045324E+02  0.61291162809E+01  0.12359272346E+02  0.00000000000E+00 0. -1.
</event>
<event>
 7    1  0.2599124E-010  0.4778727E+02  0.7816164E-02  0.1312668E+00
        -11   -1    0    0    0    0  0.00000000000E+00  0.00000000000E+00  0.45593999997E+02  0.45594000000E+02  0.51100000000E-03 0.  1.
         11   -1    0    0    0    0 -0.00000000000E+00 -0.00000000000E+00 -0.45593999997E+02  0.45594000000E+02  0.51100000000E-03 0. -1.
    9900012    2    1    2    0    0  0.31130211440E+02  0.13110399154E+02  0.27251613137E+02  0.47787273637E+02  0.20000011820E+02 0.  0.
         12    1    1    2    0    0 -0.31130211440E+02 -0.13110399154E+02 -0.27251613137E+02  0.43400726363E+02  0.00000000000E+00 0. -1.
         11    1    3    3    0    0  0.78047240945E+01  0.55219854963E+01  0.12994606534E+02  0.16132756777E+02  0.51100000000E-03 0. -1.
        -11    1    3    3    0    0  0.51108956827E+01  0.53800260088E+01  0.10610132448E+02  0.12947619293E+02  0.51100000000E-03 0.  1.
         12    1    3    3    0    0  0.18214591663E+02  0.22083876486E+01  0.36468741553E+01  0.18706897566E+02  0.00000000000E+00 0. -1.
</event>
<event>
 7    1  0.2599124E-010  0.4778727E+02  0.7816164E-02  0.1312668E+00
        -11   -1    0    0    0    0  0.00000000000E+00  0.00000000000E+00  0.45593999997E+02  0.45594000000E+02  0.51100000000E-03 0.  1.
         11   -1    0    0    0    0 -0.00000000000E+00 -0.00000000000E+00 -0.45593999997E+02  0.45594000000E+02  0.51100000000E-03 0. -1.
    9900012    2    1    2    0    0 -0.19525360599E+02  0.35771016500E+02  0.14927088187E+02  0.47787270862E+02  0.19999999167E+02 0.  0.
         12    1    1    2    0    0  0.19525360599E+02 -0.35771016500E+02 -0.14927088187E+02  0.43400729138E+02  0.00000000000E+00 0. -1.
         11    1    3    3    0    0  0.79461048336E+00  0.68818700104E+01 -0.12021722352E+01  0.70311278615E+01  0.51100000000E-03 0. -1.
        -11    1    3    3    0    0 -0.63124273941E+01  0.19384122313E+01  0.56632353942E+00  0.66275866042E+01  0.51100000000E-03 0.  1.
        -12    1    3    3    0    0 -0.14007543688E+02  0.26950734259E+02  0.15562936882E+02  0.34128556396E+02  0.00000000000E+00 0.  1.
</event>
<event>
 7    1  0.2599124E-010  0.4778727E+02  0.7816164E-02  0.1312668E+00
        -11   -1    0    0    0    0  0.00000000000E+00  0.00000000000E+00  0.45593999997E+02  0.45594000000E+02  0.51100000000E-03 0.  1.
         11   -1    0    0    0    0 -0.00000000000E+00 -0.00000000000E+00 -0.45593999997E+02  0.45594000000E+02  0.51100000000E-03 0. -1.
    9900012    2    1    2    0    0  0.11551619731E+02  0.60998198100E+01  0.41388108956E+02  0.47787270938E+02  0.19999999516E+02 0.  0.
         12    1    1    2    0    0 -0.11551619731E+02 -0.60998198100E+01 -0.41388108956E+02  0.43400729062E+02  0.00000000000E+00 0. -1.
         11    1    3    3    0    0 -0.28908527589E-01 -0.11955893394E+01 -0.10028633210E+01  0.15607705383E+01  0.51100000000E-03 0. -1.
        -11    1    3    3    0    0  0.57535911881E+01 -0.14466989324E+01  0.63706161464E+01  0.87052570156E+01  0.51100000000E-03 0.  1.
        -12    1    3    3    0    0  0.58269370703E+01  0.87421080818E+01  0.36020356131E+02  0.37521243384E+02  0.00000000000E+00 0.  1.
</event>
<event>
 7    1  0.2599124E-010  0.4778727E+02  0.7816164E-02  0.1312668E+00
        -11   -1    0    0    0    0  0.00000000000E+00  0.00000000000E+00  0.45593999997E+02  0.45594000000E+02  0.51100000000E-03 0.  1.
         11   -1    0    0    0    0 -0.00000000000E+00 -0.00000000000E+00 -0.45593999997E+02  0.45594000000E+02  0.51100000000E-03 0. -1.
    9900012    2    1    2    0    0  0.21443762515E+02  0.12237581159E+02  0.35693559042E+02  0.47787268433E+02  0.19999988095E+02 0.  0.
         12    1    1    2    0    0 -0.21443762515E+02 -0.12237581159E+02 -0.35693559042E+02  0.43400731567E+02  0.00000000000E+00 0. -1.
         11    1    3    3    0    0  0.68230157844E+01 -0.20841522476E+01  0.11072336795E+02  0.13171707458E+02  0.51100000000E-03 0. -1.
        -11    1    3    3    0    0  0.58083634232E+01 -0.16578135727E+01  0.52551428296E+01  0.80063698340E+01  0.51100000000E-03 0.  1.
         12    1    3    3    0    0  0.88123833075E+01  0.15979546979E+02  0.19366079417E+02  0.26609191141E+02  0.00000000000E+00 0. -1.
</event>
<event>
 7    1  0.2599124E-010  0.4778727E+02  0.7816164E-02  0.1312668E+00
        -11   -1    0    0    0    0  0.00000000000E+00  0.00000000000E+00  0.45593999997E+02  0.45594000000E+02  0.51100000000E-03 0. -1.
         11   -1    0    0    0    0 -0.00000000000E+00 -0.00000000000E+00 -0.45593999997E+02  0.45594000000E+02  0.51100000000E-03 0.  1.
    9900012    2    1    2    0    0 -0.14517094159E+02  0.39134618042E+02 -0.11889437383E+02  0.47787273354E+02  0.20000010530E+02 0.  0.
         12    1    1    2    0    0  0.14517094159E+02 -0.39134618042E+02  0.11889437383E+02  0.43400726646E+02  0.00000000000E+00 0. -1.
         11    1    3    3    0    0 -0.13621369540E+02  0.22278517150E+02 -0.85085903915E+01  0.27463979050E+02  0.51100000000E-03 0. -1.
        -11    1    3    3    0    0 -0.57660570155E+01  0.71930926223E+01 -0.16036632232E+01  0.93573356771E+01  0.51100000000E-03 0.  1.
         12    1    3    3    0    0  0.48703323959E+01  0.96630082696E+01 -0.17771837683E+01  0.10965958627E+02  0.00000000000E+00 0. -1.
</event>
<event>
 7    1  0.2599124E-010  0.4778727E+02  0.7816164E-02  0.1312668E+00
        -11   -1    0    0    0    0  0.00000000000E+00  0.00000000000E+00  0.45593999997E+02  0.45594000000E+02  0.51100000000E-03 0. -1.
         11   -1    0    0    0    0 -0.00000000000E+00 -0.00000000000E+00 -0.45593999997E+02  0.45594000000E+02  0.51100000000E-03 0.  1.
    9900012    2    1    2    0    0 -0.13707245863E+02  0.23447643303E+02 -0.33851774525E+02  0.47787271848E+02  0.20000003664E+02 0.  0.
         12    1    1    2    0    0  0.13707245863E+02 -0.23447643303E+02  0.33851774525E+02  0.43400728152E+02  0.00000000000E+00 0. -1.
         11    1    3    3    0    0  0.31096613939E+01  0.53084061474E+01 -0.24726263173E+01  0.66304638583E+01  0.51100000000E-03 0. -1.
        -11    1    3    3    0    0 -0.32444164602E+01  0.20214210654E+01 -0.11761398672E+02  0.12367007734E+02  0.51100000000E-03 0.  1.
        -12    1    3    3    0    0 -0.13572490797E+02  0.16117816090E+02 -0.19617749536E+02  0.28789800256E+02  0.00000000000E+00 0.  1.
</event>
<event>
 7    1  0.2599124E-010  0.4778727E+02  0.7816164E-02  0.1312668E+00
        -11   -1    0    0    0    0  0.00000000000E+00  0.00000000000E+00  0.45593999997E+02  0.45594000000E+02  0.51100000000E-03 0. -1.
         11   -1    0    0    0    0 -0.00000000000E+00 -0.00000000000E+00 -0.45593999997E+02  0.45594000000E+02  0.51100000000E-03 0.  1.
    9900012    2    1    2    0    0 -0.37835297731E+02  0.19583575518E+02  0.82823447734E+01  0.47787269367E+02  0.19999992354E+02 0.  0.
         12    1    1    2    0    0  0.37835297731E+02 -0.19583575518E+02 -0.82823447734E+01  0.43400730633E+02  0.00000000000E+00 0. -1.
         11    1    3    3    0    0 -0.11065662705E+02  0.84286986230E+01  0.87655151336E+01  0.16441596863E+02  0.51100000000E-03 0. -1.
        -11    1    3    3    0    0  0.10649875828E+01  0.15781933441E+01 -0.11433287115E+00  0.19073450263E+01  0.51100000000E-03 0.  1.
         12    1    3    3    0    0 -0.27834622609E+02  0.95766835512E+01 -0.36883748904E+00  0.29438327478E+02  0.00000000000E+00 0. -1.
</event>
<event>
 7    1  0.2599124E-010  0.4778727E+02  0.7816164E-02  0.1312668E+00
        -11   -1    0    0    0    0  0.00000000000E+00  0.00000000000E+00  0.45593999997E+02  0.45594000000E+02  0.51100000000E-03 0. -1.
         11   -1    0    0    0    0 -0.00000000000E+00 -0.00000000000E+00 -0.45593999997E+02  0.45594000000E+02  0.51100000000E-03 0.  1.
    9900012    2    1    2    0    0 -0.30028612886E+01  0.39656850122E+02 -0.17376431425E+02  0.47787270668E+02  0.19999998283E+02 0.  0.
         12    1    1    2    0    0  0.30028612886E+01 -0.39656850122E+02  0.17376431425E+02  0.43400729332E+02  0.00000000000E+00 0. -1.
         11    1    3    3    0    0 -0.16722619459E+01  0.15930852737E+02 -0.56292407182E+00  0.16028269174E+02  0.51100000000E-03 0. -1.
        -11    1    3    3    0    0 -0.23689992825E+01  0.21885274309E+02 -0.92011590716E+01  0.23858724142E+02  0.51100000000E-03 0.  1.
         12    1    3    3    0    0  0.10383999398E+01  0.18407230758E+01 -0.76123482811E+01  0.79002773514E+01  0.00000000000E+00 0. -1.
</event>
<event>
 7    1  0.2599124E-010  0.4778727E+02  0.7816164E-02  0.1312668E+00
        -11   -1    0    0    0    0  0.00000000000E+00  0.00000000000E+00  0.45593999997E+02  0.45594000000E+02  0.51100000000E-03 0.  1.
         11   -1    0    0    0    0 -0.00000000000E+00 -0.00000000000E+00 -0.45593999997E+02  0.45594000000E+02  0.51100000000E-03 0. -1.
    9900012    2    1    2    0    0  0.17466486841E+02 -0.26901665239E+02  0.29237744539E+02  0.47787268889E+02  0.19999990173E+02 0.  0.
         12    1    1    2    0    0 -0.17466486841E+02  0.26901665239E+02 -0.29237744539E+02  0.43400731111E+02  0.00000000000E+00 0. -1.
         11    1    3    3    0    0  0.67471846624E+01 -0.13422084110E+02  0.10503131014E+02  0.18330101038E+02  0.51100000000E-03 0. -1.
        -11    1    3    3    0    0  0.71432640851E+01 -0.14689333788E+02  0.19670101616E+02  0.25567863555E+02  0.51100000000E-03 0.  1.
         12    1    3    3    0    0  0.35760380934E+01  0.12097526586E+01 -0.93548809013E+00  0.38893042960E+01  0.00000000000E+00 0. -1.
</event>
<event>
 7    1  0.2599124E-010  0.4778727E+02  0.7816164E-02  0.1312668E+00
        -11   -1    0    0    0    0  0.00000000000E+00  0.00000000000E+00  0.45593999997E+02  0.45594000000E+02  0.51100000000E-03 0. -1.
         11   -1    0    0    0    0 -0.00000000000E+00 -0.00000000000E+00 -0.45593999997E+02  0.45594000000E+02  0.51100000000E-03 0.  1.
    9900012    2    1    2    0    0 -0.35343779735E+02  0.24545660332E+02 -0.56525247020E+01  0.47787271405E+02  0.20000001644E+02 0.  0.
         12    1    1    2    0    0  0.35343779735E+02 -0.24545660332E+02  0.56525247020E+01  0.43400728595E+02  0.00000000000E+00 0. -1.
         11    1    3    3    0    0 -0.54216088756E+01  0.37284397716E+01  0.73676347425E+00  0.66210215683E+01  0.51100000000E-03 0. -1.
        -11    1    3    3    0    0 -0.28174478637E+02  0.21648609918E+02 -0.10136483329E+02  0.36948773354E+02  0.51100000000E-03 0.  1.
         12    1    3    3    0    0 -0.17476922223E+01 -0.83138935781E+00  0.37471951525E+01  0.42174764824E+01  0.00000000000E+00 0. -1.
</event>
<event>
 7    1  0.2599124E-010  0.4778727E+02  0.7816164E-02  0.1312668E+00
        -11   -1    0    0    0    0  0.00000000000E+00  0.00000000000E+00  0.45593999997E+02  0.45594000000E+02  0.51100000000E-03 0.  1.
         11   -1    0    0    0    0 -0.00000000000E+00 -0.00000000000E+00 -0.45593999997E+02  0.45594000000E+02  0.51100000000E-03 0. -1.
    9900012    2    1    2    0    0 -0.31909878719E+02  0.45253346605E+01  0.29067237869E+02  0.47787270387E+02  0.19999997000E+02 0.  0.
         12    1    1    2    0    0  0.31909878719E+02 -0.45253346605E+01 -0.29067237869E+02  0.43400729613E+02  0.00000000000E+00 0. -1.
         11    1    3    3    0    0 -0.29714122002E+01  0.13515557371E+01  0.45028902147E+01  0.55616556816E+01  0.51100000000E-03 0. -1.
        -11    1    3    3    0    0 -0.15589655140E+02 -0.62049761350E+00  0.23630721485E+02  0.28316662282E+02  0.51100000000E-03 0.  1.
         12    1    3    3    0    0 -0.13348811379E+02  0.37942765369E+01  0.93362616975E+00  0.13908952422E+02  0.00000000000E+00 0. -1.
</event>
<event>
 7    1  0.2599124E-010  0.4778727E+02  0.7816164E-02  0.1312668E+00
        -11   -1    0    0    0    0  0.00000000000E+00  0.00000000000E+00  0.45593999997E+02  0.45594000000E+02  0.51100000000E-03 0.  1.
         11   -1    0    0    0    0 -0.00000000000E+00 -0.00000000000E+00 -0.45593999997E+02  0.45594000000E+02  0.51100000000E-03 0. -1.
    9900012    2    1    2    0    0 -0.26443051526E+02  0.19859752810E+02  0.28106557573E+02  0.47787270348E+02  0.19999996826E+02 0.  0.
         12    1    1    2    0    0  0.26443051526E+02 -0.19859752810E+02 -0.28106557573E+02  0.43400729652E+02  0.00000000000E+00 0. -1.
         11    1    3    3    0    0 -0.36241164162E+01  0.10222559411E+02  0.53818278471E+01  0.12107807892E+02  0.51100000000E-03 0. -1.
        -11    1    3    3    0    0 -0.73442395559E+00  0.36324412288E+01  0.69722146690E+01  0.78959347438E+01  0.51100000000E-03 0.  1.
        -12    1    3    3    0    0 -0.22084511154E+02  0.60047521708E+01  0.15752515057E+02  0.27783527713E+02  0.00000000000E+00 0.  1.
</event>
<event>
 7    1  0.2599124E-010  0.4778728E+02  0.7816164E-02  0.1312668E+00
        -11   -1    0    0    0    0  0.00000000000E+00  0.00000000000E+00  0.45593999997E+02  0.45594000000E+02  0.51100000000E-03 0. -1.
         11   -1    0    0    0    0 -0.00000000000E+00 -0.00000000000E+00 -0.45593999997E+02  0.45594000000E+02  0.51100000000E-03 0.  1.
    9900012    2    1    2    0    0 -0.35357733989E+02 -0.32940359474E+00 -0.25166347075E+02  0.47787275529E+02  0.20000020445E+02 0.  0.
         12    1    1    2    0    0  0.35357733989E+02  0.32940359474E+00  0.25166347075E+02  0.43400724471E+02  0.00000000000E+00 0. -1.
         11    1    3    3    0    0 -0.14874225748E+02 -0.51542650603E+01 -0.28959956534E+01  0.16006118549E+02  0.51100000000E-03 0. -1.
        -11    1    3    3    0    0 -0.71815143751E+01  0.13563244727E+01 -0.25464315599E+01  0.77393849075E+01  0.51100000000E-03 0.  1.
        -12    1    3    3    0    0 -0.13301993866E+02  0.34685369928E+01 -0.19723919861E+02  0.24041772073E+02  0.00000000000E+00 0.  1.
</event>
<event>
 7    1  0.2599124E-010  0.4778727E+02  0.7816164E-02  0.1312668E+00
        -11   -1    0    0    0    0  0.00000000000E+00  0.00000000000E+00  0.45593999997E+02  0.45594000000E+02  0.51100000000E-03 0.  1.
         11   -1    0    0    0    0 -0.00000000000E+00 -0.00000000000E+00 -0.45593999997E+02  0.45594000000E+02  0.51100000000E-03 0. -1.
    9900012    2    1    2    0    0  0.41496705197E+02 -0.89521894844E+01  0.90280211124E+01  0.47787269545E+02  0.19999993165E+02 0.  0.
         12    1    1    2    0    0 -0.41496705197E+02  0.89521894844E+01 -0.90280211124E+01  0.43400730455E+02  0.00000000000E+00 0. -1.
         11    1    3    3    0    0  0.16910744708E+02 -0.95678164787E+01  0.10453011720E+01  0.19457878958E+02  0.51100000000E-03 0. -1.
        -11    1    3    3    0    0  0.16850020307E+02 -0.50140703298E+01  0.44931397003E+01  0.18145313176E+02  0.51100000000E-03 0.  1.
         12    1    3    3    0    0  0.77359401817E+01  0.56296973242E+01  0.34895802401E+01  0.10184077411E+02  0.00000000000E+00 0. -1.
</event>
<event>
 7    1  0.2599124E-010  0.4778727E+02  0.7816164E-02  0.1312668E+00
        -11   -1    0    0    0    0  0.00000000000E+00  0.00000000000E+00  0.45593999997E+02  0.45594000000E+02  0.51100000000E-03 0. -1.
         11   -1    0    0    0    0 -0.00000000000E+00 -0.00000000000E+00 -0.45593999997E+02  0.45594000000E+02  0.51100000000E-03 0.  1.
    9900012    2    1    2    0    0  0.37088371079E+02  0.16022177675E+02 -0.15854520781E+02  0.47787271020E+02  0.19999999891E+02 0.  0.
         12    1    1    2    0    0 -0.37088371079E+02 -0.16022177675E+02  0.15854520781E+02  0.43400728980E+02  0.00000000000E+00 0. -1.
         11    1    3    3    0    0  0.34257432831E+01 -0.28020064463E+01 -0.22931833005E+01  0.49845408091E+01  0.51100000000E-03 0. -1.
        -11    1    3    3    0    0  0.21901950582E+02  0.86549743214E+01 -0.13718507443E+02  0.27254384354E+02  0.51100000000E-03 0.  1.
         12    1    3    3    0    0  0.11760677214E+02  0.10169209800E+02  0.15716996257E+00  0.15548345857E+02  0.00000000000E+00 0. -1.
</event>
<event>
 7    1  0.2599124E-010  0.4778727E+02  0.7816164E-02  0.1312668E+00
        -11   -1    0    0    0    0  0.00000000000E+00  0.00000000000E+00  0.45593999997E+02  0.45594000000E+02  0.51100000000E-03 0.  1.
         11   -1    0    0    0    0 -0.00000000000E+00 -0.00000000000E+00 -0.45593999997E+02  0.45594000000E+02  0.51100000000E-03 0. -1.
    9900012    2    1    2    0    0  0.30705358768E+01 -0.33329533730E+01  0.43163484167E+02  0.47787272653E+02  0.20000007335E+02 0.  0.
         12    1    1    2    0    0 -0.30705358768E+01  0.33329533730E+01 -0.43163484167E+02  0.43400727347E+02  0.00000000000E+00 0. -1.
         11    1    3    3    0    0 -0.19006864306E+01 -0.10490076600E+02  0.22561024194E+02  0.24953038470E+02  0.51100000000E-03 0. -1.
        -11    1    3    3    0    0  0.13404753387E+01  0.17073444754E+01  0.14947864799E+01  0.26355808037E+01  0.51100000000E-03 0.  1.
        -12    1    3    3    0    0  0.36307469687E+01  0.54497787512E+01  0.19107673494E+02  0.20198653379E+02  0.00000000000E+00 0.  1.
</event>
<event>
 7    1  0.2599124E-010  0.4778727E+02  0.7816164E-02  0.1312668E+00
        -11   -1    0    0    0    0  0.00000000000E+00  0.00000000000E+00  0.45593999997E+02  0.45594000000E+02  0.51100000000E-03 0. -1.
         11   -1    0    0    0    0 -0.00000000000E+00 -0.00000000000E+00 -0.45593999997E+02  0.45594000000E+02  0.51100000000E-03 0.  1.
    9900012    2    1    2    0    0  0.14480925437E+02 -0.39814599666E+02 -0.94193459981E+01  0.47787266975E+02  0.19999981446E+02 0.  0.
         12    1    1    2    0    0 -0.14480925437E+02  0.39814599666E+02  0.94193459981E+01  0.43400733025E+02  0.00000000000E+00 0. -1.
         11    1    3    3    0    0 -0.97084993254E+00 -0.17527542616E+01  0.40815630369E+00  0.20448200220E+01  0.51100000000E-03 0. -1.
        -11    1    3    3    0    0  0.14674379286E+02 -0.39839697886E+02 -0.82699495310E+01  0.43254259913E+02  0.51100000000E-03 0.  1.
        -12    1    3    3    0    0  0.77739608272E+00  0.17778524814E+01 -0.15575527708E+01  0.24881870406E+01  0.00000000000E+00 0.  1.
</event>
<event>
 7    1  0.2599124E-010  0.4778721E+02  0.7816164E-02  0.1312668E+00
        -11   -1    0    0    0    0  0.00000000000E+00  0.00000000000E+00  0.45593999997E+02  0.45594000000E+02  0.51100000000E-03 0. -1.
         11   -1    0    0    0    0 -0.00000000000E+00 -0.00000000000E+00 -0.45593999997E+02  0.45594000000E+02  0.51100000000E-03 0.  1.
    9900012    2    1    2    0    0  0.23442218700E+02  0.13711158637E+02 -0.33854020166E+02  0.47787214637E+02  0.19999742815E+02 0.  0.
         12    1    1    2    0    0 -0.23442218700E+02 -0.13711158637E+02  0.33854020166E+02  0.43400785363E+02  0.00000000000E+00 0. -1.
         11    1    3    3    0    0  0.11797601644E+02  0.11128286290E+02 -0.98819906699E+01  0.18991469142E+02  0.51100000000E-03 0. -1.
        -11    1    3    3    0    0  0.10189196850E+02  0.50641754211E+01 -0.12221503045E+02  0.16698225717E+02  0.51100000000E-03 0.  1.
        -12    1    3    3    0    0  0.14554202055E+01 -0.24813030745E+01 -0.11750526451E+02  0.12097519779E+02  0.00000000000E+00 0.  1.
</event>
<event>
 7    1  0.2599124E-010  0.4778727E+02  0.7816164E-02  0.1312668E+00
        -11   -1    0    0    0    0  0.00000000000E+00  0.00000000000E+00  0.45593999997E+02  0.45594000000E+02  0.51100000000E-03 0. -1.
         11   -1    0    0    0    0 -0.00000000000E+00 -0.00000000000E+00 -0.45593999997E+02  0.45594000000E+02  0.51100000000E-03 0.  1.
    9900012    2    1    2    0    0  0.33584970498E+02  0.24558941867E+02 -0.12350357396E+02  0.47787271932E+02  0.20000004048E+02 0.  0.
         12    1    1    2    0    0 -0.33584970498E+02 -0.24558941867E+02  0.12350357396E+02  0.43400728068E+02  0.00000000000E+00 0. -1.
         11    1    3    3    0    0  0.23220955579E+02  0.13711515757E+02 -0.40553957922E+01  0.27270215944E+02  0.51100000000E-03 0. -1.
        -11    1    3    3    0    0  0.10858032936E+02  0.58302464312E+01 -0.92199860418E+01  0.15391452029E+02  0.51100000000E-03 0.  1.
         12    1    3    3    0    0 -0.49401801705E+00  0.50171796795E+01  0.92502443773E+00  0.51256039594E+01  0.00000000000E+00 0. -1.
</event>
<event>
 7    1  0.2599124E-010  0.4778727E+02  0.7816164E-02  0.1312668E+00
        -11   -1    0    0    0    0  0.00000000000E+00  0.00000000000E+00  0.45593999997E+02  0.45594000000E+02  0.51100000000E-03 0. -1.
         11   -1    0    0    0    0 -0.00000000000E+00 -0.00000000000E+00 -0.45593999997E+02  0.45594000000E+02  0.51100000000E-03 0.  1.
    9900012    2    1    2    0    0 -0.38522562961E+02 -0.34881703439E+01 -0.19684202242E+02  0.47787274115E+02  0.20000013999E+02 0.  0.
         12    1    1    2    0    0  0.38522562961E+02  0.34881703439E+01  0.19684202242E+02  0.43400725885E+02  0.00000000000E+00 0. -1.
         11    1    3    3    0    0 -0.67529932807E+01  0.25953487871E+01 -0.71690502043E+01  0.10184990656E+02  0.51100000000E-03 0. -1.
        -11    1    3    3    0    0 -0.17129309173E+02 -0.62019209543E+01 -0.13873433144E+02  0.22898672532E+02  0.51100000000E-03 0.  1.
        -12    1    3    3    0    0 -0.14640260507E+02  0.11840182324E+00  0.13582811060E+01  0.14703610927E+02  0.00000000000E+00 0.  1.
</event>
<event>
 7    1  0.2599124E-010  0.4778727E+02  0.7816164E-02  0.1312668E+00
        -11   -1    0    0    0    0  0.00000000000E+00  0.00000000000E+00  0.45593999997E+02  0.45594000000E+02  0.51100000000E-03 0. -1.
         11   -1    0    0    0    0 -0.00000000000E+00 -0.00000000000E+00 -0.45593999997E+02  0.45594000000E+02  0.51100000000E-03 0.  1.
    9900012    2    1    2    0    0  0.25172138240E+02 -0.14289572580E+02 -0.32338756002E+02  0.47787267658E+02  0.19999984559E+02 0.  0.
         12    1    1    2    0    0 -0.25172138240E+02  0.14289572580E+02  0.32338756002E+02  0.43400732342E+02  0.00000000000E+00 0. -1.
         11    1    3    3    0    0  0.65049818904E+01 -0.11649052329E+01 -0.16824778755E+02  0.18076088460E+02  0.51100000000E-03 0. -1.
        -11    1    3    3    0    0  0.76726942774E+01  0.64348241332E-01 -0.76169416582E+01  0.10811668634E+02  0.51100000000E-03 0.  1.
        -12    1    3    3    0    0  0.10994462072E+02 -0.13189015589E+02 -0.78970355886E+01  0.18899510564E+02  0.00000000000E+00 0.  1.
</event>
<event>
 7    1  0.3523019E-010  0.4778727E+02  0.7816164E-02  0.1312668E+00
        -11   -1    0    0    0    0  0.00000000000E+00  0.00000000000E+00  0.45593999997E+02  0.45594000000E+02  0.51100000000E-03 0.  1.
         11   -1    0    0    0    0 -0.00000000000E+00 -0.00000000000E+00 -0.45593999997E+02  0.45594000000E+02  0.51100000000E-03 0. -1.
    9900012    2    1    2    0    0  0.20758096928E+02 -0.37013501228E+02  0.90953494802E+01  0.47787271396E+02  0.20000001601E+02 0.  0.
         12    1    1    2    0    0 -0.20758096928E+02  0.37013501228E+02 -0.90953494802E+01  0.43400728604E+02  0.00000000000E+00 0. -1.
         11    1    3    3    0    0  0.22730463466E+00  0.23399794056E+00  0.25700468390E+01  0.25906685332E+01  0.51100000000E-03 0. -1.
        -11    1    3    3    0    0  0.14227992105E+02 -0.11749047854E+02  0.23531193685E+01  0.18601426177E+02  0.51100000000E-03 0.  1.
        -12    1    3    3    0    0  0.63028001883E+01 -0.25498451314E+02  0.41721832727E+01  0.26595176685E+02  0.00000000000E+00 0.  1.
</event>
<event>
 7    1  0.2599124E-010  0.4778727E+02  0.7816164E-02  0.1312668E+00
        -11   -1    0    0    0    0  0.00000000000E+00  0.00000000000E+00  0.45593999997E+02  0.45594000000E+02  0.51100000000E-03 0. -1.
         11   -1    0    0    0    0 -0.00000000000E+00 -0.00000000000E+00 -0.45593999997E+02  0.45594000000E+02  0.51100000000E-03 0.  1.
    9900012    2    1    2    0    0  0.19031902747E+02 -0.18959001706E+02 -0.34087624509E+02  0.47787271751E+02  0.20000003224E+02 0.  0.
         12    1    1    2    0    0 -0.19031902747E+02  0.18959001706E+02  0.34087624509E+02  0.43400728249E+02  0.00000000000E+00 0. -1.
         11    1    3    3    0    0 -0.29505739310E+00 -0.16719680512E+01  0.96220881654E+00  0.19515076473E+01  0.51100000000E-03 0. -1.
        -11    1    3    3    0    0  0.40501519693E+01 -0.12299330271E+02 -0.11458346597E+02  0.17290776821E+02  0.51100000000E-03 0.  1.
        -12    1    3    3    0    0  0.15276808170E+02 -0.49877033840E+01 -0.23591486729E+02  0.28544987283E+02  0.00000000000E+00 0.  1.
</event>
<event>
 7    1  0.2599124E-010  0.4778727E+02  0.7816164E-02  0.1312668E+00
        -11   -1    0    0    0    0  0.00000000000E+00  0.00000000000E+00  0.45593999997E+02  0.45594000000E+02  0.51100000000E-03 0.  1.
         11   -1    0    0    0    0 -0.00000000000E+00 -0.00000000000E+00 -0.45593999997E+02  0.45594000000E+02  0.51100000000E-03 0. -1.
    9900012    2    1    2    0    0 -0.25585420661E+02  0.28049338179E+02  0.21029608587E+02  0.47787267748E+02  0.19999984970E+02 0.  0.
         12    1    1    2    0    0  0.25585420661E+02 -0.28049338179E+02 -0.21029608587E+02  0.43400732252E+02  0.00000000000E+00 0. -1.
         11    1    3    3    0    0 -0.58831208409E+01  0.61127091983E+01 -0.69426079409E+00  0.85122454666E+01  0.51100000000E-03 0. -1.
        -11    1    3    3    0    0 -0.10420180391E+02  0.21010634755E+01  0.51574624030E+01  0.11814992417E+02  0.51100000000E-03 0.  1.
         12    1    3    3    0    0 -0.92821194294E+01  0.19835565505E+02  0.16566406978E+02  0.27460029865E+02  0.00000000000E+00 0. -1.
</event>
<event>
 7    1  0.2599124E-010  0.4778727E+02  0.7816164E-02  0.1312668E+00
        -11   -1    0    0    0    0  0.00000000000E+00  0.00000000000E+00  0.45593999997E+02  0.45594000000E+02  0.51100000000E-03 0.  1.
         11   -1    0    0    0    0 -0.00000000000E+00 -0.00000000000E+00 -0.45593999997E+02  0.45594000000E+02  0.51100000000E-03 0. -1.
    9900012    2    1    2    0    0  0.38325618515E+02  0.72940512560E+01  0.19014913405E+02  0.47787272470E+02  0.20000006502E+02 0.  0.
         12    1    1    2    0    0 -0.38325618515E+02 -0.72940512560E+01 -0.19014913405E+02  0.43400727530E+02  0.00000000000E+00 0. -1.
         11    1    3    3    0    0  0.21349571015E+02  0.67491266841E+01  0.66050725021E+01  0.23344846895E+02  0.51100000000E-03 0. -1.
        -11    1    3    3    0    0  0.17497579721E+02  0.31217941196E+01  0.84278226495E+01  0.19670767384E+02  0.51100000000E-03 0.  1.
        -12    1    3    3    0    0 -0.52153222096E+00 -0.25768695477E+01  0.39820182533E+01  0.47716581911E+01  0.00000000000E+00 0.  1.
</event>
<event>
 7    1  0.2599124E-010  0.4778727E+02  0.7816164E-02  0.1312668E+00
        -11   -1    0    0    0    0  0.00000000000E+00  0.00000000000E+00  0.45593999997E+02  0.45594000000E+02  0.51100000000E-03 0.  1.
         11   -1    0    0    0    0 -0.00000000000E+00 -0.00000000000E+00 -0.45593999997E+02  0.45594000000E+02  0.51100000000E-03 0. -1.
    9900012    2    1    2    0    0 -0.55252113116E+01  0.52844317384E+01  0.42722009239E+02  0.47787271293E+02  0.20000001134E+02 0.  0.
         12    1    1    2    0    0  0.55252113116E+01 -0.52844317384E+01 -0.42722009239E+02  0.43400728707E+02  0.00000000000E+00 0. -1.
         11    1    3    3    0    0 -0.67344585717E+01  0.51912044242E+01  0.28434658492E+02  0.29678802864E+02  0.51100000000E-03 0. -1.
        -11    1    3    3    0    0 -0.36929630297E+01 -0.34430531598E+01  0.58184191677E+01  0.77036739854E+01  0.51100000000E-03 0.  1.
         12    1    3    3    0    0  0.49022102899E+01  0.35362804740E+01  0.84689315799E+01  0.10404794444E+02  0.00000000000E+00 0. -1.
</event>
<event>
 7    1  0.2599124E-010  0.4778727E+02  0.7816164E-02  0.1312668E+00
        -11   -1    0    0    0    0  0.00000000000E+00  0.00000000000E+00  0.45593999997E+02  0.45594000000E+02  0.51100000000E-03 0. -1.
         11   -1    0    0    0    0 -0.00000000000E+00 -0.00000000000E+00 -0.45593999997E+02  0.45594000000E+02  0.51100000000E-03 0.  1.
    9900012    2    1    2    0    0  0.34354091512E+02 -0.26478812193E+02 -0.15139430116E+01  0.47787272792E+02  0.20000007966E+02 0.  0.
         12    1    1    2    0    0 -0.34354091512E+02  0.26478812193E+02  0.15139430116E+01  0.43400727208E+02  0.00000000000E+00 0. -1.
         11    1    3    3    0    0  0.83398916078E+01 -0.72093981044E+01  0.14861471231E+01  0.11123751462E+02  0.51100000000E-03 0. -1.
        -11    1    3    3    0    0  0.22783653318E+02 -0.21320174363E+02 -0.60326103631E+01  0.31781080558E+02  0.51100000000E-03 0.  1.
         12    1    3    3    0    0  0.32305465861E+01  0.20507602747E+01  0.30325202284E+01  0.48824407712E+01  0.00000000000E+00 0. -1.
</event>
<event>
 7    1  0.2599124E-010  0.4778727E+02  0.7816164E-02  0.1312668E+00
        -11   -1    0    0    0    0  0.00000000000E+00  0.00000000000E+00  0.45593999997E+02  0.45594000000E+02  0.51100000000E-03 0.  1.
         11   -1    0    0    0    0 -0.00000000000E+00 -0.00000000000E+00 -0.45593999997E+02  0.45594000000E+02  0.51100000000E-03 0. -1.
    9900012    2    1    2    0    0 -0.28700727058E+01 -0.43188750820E+02  0.31808908160E+01  0.47787267505E+02  0.19999983864E+02 0.  0.
         12    1    1    2    0    0  0.28700727058E+01  0.43188750820E+02 -0.31808908160E+01  0.43400732495E+02  0.00000000000E+00 0. -1.
         11    1    3    3    0    0 -0.93207518692E+00 -0.11099588221E+02  0.48192929990E+01  0.12136523724E+02  0.51100000000E-03 0. -1.
        -11    1    3    3    0    0 -0.11607173022E+01 -0.12592635731E+02  0.68388310036E+01  0.14376764207E+02  0.51100000000E-03 0.  1.
         12    1    3    3    0    0 -0.77728021663E+00 -0.19496526867E+02 -0.84772331866E+01  0.21273979574E+02  0.00000000000E+00 0. -1.
</event>
<event>
 7    1  0.2599124E-010  0.4778727E+02  0.7816164E-02  0.1312668E+00
        -11   -1    0    0    0    0  0.00000000000E+00  0.00000000000E+00  0.45593999997E+02  0.45594000000E+02  0.51100000000E-03 0.  1.
         11   -1    0    0    0    0 -0.00000000000E+00 -0.00000000000E+00 -0.45593999997E+02  0.45594000000E+02  0.51100000000E-03 0. -1.
    9900012    2    1    2    0    0 -0.97089545383E+00  0.34767147864E+02  0.25960090697E+02  0.47787268237E+02  0.19999987198E+02 0.  0.
         12    1    1    2    0    0  0.97089545383E+00 -0.34767147864E+02 -0.25960090697E+02  0.43400731763E+02  0.00000000000E+00 0. -1.
         11    1    3    3    0    0 -0.40268517053E+01  0.52218076288E+01  0.88092963498E+01  0.11003931661E+02  0.51100000000E-03 0. -1.
        -11    1    3    3    0    0  0.96991361175E+00  0.34321184952E+01 -0.22217454742E+01  0.42019427641E+01  0.51100000000E-03 0.  1.
        -12    1    3    3    0    0  0.20860426397E+01  0.26113221740E+02  0.19372539822E+02  0.32581393811E+02  0.00000000000E+00 0.  1.
</event>
<event>
 7    1  0.2599124E-010  0.4778727E+02  0.7816164E-02  0.1312668E+00
        -11   -1    0    0    0    0  0.00000000000E+00  0.00000000000E+00  0.45593999997E+02  0.45594000000E+02  0.51100000000E-03 0.  1.
         11   -1    0    0    0    0 -0.00000000000E+00 -0.00000000000E+00 -0.45593999997E+02  0.45594000000E+02  0.51100000000E-03 0. -1.
    9900012    2    1    2    0    0 -0.19152884999E+02 -0.30594845816E+01  0.38825635945E+02  0.47787268944E+02  0.19999990422E+02 0.  0.
         12    1    1    2    0    0  0.19152884999E+02  0.30594845816E+01 -0.38825635945E+02  0.43400731056E+02  0.00000000000E+00 0. -1.
         11    1    3    3    0    0 -0.54775282853E+01  0.38439601663E+01  0.95354157753E+01  0.11649184527E+02  0.51100000000E-03 0. -1.
        -11    1    3    3    0    0 -0.13725339050E+01  0.35187225000E+01  0.11613391750E+02  0.12212130263E+02  0.51100000000E-03 0.  1.
         12    1    3    3    0    0 -0.12302822808E+02 -0.10422167248E+02  0.17676828420E+02  0.23925954154E+02  0.00000000000E+00 0. -1.
</event>
<event>
 7    1  0.2599124E-010  0.4778727E+02  0.7816164E-02  0.1312668E+00
        -11   -1    0    0    0    0  0.00000000000E+00  0.00000000000E+00  0.45593999997E+02  0.45594000000E+02  0.51100000000E-03 0.  1.
         11   -1    0    0    0    0 -0.00000000000E+00 -0.00000000000E+00 -0.45593999997E+02  0.45594000000E+02  0.51100000000E-03 0. -1.
    9900012    2    1    2    0    0 -0.21852154583E+02 -0.13123424118E+02  0.35126658918E+02  0.47787273195E+02  0.20000009803E+02 0.  0.
         12    1    1    2    0    0  0.21852154583E+02  0.13123424118E+02 -0.35126658918E+02  0.43400726805E+02  0.00000000000E+00 0. -1.
         11    1    3    3    0    0 -0.12113355512E+02  0.11781455339E+01  0.17666733887E+02  0.21453085912E+02  0.51100000000E-03 0.  1.
        -11    1    3    3    0    0 -0.21067811404E+01  0.85262975113E+00  0.46651164136E+00  0.23201589684E+01  0.51100000000E-03 0. -1.
        -12    1    3    3    0    0 -0.76320179311E+01 -0.15154199403E+02  0.16993413389E+02  0.24014028314E+02  0.00000000000E+00 0.  1.
</event>
<event>
 7    1  0.2599124E-010  0.4778727E+02  0.7816164E-02  0.1312668E+00
        -11   -1    0    0    0    0  0.00000000000E+00  0.00000000000E+00  0.45593999997E+02  0.45594000000E+02  0.51100000000E-03 0.  1.
         11   -1    0    0    0    0 -0.00000000000E+00 -0.00000000000E+00 -0.45593999997E+02  0.45594000000E+02  0.51100000000E-03 0. -1.
    9900012    2    1    2    0    0 -0.29308994524E+01 -0.20164159885E+02  0.38320227150E+02  0.47787270463E+02  0.19999997351E+02 0.  0.
         12    1    1    2    0    0  0.29308994524E+01  0.20164159885E+02 -0.38320227150E+02  0.43400729537E+02  0.00000000000E+00 0. -1.
         11    1    3    3    0    0 -0.70882128183E+00 -0.71702931280E+01  0.81270834690E+01  0.10861170154E+02  0.51100000000E-03 0.  1.
        -11    1    3    3    0    0  0.11162714787E+00 -0.10648309951E+01 -0.21349557008E+01  0.23883805756E+01  0.51100000000E-03 0. -1.
        -12    1    3    3    0    0 -0.23337053185E+01 -0.11929035762E+02  0.32328099382E+02  0.34537719733E+02  0.00000000000E+00 0.  1.
</event>
<event>
 7    1  0.2599124E-010  0.4778727E+02  0.7816164E-02  0.1312668E+00
        -11   -1    0    0    0    0  0.00000000000E+00  0.00000000000E+00  0.45593999997E+02  0.45594000000E+02  0.51100000000E-03 0. -1.
         11   -1    0    0    0    0 -0.00000000000E+00 -0.00000000000E+00 -0.45593999997E+02  0.45594000000E+02  0.51100000000E-03 0.  1.
    9900012    2    1    2    0    0 -0.14470948406E+02  0.27140148758E+02 -0.30620695551E+02  0.47787273987E+02  0.20000013417E+02 0.  0.
         12    1    1    2    0    0  0.14470948406E+02 -0.27140148758E+02  0.30620695551E+02  0.43400726013E+02  0.00000000000E+00 0. -1.
         11    1    3    3    0    0 -0.14950708318E+01 -0.76421444966E+00 -0.16361925866E+01  0.23444374504E+01  0.51100000000E-03 0. -1.
        -11    1    3    3    0    0 -0.50550263780E+01  0.18553452218E+02 -0.73655576898E+01  0.20592117940E+02  0.51100000000E-03 0.  1.
        -12    1    3    3    0    0 -0.79208511964E+01  0.93509109900E+01 -0.21618945275E+02  0.24850718597E+02  0.00000000000E+00 0.  1.
</event>
<event>
 7    1  0.2599124E-010  0.4778727E+02  0.7816164E-02  0.1312668E+00
        -11   -1    0    0    0    0  0.00000000000E+00  0.00000000000E+00  0.45593999997E+02  0.45594000000E+02  0.51100000000E-03 0.  1.
         11   -1    0    0    0    0 -0.00000000000E+00 -0.00000000000E+00 -0.45593999997E+02  0.45594000000E+02  0.51100000000E-03 0. -1.
    9900012    2    1    2    0    0 -0.32104283288E+01 -0.29181160407E+02  0.31965236597E+02  0.47787270473E+02  0.19999997396E+02 0.  0.
         12    1    1    2    0    0  0.32104283288E+01  0.29181160407E+02 -0.31965236597E+02  0.43400729527E+02  0.00000000000E+00 0. -1.
         11    1    3    3    0    0 -0.18163103786E+01 -0.35519180784E+01  0.11125807864E+02  0.11819420726E+02  0.51100000000E-03 0. -1.
        -11    1    3    3    0    0 -0.90055637074E+00 -0.19502491677E+02  0.22311654973E+02  0.29647396703E+02  0.51100000000E-03 0.  1.
        -12    1    3    3    0    0 -0.49356157944E+00 -0.61267506511E+01 -0.14722262394E+01  0.63204530434E+01  0.00000000000E+00 0.  1.
</event>
<event>
 7    1  0.2599124E-010  0.4778727E+02  0.7816164E-02  0.1312668E+00
        -11   -1    0    0    0    0  0.00000000000E+00  0.00000000000E+00  0.45593999997E+02  0.45594000000E+02  0.51100000000E-03 0.  1.
         11   -1    0    0    0    0 -0.00000000000E+00 -0.00000000000E+00 -0.45593999997E+02  0.45594000000E+02  0.51100000000E-03 0. -1.
    9900012    2    1    2    0    0 -0.11389897931E+02  0.26841780234E+02  0.32146729291E+02  0.47787272527E+02  0.20000006762E+02 0.  0.
         12    1    1    2    0    0  0.11389897931E+02 -0.26841780234E+02 -0.32146729291E+02  0.43400727473E+02  0.00000000000E+00 0. -1.
         11    1    3    3    0    0  0.23438727674E+01  0.12043999036E+02  0.13899707881E+02  0.18540591462E+02  0.51100000000E-03 0. -1.
        -11    1    3    3    0    0 -0.17288267763E+01  0.75966202565E+00  0.78008840883E+01  0.80261897085E+01  0.51100000000E-03 0.  1.
        -12    1    3    3    0    0 -0.12004943922E+02  0.14038119172E+02  0.10446137322E+02  0.21220491357E+02  0.00000000000E+00 0.  1.
</event>
<event>
 7    1  0.2599124E-010  0.4778727E+02  0.7816164E-02  0.1312668E+00
        -11   -1    0    0    0    0  0.00000000000E+00  0.00000000000E+00  0.45593999997E+02  0.45594000000E+02  0.51100000000E-03 0.  1.
         11   -1    0    0    0    0 -0.00000000000E+00 -0.00000000000E+00 -0.45593999997E+02  0.45594000000E+02  0.51100000000E-03 0. -1.
    9900012    2    1    2    0    0 -0.29286556847E+02 -0.25935326105E+02  0.18795737765E+02  0.47787270625E+02  0.19999998088E+02 0.  0.
         12    1    1    2    0    0  0.29286556847E+02  0.25935326105E+02 -0.18795737765E+02  0.43400729375E+02  0.00000000000E+00 0. -1.
         11    1    3    3    0    0 -0.81613281531E+01 -0.15161587883E+02  0.93100439153E+01  0.19574420612E+02  0.51100000000E-03 0. -1.
        -11    1    3    3    0    0 -0.68955118964E+01 -0.10151911950E+02  0.34886573655E+01  0.12758531696E+02  0.51100000000E-03 0.  1.
         12    1    3    3    0    0 -0.14229716798E+02 -0.62182627246E+00  0.59970364846E+01  0.15454318317E+02  0.00000000000E+00 0. -1.
</event>
<event>
 7    1  0.2599124E-010  0.4778727E+02  0.7816164E-02  0.1312668E+00
        -11   -1    0    0    0    0  0.00000000000E+00  0.00000000000E+00  0.45593999997E+02  0.45594000000E+02  0.51100000000E-03 0.  1.
         11   -1    0    0    0    0 -0.00000000000E+00 -0.00000000000E+00 -0.45593999997E+02  0.45594000000E+02  0.51100000000E-03 0. -1.
    9900012    2    1    2    0    0 -0.32050409815E+02  0.22146041718E+02  0.19129760837E+02  0.47787266334E+02  0.19999978522E+02 0.  0.
         12    1    1    2    0    0  0.32050409815E+02 -0.22146041718E+02 -0.19129760837E+02  0.43400733666E+02  0.00000000000E+00 0. -1.
         11    1    3    3    0    0 -0.73193677525E+01  0.39066985904E+01 -0.37679271806E+00  0.83052640648E+01  0.51100000000E-03 0. -1.
        -11    1    3    3    0    0 -0.13264828269E+02  0.14643898004E+01  0.40321532840E+01  0.13941246962E+02  0.51100000000E-03 0.  1.
         12    1    3    3    0    0 -0.11466213793E+02  0.16774953327E+02  0.15474400272E+02  0.25540755307E+02  0.00000000000E+00 0. -1.
</event>
<event>
 7    1  0.2599124E-010  0.4778724E+02  0.7816164E-02  0.1312668E+00
        -11   -1    0    0    0    0  0.00000000000E+00  0.00000000000E+00  0.45593999997E+02  0.45594000000E+02  0.51100000000E-03 0.  1.
         11   -1    0    0    0    0 -0.00000000000E+00 -0.00000000000E+00 -0.45593999997E+02  0.45594000000E+02  0.51100000000E-03 0. -1.
    9900012    2    1    2    0    0  0.25376852556E+02 -0.22384050974E+02  0.27177119872E+02  0.47787237009E+02  0.19999844818E+02 0.  0.
         12    1    1    2    0    0 -0.25376852556E+02  0.22384050974E+02 -0.27177119872E+02  0.43400762991E+02  0.00000000000E+00 0. -1.
         11    1    3    3    0    0  0.14204515554E+00 -0.21299356203E+01  0.92249716376E+00  0.23254685230E+01  0.51100000000E-03 0. -1.
        -11    1    3    3    0    0  0.94870701751E+01 -0.13327509279E+02  0.22557613395E+02  0.27865263796E+02  0.51100000000E-03 0.  1.
        -12    1    3    3    0    0  0.15747737226E+02 -0.69266060747E+01  0.36970093134E+01  0.17596504690E+02  0.00000000000E+00 0.  1.
</event>
<event>
 7    1  0.2599124E-010  0.4778727E+02  0.7816164E-02  0.1312668E+00
        -11   -1    0    0    0    0  0.00000000000E+00  0.00000000000E+00  0.45593999997E+02  0.45594000000E+02  0.51100000000E-03 0.  1.
         11   -1    0    0    0    0 -0.00000000000E+00 -0.00000000000E+00 -0.45593999997E+02  0.45594000000E+02  0.51100000000E-03 0. -1.
    9900012    2    1    2    0    0  0.40595845975E+00 -0.41348762114E+02 -0.13180981316E+02  0.47787271907E+02  0.20000003931E+02 0.  0.
         12    1    1    2    0    0 -0.40595845975E+00  0.41348762114E+02  0.13180981316E+02  0.43400728093E+02  0.00000000000E+00 0. -1.
         11    1    3    3    0    0 -0.33946836222E+00 -0.22187139035E+02 -0.83271250583E+01  0.23700746599E+02  0.51100000000E-03 0. -1.
        -11    1    3    3    0    0 -0.46525899002E+01 -0.17227778350E+02 -0.33230615335E+01  0.18151740353E+02  0.51100000000E-03 0.  1.
         12    1    3    3    0    0  0.53980167221E+01 -0.19338447287E+01 -0.15307947237E+01  0.59347849543E+01  0.00000000000E+00 0. -1.
</event>
<event>
 7    1  0.2599124E-010  0.4778726E+02  0.7816164E-02  0.1312668E+00
        -11   -1    0    0    0    0  0.00000000000E+00  0.00000000000E+00  0.45593999997E+02  0.45594000000E+02  0.51100000000E-03 0. -1.
         11   -1    0    0    0    0 -0.00000000000E+00 -0.00000000000E+00 -0.45593999997E+02  0.45594000000E+02  0.51100000000E-03 0.  1.
    9900012    2    1    2    0    0  0.41261493246E+02 -0.13422089027E+02 -0.98032616660E+00  0.47787258783E+02  0.19999944097E+02 0.  0.
         12    1    1    2    0    0 -0.41261493246E+02  0.13422089027E+02  0.98032616660E+00  0.43400741217E+02  0.00000000000E+00 0. -1.
         11    1    3    3    0    0  0.69212950390E+01 -0.37492202956E+00 -0.53519009754E+01  0.87571534106E+01  0.51100000000E-03 0. -1.
        -11    1    3    3    0    0  0.12446886862E+02 -0.64254597249E+01 -0.41690683072E+01  0.14614809476E+02  0.51100000000E-03 0.  1.
        -12    1    3    3    0    0  0.21893311346E+02 -0.66217072724E+01  0.85406431159E+01  0.24415295896E+02  0.00000000000E+00 0.  1.
</event>
<event>
 7    1  0.2599124E-010  0.4778728E+02  0.7816164E-02  0.1312668E+00
        -11   -1    0    0    0    0  0.00000000000E+00  0.00000000000E+00  0.45593999997E+02  0.45594000000E+02  0.51100000000E-03 0.  1.
         11   -1    0    0    0    0 -0.00000000000E+00 -0.00000000000E+00 -0.45593999997E+02  0.45594000000E+02  0.51100000000E-03 0. -1.
    9900012    2    1    2    0    0 -0.98238714376E+01  0.37217986292E+02  0.20048336163E+02  0.47787277234E+02  0.20000028222E+02 0.  0.
         12    1    1    2    0    0  0.98238714376E+01 -0.37217986292E+02 -0.20048336163E+02  0.43400722766E+02  0.00000000000E+00 0. -1.
         11    1    3    3    0    0 -0.10597641489E+02  0.68574319569E+01  0.86626750147E+01  0.15309353900E+02  0.51100000000E-03 0. -1.
        -11    1    3    3    0    0 -0.41055734937E+00  0.10055649492E+02  0.42235924424E+01  0.10914365644E+02  0.51100000000E-03 0.  1.
         12    1    3    3    0    0  0.11843274004E+01  0.20304904844E+02  0.71620687060E+01  0.21563557690E+02  0.00000000000E+00 0. -1.
</event>
<event>
 7    1  0.2599124E-010  0.4778728E+02  0.7816164E-02  0.1312668E+00
        -11   -1    0    0    0    0  0.00000000000E+00  0.00000000000E+00  0.45593999997E+02  0.45594000000E+02  0.51100000000E-03 0. -1.
         11   -1    0    0    0    0 -0.00000000000E+00 -0.00000000000E+00 -0.45593999997E+02  0.45594000000E+02  0.51100000000E-03 0.  1.
    9900012    2    1    2    0    0  0.30132764463E+02  0.12826308737E+01 -0.31208881629E+02  0.47787275021E+02  0.20000018132E+02 0.  0.
         12    1    1    2    0    0 -0.30132764463E+02 -0.12826308737E+01  0.31208881629E+02  0.43400724979E+02  0.00000000000E+00 0. -1.
         11    1    3    3    0    0 -0.52711651955E+00  0.33885677544E+00 -0.42789177739E+00  0.75879336695E+00  0.51100000000E-03 0. -1.
        -11    1    3    3    0    0  0.20498185697E+02  0.89033134440E+01 -0.22378857525E+02  0.31626853646E+02  0.51100000000E-03 0.  1.
         12    1    3    3    0    0  0.10161695285E+02 -0.79595393458E+01 -0.84021323265E+01  0.15401628008E+02  0.00000000000E+00 0. -1.
</event>
<event>
 7    1  0.3682899E-010  0.4778727E+02  0.7816164E-02  0.1312668E+00
        -11   -1    0    0    0    0  0.00000000000E+00  0.00000000000E+00  0.45593999997E+02  0.45594000000E+02  0.51100000000E-03 0. -1.
         11   -1    0    0    0    0 -0.00000000000E+00 -0.00000000000E+00 -0.45593999997E+02  0.45594000000E+02  0.51100000000E-03 0.  1.
    9900012    2    1    2    0    0 -0.24399596518E+02 -0.35306981585E+02  0.64575484187E+01  0.47787272006E+02  0.20000004383E+02 0.  0.
         12    1    1    2    0    0  0.24399596518E+02  0.35306981585E+02 -0.64575484187E+01  0.43400727994E+02  0.00000000000E+00 0. -1.
         11    1    3    3    0    0 -0.47827864519E+01 -0.40915095305E+01  0.52301835316E+01  0.81835393638E+01  0.51100000000E-03 0. -1.
        -11    1    3    3    0    0 -0.20793818425E+02 -0.22366656094E+02  0.22311859223E+01  0.30620718156E+02  0.51100000000E-03 0.  1.
        -12    1    3    3    0    0  0.11770083593E+01 -0.88488159606E+01 -0.10038210353E+01  0.89830144858E+01  0.00000000000E+00 0.  1.
</event>
<event>
 7    1  0.2599124E-010  0.4778727E+02  0.7816164E-02  0.1312668E+00
        -11   -1    0    0    0    0  0.00000000000E+00  0.00000000000E+00  0.45593999997E+02  0.45594000000E+02  0.51100000000E-03 0. -1.
         11   -1    0    0    0    0 -0.00000000000E+00 -0.00000000000E+00 -0.45593999997E+02  0.45594000000E+02  0.51100000000E-03 0.  1.
    9900012    2    1    2    0    0 -0.54438226862E+01 -0.43023480923E+02  0.17229010745E+01  0.47787268390E+02  0.19999987898E+02 0.  0.
         12    1    1    2    0    0  0.54438226862E+01  0.43023480923E+02 -0.17229010745E+01  0.43400731610E+02  0.00000000000E+00 0. -1.
         11    1    3    3    0    0  0.35306917088E+01 -0.55887005470E+01  0.55708930760E+00  0.66339811957E+01  0.51100000000E-03 0. -1.
        -11    1    3    3    0    0  0.17124328787E+01 -0.15064864534E+01  0.28271484937E+01  0.36324505041E+01  0.51100000000E-03 0.  1.
        -12    1    3    3    0    0 -0.10686947274E+02 -0.35928293923E+02 -0.16613367268E+01  0.37520836690E+02  0.00000000000E+00 0.  1.
</event>
<event>
 7    1  0.2599124E-010  0.4778727E+02  0.7816164E-02  0.1312668E+00
        -11   -1    0    0    0    0  0.00000000000E+00  0.00000000000E+00  0.45593999997E+02  0.45594000000E+02  0.51100000000E-03 0.  1.
         11   -1    0    0    0    0 -0.00000000000E+00 -0.00000000000E+00 -0.45593999997E+02  0.45594000000E+02  0.51100000000E-03 0. -1.
    9900012    2    1    2    0    0  0.42367005933E+01 -0.29838803510E+02  0.31230102105E+02  0.47787272997E+02  0.20000008904E+02 0.  0.
         12    1    1    2    0    0 -0.42367005933E+01  0.29838803510E+02 -0.31230102105E+02  0.43400727003E+02  0.00000000000E+00 0. -1.
         11    1    3    3    0    0  0.17467656808E+01 -0.29590191726E+01 -0.18560912244E+01  0.39053885468E+01  0.51100000000E-03 0. -1.
        -11    1    3    3    0    0  0.28003310678E+01 -0.15260319104E+01  0.19922035090E+01  0.37602529920E+01  0.51100000000E-03 0.  1.
        -12    1    3    3    0    0 -0.31039615533E+00 -0.25353752428E+02  0.31093989821E+02  0.40121631459E+02  0.00000000000E+00 0.  1.
</event>
<event>
 7    1  0.2599124E-010  0.4778727E+02  0.7816164E-02  0.1312668E+00
        -11   -1    0    0    0    0  0.00000000000E+00  0.00000000000E+00  0.45593999997E+02  0.45594000000E+02  0.51100000000E-03 0. -1.
         11   -1    0    0    0    0 -0.00000000000E+00 -0.00000000000E+00 -0.45593999997E+02  0.45594000000E+02  0.51100000000E-03 0.  1.
    9900012    2    1    2    0    0  0.40801163175E+02 -0.44416073849E+01 -0.14112421515E+02  0.47787271508E+02  0.20000002112E+02 0.  0.
         12    1    1    2    0    0 -0.40801163175E+02  0.44416073849E+01  0.14112421515E+02  0.43400728492E+02  0.00000000000E+00 0. -1.
         11    1    3    3    0    0 -0.83702662637E-01 -0.15946532779E+01  0.11184357616E+01  0.19495702158E+01  0.51100000000E-03 0. -1.
        -11    1    3    3    0    0  0.19888247164E+02 -0.33244225781E+01 -0.47425128206E+00  0.20169756451E+02  0.51100000000E-03 0.  1.
        -12    1    3    3    0    0  0.20996618674E+02  0.47746847109E+00 -0.14756605995E+02  0.25667944841E+02  0.00000000000E+00 0.  1.
</event>
<event>
 7    1  0.2599124E-010  0.4778725E+02  0.7816164E-02  0.1312668E+00
        -11   -1    0    0    0    0  0.00000000000E+00  0.00000000000E+00  0.45593999997E+02  0.45594000000E+02  0.51100000000E-03 0. -1.
         11   -1    0    0    0    0 -0.00000000000E+00 -0.00000000000E+00 -0.45593999997E+02  0.45594000000E+02  0.51100000000E-03 0.  1.
    9900012    2    1    2    0    0 -0.31678620561E+02 -0.27640542025E+02  0.10774524588E+02  0.47787251802E+02  0.19999912267E+02 0.  0.
         12    1    1    2    0    0  0.31678620561E+02  0.27640542025E+02 -0.10774524588E+02  0.43400748198E+02  0.00000000000E+00 0. -1.
         11    1    3    3    0    0 -0.21241804735E+01 -0.32018849688E+01  0.28644102010E+01  0.47926043127E+01  0.51100000000E-03 0. -1.
        -11    1    3    3    0    0 -0.23802866394E+02 -0.11807228917E+02 -0.84654344038E+00  0.26583900002E+02  0.51100000000E-03 0.  1.
        -12    1    3    3    0    0 -0.57515736927E+01 -0.12631428139E+02  0.87566578273E+01  0.16410747487E+02  0.00000000000E+00 0.  1.
</event>
<event>
 7    1  0.2599124E-010  0.4778726E+02  0.7816164E-02  0.1312668E+00
        -11   -1    0    0    0    0  0.00000000000E+00  0.00000000000E+00  0.45593999997E+02  0.45594000000E+02  0.51100000000E-03 0. -1.
         11   -1    0    0    0    0 -0.00000000000E+00 -0.00000000000E+00 -0.45593999997E+02  0.45594000000E+02  0.51100000000E-03 0.  1.
    9900012    2    1    2    0    0  0.18741557991E+02 -0.13533796570E+02 -0.36731655356E+02  0.47787260943E+02  0.19999953941E+02 0.  0.
         12    1    1    2    0    0 -0.18741557991E+02  0.13533796570E+02  0.36731655356E+02  0.43400739057E+02  0.00000000000E+00 0. -1.
         11    1    3    3    0    0  0.17906618758E+02 -0.51439536950E+01 -0.19023838472E+02  0.26627310894E+02  0.51100000000E-03 0. -1.
        -11    1    3    3    0    0  0.37828212265E+01 -0.67138361117E+01 -0.91988584183E+01  0.12000180341E+02  0.51100000000E-03 0.  1.
        -12    1    3    3    0    0 -0.29478819935E+01 -0.16760067637E+01 -0.85089584657E+01  0.91597697073E+01  0.00000000000E+00 0.  1.
</event>
<event>
 7    1  0.2599124E-010  0.4778727E+02  0.7816164E-02  0.1312668E+00
        -11   -1    0    0    0    0  0.00000000000E+00  0.00000000000E+00  0.45593999997E+02  0.45594000000E+02  0.51100000000E-03 0. -1.
         11   -1    0    0    0    0 -0.00000000000E+00 -0.00000000000E+00 -0.45593999997E+02  0.45594000000E+02  0.51100000000E-03 0.  1.
    9900012    2    1    2    0    0  0.27093446727E+02  0.20296600141E+02 -0.27159096736E+02  0.47787269956E+02  0.19999995036E+02 0.  0.
         12    1    1    2    0    0 -0.27093446727E+02 -0.20296600141E+02  0.27159096736E+02  0.43400730044E+02  0.00000000000E+00 0. -1.
         11    1    3    3    0    0 -0.52954216704E+00  0.15796557243E+00 -0.32892845366E+01  0.33353801961E+01  0.51100000000E-03 0. -1.
        -11    1    3    3    0    0  0.78314138285E+01 -0.13594864657E+01 -0.76457559822E+01  0.11028908867E+02  0.51100000000E-03 0.  1.
         12    1    3    3    0    0  0.19791575066E+02  0.21498121034E+02 -0.16224056218E+02  0.33422980892E+02  0.00000000000E+00 0. -1.
</event>
<event>
 7    1  0.2599124E-010  0.4778727E+02  0.7816164E-02  0.1312668E+00
        -11   -1    0    0    0    0  0.00000000000E+00  0.00000000000E+00  0.45593999997E+02  0.45594000000E+02  0.51100000000E-03 0. -1.
         11   -1    0    0    0    0 -0.00000000000E+00 -0.00000000000E+00 -0.45593999997E+02  0.45594000000E+02  0.51100000000E-03 0.  1.
    9900012    2    1    2    0    0 -0.12292538325E+02  0.31092083057E+02 -0.27673080405E+02  0.47787268366E+02  0.19999987786E+02 0.  0.
         12    1    1    2    0    0  0.12292538325E+02 -0.31092083057E+02  0.27673080405E+02  0.43400731634E+02  0.00000000000E+00 0. -1.
         11    1    3    3    0    0 -0.88907946447E+01  0.11953351583E+02 -0.92061540913E+01  0.17512341845E+02  0.51100000000E-03 0. -1.
        -11    1    3    3    0    0 -0.19151340414E+01 -0.18694019954E+01 -0.36426715047E+01  0.45201170526E+01  0.51100000000E-03 0.  1.
        -12    1    3    3    0    0 -0.14866096392E+01  0.21008133469E+02 -0.14824254809E+02  0.25754809468E+02  0.00000000000E+00 0.  1.
</event>
<event>
 7    1  0.2599124E-010  0.4778727E+02  0.7816164E-02  0.1312668E+00
        -11   -1    0    0    0    0  0.00000000000E+00  0.00000000000E+00  0.45593999997E+02  0.45594000000E+02  0.51100000000E-03 0. -1.
         11   -1    0    0    0    0 -0.00000000000E+00 -0.00000000000E+00 -0.45593999997E+02  0.45594000000E+02  0.51100000000E-03 0.  1.
    9900012    2    1    2    0    0  0.37136105900E+02 -0.15545820881E+02 -0.16212970008E+02  0.47787270688E+02  0.19999998377E+02 0.  0.
         12    1    1    2    0    0 -0.37136105900E+02  0.15545820881E+02  0.16212970008E+02  0.43400729312E+02  0.00000000000E+00 0. -1.
         11    1    3    3    0    0 -0.46175073173E+00  0.19369187815E+01 -0.20764672250E+01  0.28769053689E+01  0.51100000000E-03 0. -1.
        -11    1    3    3    0    0  0.20173134609E+00  0.26307284877E+00  0.83072949491E+00  0.89443536077E+00  0.51100000000E-03 0.  1.
        -12    1    3    3    0    0  0.37396125286E+02 -0.17745812512E+02 -0.14967232278E+02  0.44015929959E+02  0.00000000000E+00 0.  1.
</event>
<event>
 7    1  0.2599124E-010  0.4778727E+02  0.7816164E-02  0.1312668E+00
        -11   -1    0    0    0    0  0.00000000000E+00  0.00000000000E+00  0.45593999997E+02  0.45594000000E+02  0.51100000000E-03 0. -1.
         11   -1    0    0    0    0 -0.00000000000E+00 -0.00000000000E+00 -0.45593999997E+02  0.45594000000E+02  0.51100000000E-03 0.  1.
    9900012    2    1    2    0    0 -0.20125348028E+02  0.16771559409E+02 -0.34602144481E+02  0.47787271424E+02  0.20000001730E+02 0.  0.
         12    1    1    2    0    0  0.20125348028E+02 -0.16771559409E+02  0.34602144481E+02  0.43400728576E+02  0.00000000000E+00 0. -1.
         11    1    3    3    0    0 -0.50893439851E+01  0.10284421122E+02 -0.10319404116E+02  0.15432460646E+02  0.51100000000E-03 0.  1.
        -11    1    3    3    0    0 -0.87790213700E+01  0.56855413747E+01 -0.41424245903E+01  0.11249723494E+02  0.51100000000E-03 0. -1.
         12    1    3    3    0    0 -0.62569826727E+01  0.80159691221E+00 -0.20140315775E+02  0.21105087285E+02  0.00000000000E+00 0. -1.
</event>
<event>
 7    1  0.2599124E-010  0.4778730E+02  0.7816164E-02  0.1312668E+00
        -11   -1    0    0    0    0  0.00000000000E+00  0.00000000000E+00  0.45593999997E+02  0.45594000000E+02  0.51100000000E-03 0.  1.
         11   -1    0    0    0    0 -0.00000000000E+00 -0.00000000000E+00 -0.45593999997E+02  0.45594000000E+02  0.51100000000E-03 0. -1.
    9900012    2    1    2    0    0  0.33856238670E+02 -0.23324962372E+02  0.13904042732E+02  0.47787295273E+02  0.20000110467E+02 0.  0.
         12    1    1    2    0    0 -0.33856238670E+02  0.23324962372E+02 -0.13904042732E+02  0.43400704727E+02  0.00000000000E+00 0. -1.
         11    1    3    3    0    0  0.21511311938E+02 -0.14012966585E+02  0.33358541106E+01  0.25888756184E+02  0.51100000000E-03 0. -1.
        -11    1    3    3    0    0  0.19288591623E+01 -0.17775739134E+01 -0.24596858595E+01  0.35958756200E+01  0.51100000000E-03 0.  1.
         12    1    3    3    0    0  0.10416067569E+02 -0.75344218732E+01  0.13027874481E+02  0.18302663469E+02  0.00000000000E+00 0. -1.
</event>
<event>
 7    1  0.2599124E-010  0.4778727E+02  0.7816164E-02  0.1312668E+00
        -11   -1    0    0    0    0  0.00000000000E+00  0.00000000000E+00  0.45593999997E+02  0.45594000000E+02  0.51100000000E-03 0.  1.
         11   -1    0    0    0    0 -0.00000000000E+00 -0.00000000000E+00 -0.45593999997E+02  0.45594000000E+02  0.51100000000E-03 0. -1.
    9900012    2    1    2    0    0 -0.23452039273E+01  0.42589605021E+02  0.80155295998E+01  0.47787272447E+02  0.20000006397E+02 0.  0.
         12    1    1    2    0    0  0.23452039273E+01 -0.42589605021E+02 -0.80155295998E+01  0.43400727553E+02  0.00000000000E+00 0. -1.
         11    1    3    3    0    0 -0.11052609881E+01  0.25791688887E+02  0.92259616041E+01  0.27414433885E+02  0.51100000000E-03 0. -1.
        -11    1    3    3    0    0 -0.13428350835E+01  0.16883400653E+02  0.20940223970E+01  0.17065677652E+02  0.51100000000E-03 0.  1.
         12    1    3    3    0    0  0.10289214431E+00 -0.85484517936E-01 -0.33044544013E+01  0.33071609103E+01  0.00000000000E+00 0. -1.
</event>
<event>
 7    1  0.2599124E-010  0.4778727E+02  0.7816164E-02  0.1312668E+00
        -11   -1    0    0    0    0  0.00000000000E+00  0.00000000000E+00  0.45593999997E+02  0.45594000000E+02  0.51100000000E-03 0. -1.
         11   -1    0    0    0    0 -0.00000000000E+00 -0.00000000000E+00 -0.45593999997E+02  0.45594000000E+02  0.51100000000E-03 0.  1.
    9900012    2    1    2    0    0  0.58212829612E+00 -0.43069460535E+02 -0.53203401717E+01  0.47787270470E+02  0.19999997383E+02 0.  0.
         12    1    1    2    0    0 -0.58212829612E+00  0.43069460535E+02  0.53203401717E+01  0.43400729530E+02  0.00000000000E+00 0. -1.
         11    1    3    3    0    0 -0.65616775645E+01 -0.10939543666E+02  0.25336805293E+01  0.13005720486E+02  0.51100000000E-03 0. -1.
        -11    1    3    3    0    0 -0.17867261097E+00 -0.16671810542E+02 -0.52495383079E+01  0.17479669429E+02  0.51100000000E-03 0.  1.
        -12    1    3    3    0    0  0.73224784716E+01 -0.15458106327E+02 -0.26044823930E+01  0.17301880555E+02  0.00000000000E+00 0.  1.
</event>
<event>
 7    1  0.2599124E-010  0.4778727E+02  0.7816164E-02  0.1312668E+00
        -11   -1    0    0    0    0  0.00000000000E+00  0.00000000000E+00  0.45593999997E+02  0.45594000000E+02  0.51100000000E-03 0.  1.
         11   -1    0    0    0    0 -0.00000000000E+00 -0.00000000000E+00 -0.45593999997E+02  0.45594000000E+02  0.51100000000E-03 0. -1.
    9900012    2    1    2    0    0 -0.32868373608E+02  0.14874059960E+02  0.24125825159E+02  0.47787273245E+02  0.20000010031E+02 0.  0.
         12    1    1    2    0    0  0.32868373608E+02 -0.14874059960E+02 -0.24125825159E+02  0.43400726755E+02  0.00000000000E+00 0. -1.
         11    1    3    3    0    0 -0.57179455080E+00  0.37859146125E-01  0.29123456969E+01  0.29681880066E+01  0.51100000000E-03 0. -1.
        -11    1    3    3    0    0 -0.28228574572E+02  0.14551944653E+02  0.10651571116E+02  0.33497275756E+02  0.51100000000E-03 0.  1.
        -12    1    3    3    0    0 -0.40680044854E+01  0.28425616044E+00  0.10561908345E+02  0.11321809482E+02  0.00000000000E+00 0.  1.
</event>
<event>
 7    1  0.2599124E-010  0.4778727E+02  0.7816164E-02  0.1312668E+00
        -11   -1    0    0    0    0  0.00000000000E+00  0.00000000000E+00  0.45593999997E+02  0.45594000000E+02  0.51100000000E-03 0.  1.
         11   -1    0    0    0    0 -0.00000000000E+00 -0.00000000000E+00 -0.45593999997E+02  0.45594000000E+02  0.51100000000E-03 0. -1.
    9900012    2    1    2    0    0  0.17262302805E+02 -0.48054031394E+01  0.39529031856E+02  0.47787270088E+02  0.19999995637E+02 0.  0.
         12    1    1    2    0    0 -0.17262302805E+02  0.48054031394E+01 -0.39529031856E+02  0.43400729912E+02  0.00000000000E+00 0. -1.
         11    1    3    3    0    0  0.37794688261E+01 -0.59784408736E+00  0.61991127640E+01  0.72849709321E+01  0.51100000000E-03 0. -1.
        -11    1    3    3    0    0  0.11273842077E+02  0.49888971906E+01  0.12163000572E+02  0.17318406206E+02  0.51100000000E-03 0.  1.
         12    1    3    3    0    0  0.22089919019E+01 -0.91964562426E+01  0.21166918520E+02  0.23183892949E+02  0.00000000000E+00 0. -1.
</event>
<event>
 7    1  0.2599124E-010  0.4778727E+02  0.7816164E-02  0.1312668E+00
        -11   -1    0    0    0    0  0.00000000000E+00  0.00000000000E+00  0.45593999997E+02  0.45594000000E+02  0.51100000000E-03 0.  1.
         11   -1    0    0    0    0 -0.00000000000E+00 -0.00000000000E+00 -0.45593999997E+02  0.45594000000E+02  0.51100000000E-03 0. -1.
    9900012    2    1    2    0    0 -0.24389100494E+02 -0.13782781158E+02  0.33148604262E+02  0.47787271390E+02  0.20000001576E+02 0.  0.
         12    1    1    2    0    0  0.24389100494E+02  0.13782781158E+02 -0.33148604262E+02  0.43400728610E+02  0.00000000000E+00 0. -1.
         11    1    3    3    0    0 -0.59527270131E+01 -0.25349004805E+01  0.11038992548E+02  0.12795313051E+02  0.51100000000E-03 0.  1.
        -11    1    3    3    0    0 -0.19490808285E+02 -0.42166348976E+01  0.15161459530E+02  0.25050777889E+02  0.51100000000E-03 0. -1.
         12    1    3    3    0    0  0.10544348050E+01 -0.70312457799E+01  0.69481521840E+01  0.99411804504E+01  0.00000000000E+00 0. -1.
</event>
<event>
 7    1  0.2599124E-010  0.4778727E+02  0.7816164E-02  0.1312668E+00
        -11   -1    0    0    0    0  0.00000000000E+00  0.00000000000E+00  0.45593999997E+02  0.45594000000E+02  0.51100000000E-03 0.  1.
         11   -1    0    0    0    0 -0.00000000000E+00 -0.00000000000E+00 -0.45593999997E+02  0.45594000000E+02  0.51100000000E-03 0. -1.
    9900012    2    1    2    0    0 -0.17873163293E+02  0.12383149148E+02  0.37561030413E+02  0.47787270114E+02  0.19999995759E+02 0.  0.
         12    1    1    2    0    0  0.17873163293E+02 -0.12383149148E+02 -0.37561030413E+02  0.43400729886E+02  0.00000000000E+00 0. -1.
         11    1    3    3    0    0 -0.34720958701E+01  0.72327966994E+01  0.11457749054E+02  0.13987451929E+02  0.51100000000E-03 0. -1.
        -11    1    3    3    0    0 -0.38611595438E+01  0.27599525557E+01 -0.79431982391E+00  0.48121549618E+01  0.51100000000E-03 0.  1.
        -12    1    3    3    0    0 -0.10539907879E+02  0.23903998927E+01  0.26897601183E+02  0.28987663223E+02  0.00000000000E+00 0.  1.
</event>
<event>
 7    1  0.2599124E-010  0.4778727E+02  0.7816164E-02  0.1312668E+00
        -11   -1    0    0    0    0  0.00000000000E+00  0.00000000000E+00  0.45593999997E+02  0.45594000000E+02  0.51100000000E-03 0.  1.
         11   -1    0    0    0    0 -0.00000000000E+00 -0.00000000000E+00 -0.45593999997E+02  0.45594000000E+02  0.51100000000E-03 0. -1.
    9900012    2    1    2    0    0 -0.23795392608E+02  0.25586358323E+02  0.25743752083E+02  0.47787271747E+02  0.20000003203E+02 0.  0.
         12    1    1    2    0    0  0.23795392608E+02 -0.25586358323E+02 -0.25743752083E+02  0.43400728253E+02  0.00000000000E+00 0. -1.
         11    1    3    3    0    0 -0.45592958263E+01  0.27995777679E+01  0.26906453055E+01  0.59886882145E+01  0.51100000000E-03 0. -1.
        -11    1    3    3    0    0 -0.10725043303E+02  0.10620571802E+02  0.22304958629E+02  0.26932030725E+02  0.51100000000E-03 0.  1.
         12    1    3    3    0    0 -0.85110534788E+01  0.12166208753E+02  0.74814814829E+00  0.14866552808E+02  0.00000000000E+00 0. -1.
</event>
<event>
 7    1  0.2599124E-010  0.4778726E+02  0.7816164E-02  0.1312668E+00
        -11   -1    0    0    0    0  0.00000000000E+00  0.00000000000E+00  0.45593999997E+02  0.45594000000E+02  0.51100000000E-03 0.  1.
         11   -1    0    0    0    0 -0.00000000000E+00 -0.00000000000E+00 -0.45593999997E+02  0.45594000000E+02  0.51100000000E-03 0. -1.
    9900012    2    1    2    0    0  0.11679559726E+02 -0.34125910800E+02  0.24137812412E+02  0.47787263930E+02  0.19999967564E+02 0.  0.
         12    1    1    2    0    0 -0.11679559726E+02  0.34125910800E+02 -0.24137812412E+02  0.43400736070E+02  0.00000000000E+00 0. -1.
         11    1    3    3    0    0 -0.13751684603E+01 -0.51099640150E+00 -0.10759621609E+00  0.14709802254E+01  0.51100000000E-03 0. -1.
        -11    1    3    3    0    0  0.11515099427E+02 -0.98446705687E+01  0.13054575658E+02  0.19998424920E+02  0.51100000000E-03 0.  1.
        -12    1    3    3    0    0  0.15396287597E+01 -0.23770243830E+02  0.11190832970E+02  0.26317858785E+02  0.00000000000E+00 0.  1.
</event>
<event>
 7    1  0.2599124E-010  0.4778728E+02  0.7816164E-02  0.1312668E+00
        -11   -1    0    0    0    0  0.00000000000E+00  0.00000000000E+00  0.45593999997E+02  0.45594000000E+02  0.51100000000E-03 0. -1.
         11   -1    0    0    0    0 -0.00000000000E+00 -0.00000000000E+00 -0.45593999997E+02  0.45594000000E+02  0.51100000000E-03 0.  1.
    9900012    2    1    2    0    0  0.40755916187E+02 -0.13114668921E+02  0.71122198072E+01  0.47787275171E+02  0.20000018813E+02 0.  0.
         12    1    1    2    0    0 -0.40755916187E+02  0.13114668921E+02 -0.71122198072E+01  0.43400724829E+02  0.00000000000E+00 0. -1.
         11    1    3    3    0    0  0.11964743657E+02 -0.11427756581E+02  0.77024034340E+01  0.18250362467E+02  0.51100000000E-03 0. -1.
        -11    1    3    3    0    0  0.74963445157E+01  0.23934857321E+00  0.25585053434E+01  0.79245453303E+01  0.51100000000E-03 0.  1.
         12    1    3    3    0    0  0.21294828014E+02 -0.19262609136E+01 -0.31486889702E+01  0.21612367373E+02  0.00000000000E+00 0. -1.
</event>
<event>
 7    1  0.2599124E-010  0.4778727E+02  0.7816164E-02  0.1312668E+00
        -11   -1    0    0    0    0  0.00000000000E+00  0.00000000000E+00  0.45593999997E+02  0.45594000000E+02  0.51100000000E-03 0.  1.
         11   -1    0    0    0    0 -0.00000000000E+00 -0.00000000000E+00 -0.45593999997E+02  0.45594000000E+02  0.51100000000E-03 0. -1.
    9900012    2    1    2    0    0 -0.26314280972E+02 -0.33117489000E+02  0.97166832854E+01  0.47787269651E+02  0.19999993648E+02 0.  0.
         12    1    1    2    0    0  0.26314280972E+02  0.33117489000E+02 -0.97166832854E+01  0.43400730349E+02  0.00000000000E+00 0. -1.
         11    1    3    3    0    0 -0.56330383243E+00 -0.92657319525E+01  0.10685942939E+01  0.93441422212E+01  0.51100000000E-03 0. -1.
        -11    1    3    3    0    0  0.59939330528E+00  0.67780319446E+00  0.14818171546E+01  0.17362234434E+01  0.51100000000E-03 0.  1.
        -12    1    3    3    0    0 -0.26350370445E+02 -0.24529560242E+02  0.71662718369E+01  0.36706903987E+02  0.00000000000E+00 0.  1.
</event>
<event>
 7    1  0.2599124E-010  0.4778727E+02  0.7816164E-02  0.1312668E+00
        -11   -1    0    0    0    0  0.00000000000E+00  0.00000000000E+00  0.45593999997E+02  0.45594000000E+02  0.51100000000E-03 0. -1.
         11   -1    0    0    0    0 -0.00000000000E+00 -0.00000000000E+00 -0.45593999997E+02  0.45594000000E+02  0.51100000000E-03 0.  1.
    9900012    2    1    2    0    0 -0.36752438104E+02 -0.22475980505E+02 -0.52642202505E+01  0.47787269349E+02  0.19999992268E+02 0.  0.
         12    1    1    2    0    0  0.36752438104E+02  0.22475980505E+02  0.52642202505E+01  0.43400730651E+02  0.00000000000E+00 0. -1.
         11    1    3    3    0    0 -0.17454512050E+02 -0.75859509563E+01 -0.14537969404E+01  0.19087172881E+02  0.51100000000E-03 0. -1.
        -11    1    3    3    0    0 -0.13256062170E+02 -0.10133196614E+01 -0.22670470725E+01  0.13486641675E+02  0.51100000000E-03 0.  1.
        -12    1    3    3    0    0 -0.60418638839E+01 -0.13876709887E+02 -0.15433762376E+01  0.15213454792E+02  0.00000000000E+00 0.  1.
</event>
<event>
 7    1  0.2599124E-010  0.4778727E+02  0.7816164E-02  0.1312668E+00
        -11   -1    0    0    0    0  0.00000000000E+00  0.00000000000E+00  0.45593999997E+02  0.45594000000E+02  0.51100000000E-03 0. -1.
         11   -1    0    0    0    0 -0.00000000000E+00 -0.00000000000E+00 -0.45593999997E+02  0.45594000000E+02  0.51100000000E-03 0.  1.
    9900012    2    1    2    0    0  0.34430246052E+02 -0.67118401973E+01 -0.25556462280E+02  0.47787269519E+02  0.19999993044E+02 0.  0.
         12    1    1    2    0    0 -0.34430246052E+02  0.67118401973E+01  0.25556462280E+02  0.43400730481E+02  0.00000000000E+00 0. -1.
         11    1    3    3    0    0  0.11125656565E+02  0.33291123906E+01 -0.44179777077E+01  0.12425045296E+02  0.51100000000E-03 0. -1.
        -11    1    3    3    0    0  0.11774379361E+01  0.24171762668E+01 -0.36331922390E+01  0.45198658503E+01  0.51100000000E-03 0.  1.
        -12    1    3    3    0    0  0.22127151551E+02 -0.12458128855E+02 -0.17505292333E+02  0.30842358373E+02  0.00000000000E+00 0.  1.
</event>
<event>
 7    1  0.2599124E-010  0.4778726E+02  0.7816164E-02  0.1312668E+00
        -11   -1    0    0    0    0  0.00000000000E+00  0.00000000000E+00  0.45593999997E+02  0.45594000000E+02  0.51100000000E-03 0. -1.
         11   -1    0    0    0    0 -0.00000000000E+00 -0.00000000000E+00 -0.45593999997E+02  0.45594000000E+02  0.51100000000E-03 0.  1.
    9900012    2    1    2    0    0  0.40507616848E+02 -0.45509548236E+01 -0.14901214626E+02  0.47787257958E+02  0.19999940332E+02 0.  0.
         12    1    1    2    0    0 -0.40507616848E+02  0.45509548236E+01  0.14901214626E+02  0.43400742042E+02  0.00000000000E+00 0. -1.
         11    1    3    3    0    0  0.23874719282E+02  0.42672927880E+01 -0.63363405769E+01  0.25067134273E+02  0.51100000000E-03 0.  1.
        -11    1    3    3    0    0  0.71993731928E+01 -0.20725995407E+01  0.11651198995E+01  0.75818301132E+01  0.51100000000E-03 0. -1.
        -12    1    3    3    0    0  0.94335243734E+01 -0.67456480709E+01 -0.97299939486E+01  0.15138293571E+02  0.00000000000E+00 0.  1.
</event>
<event>
 7    1  0.2599124E-010  0.4778727E+02  0.7816164E-02  0.1312668E+00
        -11   -1    0    0    0    0  0.00000000000E+00  0.00000000000E+00  0.45593999997E+02  0.45594000000E+02  0.51100000000E-03 0. -1.
         11   -1    0    0    0    0 -0.00000000000E+00 -0.00000000000E+00 -0.45593999997E+02  0.45594000000E+02  0.51100000000E-03 0.  1.
    9900012    2    1    2    0    0 -0.47938231892E+01 -0.76790402646E+01 -0.42446140991E+02  0.47787270914E+02  0.19999999404E+02 0.  0.
         12    1    1    2    0    0  0.47938231892E+01  0.76790402646E+01  0.42446140991E+02  0.43400729086E+02  0.00000000000E+00 0. -1.
         11    1    3    3    0    0 -0.13649312433E+01 -0.54370449296E+01 -0.23285312622E+02  0.23950579931E+02  0.51100000000E-03 0. -1.
        -11    1    3    3    0    0 -0.16321636617E+01 -0.59518542756E+01 -0.18696264980E+02  0.19688546214E+02  0.51100000000E-03 0.  1.
         12    1    3    3    0    0 -0.17967282842E+01  0.37098589406E+01 -0.46456338976E+00  0.41481447696E+01  0.00000000000E+00 0. -1.
</event>
<event>
 7    1  0.2599124E-010  0.4778727E+02  0.7816164E-02  0.1312668E+00
        -11   -1    0    0    0    0  0.00000000000E+00  0.00000000000E+00  0.45593999997E+02  0.45594000000E+02  0.51100000000E-03 0.  1.
         11   -1    0    0    0    0 -0.00000000000E+00 -0.00000000000E+00 -0.45593999997E+02  0.45594000000E+02  0.51100000000E-03 0. -1.
    9900012    2    1    2    0    0  0.17050138739E+02 -0.38352841487E+02 -0.11044258126E+02  0.47787270529E+02  0.19999997648E+02 0.  0.
         12    1    1    2    0    0 -0.17050138739E+02  0.38352841487E+02  0.11044258126E+02  0.43400729471E+02  0.00000000000E+00 0. -1.
         11    1    3    3    0    0 -0.17900426021E+01 -0.84824064889E+00 -0.33554866498E+01  0.38965440629E+01  0.51100000000E-03 0. -1.
        -11    1    3    3    0    0  0.27186454852E+00  0.71727490257E-01  0.10403197283E+01  0.10776458435E+01  0.51100000000E-03 0.  1.
        -12    1    3    3    0    0  0.18568316792E+02 -0.37576328328E+02 -0.87290912042E+01  0.42813080622E+02  0.00000000000E+00 0.  1.
</event>
<event>
 7    1  0.2599124E-010  0.4778728E+02  0.7816164E-02  0.1312668E+00
        -11   -1    0    0    0    0  0.00000000000E+00  0.00000000000E+00  0.45593999997E+02  0.45594000000E+02  0.51100000000E-03 0.  1.
         11   -1    0    0    0    0 -0.00000000000E+00 -0.00000000000E+00 -0.45593999997E+02  0.45594000000E+02  0.51100000000E-03 0. -1.
    9900012    2    1    2    0    0  0.20963637633E+02  0.11121511448E+02  0.36338138717E+02  0.47787280593E+02  0.20000043535E+02 0.  0.
         12    1    1    2    0    0 -0.20963637633E+02 -0.11121511448E+02 -0.36338138717E+02  0.43400719407E+02  0.00000000000E+00 0. -1.
         11    1    3    3    0    0 -0.20415825026E+01 -0.65316424990E+00  0.52436237104E+00  0.22067258121E+01  0.51100000000E-03 0. -1.
        -11    1    3    3    0    0  0.83267126182E+01  0.12619276809E+01  0.47984876251E+01  0.96928885399E+01  0.51100000000E-03 0.  1.
         12    1    3    3    0    0  0.14678507517E+02  0.10512748017E+02  0.31015288720E+02  0.35887666241E+02  0.00000000000E+00 0. -1.
</event>
<event>
 7    1  0.2599124E-010  0.4778728E+02  0.7816164E-02  0.1312668E+00
        -11   -1    0    0    0    0  0.00000000000E+00  0.00000000000E+00  0.45593999997E+02  0.45594000000E+02  0.51100000000E-03 0.  1.
         11   -1    0    0    0    0 -0.00000000000E+00 -0.00000000000E+00 -0.45593999997E+02  0.45594000000E+02  0.51100000000E-03 0. -1.
    9900012    2    1    2    0    0 -0.85097470476E+00  0.43369950704E+02 -0.13950151382E+01  0.47787275936E+02  0.20000022303E+02 0.  0.
         12    1    1    2    0    0  0.85097470476E+00 -0.43369950704E+02  0.13950151382E+01  0.43400724064E+02  0.00000000000E+00 0. -1.
         11    1    3    3    0    0 -0.27170769103E+01  0.17637831062E+01  0.22140469597E+01  0.39237025859E+01  0.51100000000E-03 0. -1.
        -11    1    3    3    0    0 -0.24658966855E+01  0.16828942947E+02  0.42123783367E+01  0.17522502638E+02  0.51100000000E-03 0.  1.
         12    1    3    3    0    0  0.43319988910E+01  0.24777224651E+02 -0.78214404346E+01  0.26341070712E+02  0.00000000000E+00 0. -1.
</event>
<event>
 7    1  0.2599124E-010  0.4778727E+02  0.7816164E-02  0.1312668E+00
        -11   -1    0    0    0    0  0.00000000000E+00  0.00000000000E+00  0.45593999997E+02  0.45594000000E+02  0.51100000000E-03 0.  1.
         11   -1    0    0    0    0 -0.00000000000E+00 -0.00000000000E+00 -0.45593999997E+02  0.45594000000E+02  0.51100000000E-03 0. -1.
    9900012    2    1    2    0    0  0.92646268209E+01  0.16858033039E+02  0.38904969931E+02  0.47787271050E+02  0.20000000024E+02 0.  0.
         12    1    1    2    0    0 -0.92646268209E+01 -0.16858033039E+02 -0.38904969931E+02  0.43400728950E+02  0.00000000000E+00 0. -1.
         11    1    3    3    0    0 -0.19416163469E+01 -0.21823035535E+01  0.26220541968E+01  0.39252377393E+01  0.51100000000E-03 0. -1.
        -11    1    3    3    0    0  0.10242620027E+01  0.43477833121E+01  0.16961390076E+02  0.17539700281E+02  0.51100000000E-03 0.  1.
         12    1    3    3    0    0  0.10181981165E+02  0.14692553280E+02  0.19321525659E+02  0.26322333029E+02  0.00000000000E+00 0. -1.
</event>
<event>
 7    1  0.2599124E-010  0.4778727E+02  0.7816164E-02  0.1312668E+00
        -11   -1    0    0    0    0  0.00000000000E+00  0.00000000000E+00  0.45593999997E+02  0.45594000000E+02  0.51100000000E-03 0. -1.
         11   -1    0    0    0    0 -0.00000000000E+00 -0.00000000000E+00 -0.45593999997E+02  0.45594000000E+02  0.51100000000E-03 0.  1.
    9900012    2    1    2    0    0 -0.26324925058E+02 -0.16306664947E+02 -0.30409115253E+02  0.47787270842E+02  0.19999999077E+02 0.  0.
         12    1    1    2    0    0  0.26324925058E+02  0.16306664947E+02  0.30409115253E+02  0.43400729158E+02  0.00000000000E+00 0. -1.
         11    1    3    3    0    0 -0.55817680423E+01 -0.89232697459E+00 -0.22584074344E+01  0.60870999917E+01  0.51100000000E-03 0. -1.
        -11    1    3    3    0    0 -0.14543642205E+02 -0.37095469892E+01 -0.65816704292E+01  0.16388918614E+02  0.51100000000E-03 0.  1.
         12    1    3    3    0    0 -0.61995148105E+01 -0.11704790983E+02 -0.21569037390E+02  0.25311252236E+02  0.00000000000E+00 0. -1.
</event>
<event>
 7    1  0.2599124E-010  0.4778727E+02  0.7816164E-02  0.1312668E+00
        -11   -1    0    0    0    0  0.00000000000E+00  0.00000000000E+00  0.45593999997E+02  0.45594000000E+02  0.51100000000E-03 0.  1.
         11   -1    0    0    0    0 -0.00000000000E+00 -0.00000000000E+00 -0.45593999997E+02  0.45594000000E+02  0.51100000000E-03 0. -1.
    9900012    2    1    2    0    0 -0.43706925715E+01  0.78862178012E+01  0.42453834341E+02  0.47787269188E+02  0.19999991536E+02 0.  0.
         12    1    1    2    0    0  0.43706925715E+01 -0.78862178012E+01 -0.42453834341E+02  0.43400730812E+02  0.00000000000E+00 0. -1.
         11    1    3    3    0    0 -0.76916187530E+01  0.77479543048E+01  0.25494842106E+02  0.27734072352E+02  0.51100000000E-03 0. -1.
        -11    1    3    3    0    0 -0.33817365410E+01  0.12021854464E+01  0.83665344765E+01  0.91038613394E+01  0.51100000000E-03 0.  1.
        -12    1    3    3    0    0  0.67026627224E+01 -0.10639219501E+01  0.85924577590E+01  0.10949335497E+02  0.00000000000E+00 0.  1.
</event>
<event>
 7    1  0.2599124E-010  0.4778727E+02  0.7816164E-02  0.1312668E+00
        -11   -1    0    0    0    0  0.00000000000E+00  0.00000000000E+00  0.45593999997E+02  0.45594000000E+02  0.51100000000E-03 0.  1.
         11   -1    0    0    0    0 -0.00000000000E+00 -0.00000000000E+00 -0.45593999997E+02  0.45594000000E+02  0.51100000000E-03 0. -1.
    9900012    2    1    2    0    0 -0.21090637274E+02  0.34963769801E+02  0.14708604223E+02  0.47787271694E+02  0.20000002960E+02 0.  0.
         12    1    1    2    0    0  0.21090637274E+02 -0.34963769801E+02 -0.14708604223E+02  0.43400728306E+02  0.00000000000E+00 0. -1.
         11    1    3    3    0    0 -0.12567833200E+01  0.45238361272E+01 -0.52963244115E+00  0.47249453334E+01  0.51100000000E-03 0. -1.
        -11    1    3    3    0    0 -0.82059148592E+01  0.26867649374E+02  0.10025020721E+02  0.29827984549E+02  0.51100000000E-03 0.  1.
         12    1    3    3    0    0 -0.11627939095E+02  0.35722843004E+01  0.52132159423E+01  0.13234341811E+02  0.00000000000E+00 0. -1.
</event>
<event>
 7    1  0.2599124E-010  0.4778727E+02  0.7816164E-02  0.1312668E+00
        -11   -1    0    0    0    0  0.00000000000E+00  0.00000000000E+00  0.45593999997E+02  0.45594000000E+02  0.51100000000E-03 0. -1.
         11   -1    0    0    0    0 -0.00000000000E+00 -0.00000000000E+00 -0.45593999997E+02  0.45594000000E+02  0.51100000000E-03 0.  1.
    9900012    2    1    2    0    0 -0.18804044462E+02 -0.38538860479E+02 -0.66923389515E+01  0.47787271253E+02  0.20000000949E+02 0.  0.
         12    1    1    2    0    0  0.18804044462E+02  0.38538860479E+02  0.66923389515E+01  0.43400728747E+02  0.00000000000E+00 0. -1.
         11    1    3    3    0    0  0.78571926097E+00  0.10903939006E+01  0.65076121535E+00  0.14932528373E+01  0.51100000000E-03 0. -1.
        -11    1    3    3    0    0  0.10250064542E+01 -0.63809175289E+01  0.13964807184E+00  0.64642283829E+01  0.51100000000E-03 0.  1.
         12    1    3    3    0    0 -0.20614770177E+02 -0.33248336851E+02 -0.74827482387E+01  0.39829790032E+02  0.00000000000E+00 0. -1.
</event>
<event>
 7    1  0.2599124E-010  0.4778727E+02  0.7816164E-02  0.1312668E+00
        -11   -1    0    0    0    0  0.00000000000E+00  0.00000000000E+00  0.45593999997E+02  0.45594000000E+02  0.51100000000E-03 0.  1.
         11   -1    0    0    0    0 -0.00000000000E+00 -0.00000000000E+00 -0.45593999997E+02  0.45594000000E+02  0.51100000000E-03 0. -1.
    9900012    2    1    2    0    0 -0.33689432656E+02 -0.50066759252E+01  0.26899418289E+02  0.47787269813E+02  0.19999994384E+02 0.  0.
         12    1    1    2    0    0  0.33689432656E+02  0.50066759252E+01 -0.26899418289E+02  0.43400730187E+02  0.00000000000E+00 0. -1.
         11    1    3    3    0    0 -0.77621225761E+01  0.31170480157E+01  0.10022355007E+02  0.13054276517E+02  0.51100000000E-03 0. -1.
        -11    1    3    3    0    0 -0.43203330967E+01 -0.37022167147E+01  0.10217355731E+02  0.11694701580E+02  0.51100000000E-03 0.  1.
        -12    1    3    3    0    0 -0.21606976983E+02 -0.44215072263E+01  0.66597075511E+01  0.23038291716E+02  0.00000000000E+00 0.  1.
</event>
<event>
 7    1  0.2599124E-010  0.4778727E+02  0.7816164E-02  0.1312668E+00
        -11   -1    0    0    0    0  0.00000000000E+00  0.00000000000E+00  0.45593999997E+02  0.45594000000E+02  0.51100000000E-03 0.  1.
         11   -1    0    0    0    0 -0.00000000000E+00 -0.00000000000E+00 -0.45593999997E+02  0.45594000000E+02  0.51100000000E-03 0. -1.
    9900012    2    1    2    0    0 -0.90724512718E+01  0.36924930567E+02  0.20925184553E+02  0.47787271688E+02  0.20000002934E+02 0.  0.
         12    1    1    2    0    0  0.90724512718E+01 -0.36924930567E+02 -0.20925184553E+02  0.43400728312E+02  0.00000000000E+00 0. -1.
         11    1    3    3    0    0 -0.58129373713E+01  0.36527261534E+01  0.60463613530E+01  0.91482859109E+01  0.51100000000E-03 0. -1.
        -11    1    3    3    0    0 -0.33619871634E+01  0.25334694597E+01  0.45798315891E+01  0.62206336362E+01  0.51100000000E-03 0.  1.
         12    1    3    3    0    0  0.10247326288E+00  0.30738734954E+02  0.10298991610E+02  0.32418352141E+02  0.00000000000E+00 0. -1.
</event>
<event>
 7    1  0.2599124E-010  0.4778727E+02  0.7816164E-02  0.1312668E+00
        -11   -1    0    0    0    0  0.00000000000E+00  0.00000000000E+00  0.45593999997E+02  0.45594000000E+02  0.51100000000E-03 0.  1.
         11   -1    0    0    0    0 -0.00000000000E+00 -0.00000000000E+00 -0.45593999997E+02  0.45594000000E+02  0.51100000000E-03 0. -1.
    9900012    2    1    2    0    0 -0.37221144703E+01  0.35019357363E+02  0.25365601183E+02  0.47787271324E+02  0.20000001274E+02 0.  0.
         12    1    1    2    0    0  0.37221144703E+01 -0.35019357363E+02 -0.25365601183E+02  0.43400728676E+02  0.00000000000E+00 0. -1.
         11    1    3    3    0    0 -0.49529307462E+01  0.12345497407E+02  0.58983762045E+01  0.14551071140E+02  0.51100000000E-03 0. -1.
        -11    1    3    3    0    0  0.70605966446E+01  0.16139683507E+02  0.16065017376E+02  0.23841690214E+02  0.51100000000E-03 0.  1.
        -12    1    3    3    0    0 -0.58297803687E+01  0.65341764491E+01  0.34022076023E+01  0.93945099705E+01  0.00000000000E+00 0.  1.
</event>
<event>
 7    1  0.2599124E-010  0.4778726E+02  0.7816164E-02  0.1312668E+00
        -11   -1    0    0    0    0  0.00000000000E+00  0.00000000000E+00  0.45593999997E+02  0.45594000000E+02  0.51100000000E-03 0. -1.
         11   -1    0    0    0    0 -0.00000000000E+00 -0.00000000000E+00 -0.45593999997E+02  0.45594000000E+02  0.51100000000E-03 0.  1.
    9900012    2    1    2    0    0  0.20410060462E+02 -0.21625662963E+02 -0.31613042576E+02  0.47787258905E+02  0.19999944653E+02 0.  0.
         12    1    1    2    0    0 -0.20410060462E+02  0.21625662963E+02  0.31613042576E+02  0.43400741095E+02  0.00000000000E+00 0. -1.
         11    1    3    3    0    0  0.36363282495E+01 -0.39306858122E+01 -0.20014678081E+02  0.20718603067E+02  0.51100000000E-03 0. -1.
        -11    1    3    3    0    0  0.85302673137E+01 -0.88177355759E+01 -0.68939236330E+01  0.14072814376E+02  0.51100000000E-03 0.  1.
         12    1    3    3    0    0  0.82434648983E+01 -0.88772415747E+01 -0.47044408626E+01  0.12995841463E+02  0.00000000000E+00 0. -1.
</event>
<event>
 7    1  0.2599124E-010  0.4778727E+02  0.7816164E-02  0.1312668E+00
        -11   -1    0    0    0    0  0.00000000000E+00  0.00000000000E+00  0.45593999997E+02  0.45594000000E+02  0.51100000000E-03 0.  1.
         11   -1    0    0    0    0 -0.00000000000E+00 -0.00000000000E+00 -0.45593999997E+02  0.45594000000E+02  0.51100000000E-03 0. -1.
    9900012    2    1    2    0    0  0.36105270896E+02  0.17994148536E+02  0.16007608402E+02  0.47787268500E+02  0.19999988399E+02 0.  0.
         12    1    1    2    0    0 -0.36105270896E+02 -0.17994148536E+02 -0.16007608402E+02  0.43400731500E+02  0.00000000000E+00 0. -1.
         11    1    3    3    0    0  0.80510675674E+01 -0.66733933190E+00 -0.21061693405E+01  0.83487112964E+01  0.51100000000E-03 0. -1.
        -11    1    3    3    0    0  0.29549704876E+01 -0.10263349883E+01  0.14293307719E+01  0.34392151441E+01  0.51100000000E-03 0.  1.
        -12    1    3    3    0    0  0.25099232841E+02  0.19687822856E+02  0.16684446971E+02  0.35999342060E+02  0.00000000000E+00 0.  1.
</event>
<event>
 7    1  0.2599124E-010  0.4778727E+02  0.7816164E-02  0.1312668E+00
        -11   -1    0    0    0    0  0.00000000000E+00  0.00000000000E+00  0.45593999997E+02  0.45594000000E+02  0.51100000000E-03 0. -1.
         11   -1    0    0    0    0 -0.00000000000E+00 -0.00000000000E+00 -0.45593999997E+02  0.45594000000E+02  0.51100000000E-03 0.  1.
    9900012    2    1    2    0    0  0.29485095871E+02  0.30469249949E+02  0.92669959450E+01  0.47787270918E+02  0.19999999425E+02 0.  0.
         12    1    1    2    0    0 -0.29485095871E+02 -0.30469249949E+02 -0.92669959450E+01  0.43400729082E+02  0.00000000000E+00 0. -1.
         11    1    3    3    0    0 -0.23021383862E+00  0.18991950372E+01 -0.18616007085E+01  0.26693627816E+01  0.51100000000E-03 0. -1.
        -11    1    3    3    0    0  0.21999299796E+01  0.42452940718E+01 -0.31370558723E+01  0.57186828447E+01  0.51100000000E-03 0.  1.
        -12    1    3    3    0    0  0.27515379730E+02  0.24324760840E+02  0.14265652526E+02  0.39399225292E+02  0.00000000000E+00 0.  1.
</event>
<event>
 7    1  0.2599124E-010  0.4778726E+02  0.7816164E-02  0.1312668E+00
        -11   -1    0    0    0    0  0.00000000000E+00  0.00000000000E+00  0.45593999997E+02  0.45594000000E+02  0.51100000000E-03 0.  1.
         11   -1    0    0    0    0 -0.00000000000E+00 -0.00000000000E+00 -0.45593999997E+02  0.45594000000E+02  0.51100000000E-03 0. -1.
    9900012    2    1    2    0    0 -0.20227854662E+02  0.32659415750E+02  0.20194563569E+02  0.47787263381E+02  0.19999965059E+02 0.  0.
         12    1    1    2    0    0  0.20227854662E+02 -0.32659415750E+02 -0.20194563569E+02  0.43400736619E+02  0.00000000000E+00 0. -1.
         11    1    3    3    0    0 -0.12069526845E+02  0.18701226696E+02  0.11870369020E+02  0.25225285313E+02  0.51100000000E-03 0. -1.
        -11    1    3    3    0    0 -0.80543696976E+01  0.83695611799E+01 -0.10340055086E+01  0.11661543347E+02  0.51100000000E-03 0.  1.
         12    1    3    3    0    0 -0.10395811951E+00  0.55886278738E+01  0.93582000574E+01  0.10900434721E+02  0.00000000000E+00 0. -1.
</event>
<event>
 7    1  0.2599124E-010  0.4778727E+02  0.7816164E-02  0.1312668E+00
        -11   -1    0    0    0    0  0.00000000000E+00  0.00000000000E+00  0.45593999997E+02  0.45594000000E+02  0.51100000000E-03 0. -1.
         11   -1    0    0    0    0 -0.00000000000E+00 -0.00000000000E+00 -0.45593999997E+02  0.45594000000E+02  0.51100000000E-03 0.  1.
    9900012    2    1    2    0    0 -0.25179333822E+02  0.27472691912E+02 -0.22245810634E+02  0.47787265635E+02  0.19999975338E+02 0.  0.
         12    1    1    2    0    0  0.25179333822E+02 -0.27472691912E+02  0.22245810634E+02  0.43400734365E+02  0.00000000000E+00 0. -1.
         11    1    3    3    0    0 -0.17413030811E+02  0.61619552449E+01 -0.95398130612E+01  0.20789212779E+02  0.51100000000E-03 0. -1.
        -11    1    3    3    0    0 -0.25619984379E+01  0.33809003368E+01 -0.55916736459E+01  0.70186278934E+01  0.51100000000E-03 0.  1.
        -12    1    3    3    0    0 -0.52043045734E+01  0.17929836330E+02 -0.71143239270E+01  0.19979424963E+02  0.00000000000E+00 0.  1.
</event>
<event>
 7    1  0.2599124E-010  0.4778723E+02  0.7816164E-02  0.1312668E+00
        -11   -1    0    0    0    0  0.00000000000E+00  0.00000000000E+00  0.45593999997E+02  0.45594000000E+02  0.51100000000E-03 0.  1.
         11   -1    0    0    0    0 -0.00000000000E+00 -0.00000000000E+00 -0.45593999997E+02  0.45594000000E+02  0.51100000000E-03 0. -1.
    9900012    2    1    2    0    0  0.17442639445E+01 -0.99995539304E+01  0.42197072555E+02  0.47787234249E+02  0.19999832236E+02 0.  0.
         12    1    1    2    0    0 -0.17442639445E+01  0.99995539304E+01 -0.42197072555E+02  0.43400765751E+02  0.00000000000E+00 0. -1.
         11    1    3    3    0    0  0.19108710284E+00  0.33012408461E+01  0.12026979474E+02  0.12473289099E+02  0.51100000000E-03 0.  1.
        -11    1    3    3    0    0 -0.27277210809E+01 -0.10992671862E+02  0.11986061264E+02  0.16490753829E+02  0.51100000000E-03 0. -1.
         12    1    3    3    0    0  0.42808979226E+01 -0.23081229145E+01  0.18184031817E+02  0.18823191321E+02  0.00000000000E+00 0. -1.
</event>
<event>
 7    1  0.2599124E-010  0.4778728E+02  0.7816164E-02  0.1312668E+00
        -11   -1    0    0    0    0  0.00000000000E+00  0.00000000000E+00  0.45593999997E+02  0.45594000000E+02  0.51100000000E-03 0.  1.
         11   -1    0    0    0    0 -0.00000000000E+00 -0.00000000000E+00 -0.45593999997E+02  0.45594000000E+02  0.51100000000E-03 0. -1.
    9900012    2    1    2    0    0 -0.33507666376E+02  0.19738158498E+02  0.19268213767E+02  0.47787278017E+02  0.20000031792E+02 0.  0.
         12    1    1    2    0    0  0.33507666376E+02 -0.19738158498E+02 -0.19268213767E+02  0.43400721983E+02  0.00000000000E+00 0. -1.
         11    1    3    3    0    0 -0.35480998868E+01  0.13703148826E+01 -0.31965054390E+00  0.38169297106E+01  0.51100000000E-03 0.  1.
        -11    1    3    3    0    0 -0.12955867449E+02  0.25692221329E+01  0.15565132556E+02  0.20413935325E+02  0.51100000000E-03 0. -1.
         12    1    3    3    0    0 -0.17003699041E+02  0.15798621482E+02  0.40227317553E+01  0.23556412982E+02  0.00000000000E+00 0. -1.
</event>
<event>
 7    1  0.2599124E-010  0.4778727E+02  0.7816164E-02  0.1312668E+00
        -11   -1    0    0    0    0  0.00000000000E+00  0.00000000000E+00  0.45593999997E+02  0.45594000000E+02  0.51100000000E-03 0.  1.
         11   -1    0    0    0    0 -0.00000000000E+00 -0.00000000000E+00 -0.45593999997E+02  0.45594000000E+02  0.51100000000E-03 0. -1.
    9900012    2    1    2    0    0 -0.25349683380E+02  0.33670488510E+02  0.10359304042E+02  0.47787269312E+02  0.19999992102E+02 0.  0.
         12    1    1    2    0    0  0.25349683380E+02 -0.33670488510E+02 -0.10359304042E+02  0.43400730688E+02  0.00000000000E+00 0. -1.
         11    1    3    3    0    0  0.76709965203E+00  0.62623644982E+00  0.17246188538E+01  0.19886991776E+01  0.51100000000E-03 0. -1.
        -11    1    3    3    0    0 -0.85248223264E+01  0.14144536159E+02  0.11042470912E+02  0.19866470823E+02  0.51100000000E-03 0.  1.
         12    1    3    3    0    0 -0.17591960706E+02  0.18899715901E+02 -0.24077857233E+01  0.25932099312E+02  0.00000000000E+00 0. -1.
</event>
<event>
 7    1  0.2599124E-010  0.4778727E+02  0.7816164E-02  0.1312668E+00
        -11   -1    0    0    0    0  0.00000000000E+00  0.00000000000E+00  0.45593999997E+02  0.45594000000E+02  0.51100000000E-03 0.  1.
         11   -1    0    0    0    0 -0.00000000000E+00 -0.00000000000E+00 -0.45593999997E+02  0.45594000000E+02  0.51100000000E-03 0. -1.
    9900012    2    1    2    0    0 -0.61259180516E+01 -0.23860949779E+02  0.35731654709E+02  0.47787274838E+02  0.20000017298E+02 0.  0.
         12    1    1    2    0    0  0.61259180516E+01  0.23860949779E+02 -0.35731654709E+02  0.43400725162E+02  0.00000000000E+00 0. -1.
         11    1    3    3    0    0 -0.31466525431E+01  0.60539861416E+00  0.10662091612E+02  0.11133199338E+02  0.51100000000E-03 0. -1.
        -11    1    3    3    0    0 -0.25621592258E+01 -0.13304140205E+02  0.20528211545E+02  0.24596184175E+02  0.51100000000E-03 0.  1.
         12    1    3    3    0    0 -0.41710628263E+00 -0.11162208188E+02  0.45413515523E+01  0.12057891325E+02  0.00000000000E+00 0. -1.
</event>
<event>
 7    1  0.2599124E-010  0.4778727E+02  0.7816164E-02  0.1312668E+00
        -11   -1    0    0    0    0  0.00000000000E+00  0.00000000000E+00  0.45593999997E+02  0.45594000000E+02  0.51100000000E-03 0.  1.
         11   -1    0    0    0    0 -0.00000000000E+00 -0.00000000000E+00 -0.45593999997E+02  0.45594000000E+02  0.51100000000E-03 0. -1.
    9900012    2    1    2    0    0  0.34795455769E+02  0.13589793375E+02  0.22095634341E+02  0.47787270938E+02  0.19999999516E+02 0.  0.
         12    1    1    2    0    0 -0.34795455769E+02 -0.13589793375E+02 -0.22095634341E+02  0.43400729062E+02  0.00000000000E+00 0. -1.
         11    1    3    3    0    0  0.13836729628E+02  0.70365515596E+01  0.53406906683E+01  0.16416184749E+02  0.51100000000E-03 0. -1.
        -11    1    3    3    0    0  0.22707497436E+02  0.34625238493E+01  0.14597998819E+02  0.27216191523E+02  0.51100000000E-03 0.  1.
         12    1    3    3    0    0 -0.17487712946E+01  0.30907179662E+01  0.21569448534E+01  0.41548946663E+01  0.00000000000E+00 0. -1.
</event>
<event>
 7    1  0.2599124E-010  0.4778727E+02  0.7816164E-02  0.1312668E+00
        -11   -1    0    0    0    0  0.00000000000E+00  0.00000000000E+00  0.45593999997E+02  0.45594000000E+02  0.51100000000E-03 0. -1.
         11   -1    0    0    0    0 -0.00000000000E+00 -0.00000000000E+00 -0.45593999997E+02  0.45594000000E+02  0.51100000000E-03 0.  1.
    9900012    2    1    2    0    0 -0.22497958771E+02 -0.35167426499E+02  0.11862449928E+02  0.47787265516E+02  0.19999974796E+02 0.  0.
         12    1    1    2    0    0  0.22497958771E+02  0.35167426499E+02 -0.11862449928E+02  0.43400734484E+02  0.00000000000E+00 0. -1.
         11    1    3    3    0    0 -0.30928103208E+01 -0.87917300735E+01 -0.22356026391E+01  0.95842533766E+01  0.51100000000E-03 0. -1.
        -11    1    3    3    0    0 -0.12451743921E+02 -0.80496109538E+01  0.15002086229E+01  0.14902777907E+02  0.51100000000E-03 0.  1.
         12    1    3    3    0    0 -0.69534045298E+01 -0.18326085471E+02  0.12597843944E+02  0.23300234233E+02  0.00000000000E+00 0. -1.
</event>
<event>
 7    1  0.2599124E-010  0.4778727E+02  0.7816164E-02  0.1312668E+00
        -11   -1    0    0    0    0  0.00000000000E+00  0.00000000000E+00  0.45593999997E+02  0.45594000000E+02  0.51100000000E-03 0.  1.
         11   -1    0    0    0    0 -0.00000000000E+00 -0.00000000000E+00 -0.45593999997E+02  0.45594000000E+02  0.51100000000E-03 0. -1.
    9900012    2    1    2    0    0 -0.43359099752E+02  0.18472686206E+01 -0.44667782831E+00  0.47787268972E+02  0.19999990552E+02 0.  0.
         12    1    1    2    0    0  0.43359099752E+02 -0.18472686206E+01  0.44667782831E+00  0.43400731028E+02  0.00000000000E+00 0. -1.
         11    1    3    3    0    0 -0.67120641097E+01  0.13369255385E+01  0.44514306589E+01  0.81642151907E+01  0.51100000000E-03 0. -1.
        -11    1    3    3    0    0 -0.31975172215E+02  0.33581999664E+01  0.18972806148E+00  0.32151596262E+02  0.51100000000E-03 0.  1.
        -12    1    3    3    0    0 -0.46718634274E+01 -0.28478568843E+01 -0.50878365487E+01  0.74714575194E+01  0.00000000000E+00 0.  1.
</event>
<event>
 7    1  0.2599124E-010  0.4778728E+02  0.7816164E-02  0.1312668E+00
        -11   -1    0    0    0    0  0.00000000000E+00  0.00000000000E+00  0.45593999997E+02  0.45594000000E+02  0.51100000000E-03 0.  1.
         11   -1    0    0    0    0 -0.00000000000E+00 -0.00000000000E+00 -0.45593999997E+02  0.45594000000E+02  0.51100000000E-03 0. -1.
    9900012    2    1    2    0    0  0.12010554806E+02 -0.22689687849E+02  0.34993528106E+02  0.47787281449E+02  0.20000047440E+02 0.  0.
         12    1    1    2    0    0 -0.12010554806E+02  0.22689687849E+02 -0.34993528106E+02  0.43400718551E+02  0.00000000000E+00 0. -1.
         11    1    3    3    0    0 -0.15797090594E+01 -0.52918262247E+01  0.95581172788E+00  0.56046839184E+01  0.51100000000E-03 0. -1.
        -11    1    3    3    0    0  0.67065785962E+01 -0.13466220889E+02  0.13671664108E+02  0.20328101270E+02  0.51100000000E-03 0.  1.
        -12    1    3    3    0    0  0.68836852692E+01 -0.39316407350E+01  0.20366052270E+02  0.21854496261E+02  0.00000000000E+00 0.  1.
</event>
<event>
 7    1  0.2599124E-010  0.4778727E+02  0.7816164E-02  0.1312668E+00
        -11   -1    0    0    0    0  0.00000000000E+00  0.00000000000E+00  0.45593999997E+02  0.45594000000E+02  0.51100000000E-03 0. -1.
         11   -1    0    0    0    0 -0.00000000000E+00 -0.00000000000E+00 -0.45593999997E+02  0.45594000000E+02  0.51100000000E-03 0.  1.
    9900012    2    1    2    0    0  0.38381810208E+02 -0.20233937650E+02 -0.10234634238E+01  0.47787273450E+02  0.20000010967E+02 0.  0.
         12    1    1    2    0    0 -0.38381810208E+02  0.20233937650E+02  0.10234634238E+01  0.43400726550E+02  0.00000000000E+00 0. -1.
         11    1    3    3    0    0  0.96577560973E+00 -0.35828623674E+01 -0.27095576214E+01  0.45947065235E+01  0.51100000000E-03 0. -1.
        -11    1    3    3    0    0  0.42514523461E+01  0.13627593806E+01  0.30831461201E+01  0.54256566828E+01  0.51100000000E-03 0.  1.
        -12    1    3    3    0    0  0.33164582253E+02 -0.18013834663E+02 -0.13970519224E+01  0.37766910244E+02  0.00000000000E+00 0.  1.
</event>
<event>
 7    1  0.2599124E-010  0.4778727E+02  0.7816164E-02  0.1312668E+00
        -11   -1    0    0    0    0  0.00000000000E+00  0.00000000000E+00  0.45593999997E+02  0.45594000000E+02  0.51100000000E-03 0.  1.
         11   -1    0    0    0    0 -0.00000000000E+00 -0.00000000000E+00 -0.45593999997E+02  0.45594000000E+02  0.51100000000E-03 0. -1.
    9900012    2    1    2    0    0 -0.22337253479E+02 -0.14971825089E+02  0.34066325908E+02  0.47787274196E+02  0.20000014367E+02 0.  0.
         12    1    1    2    0    0  0.22337253479E+02  0.14971825089E+02 -0.34066325908E+02  0.43400725804E+02  0.00000000000E+00 0. -1.
         11    1    3    3    0    0 -0.35024718316E+01 -0.31401946599E-01  0.83055013047E+01  0.90138586187E+01  0.51100000000E-03 0.  1.
        -11    1    3    3    0    0  0.16480882407E+01 -0.18823586265E+01  0.87952635613E+01  0.91441855964E+01  0.51100000000E-03 0. -1.
         12    1    3    3    0    0 -0.20482869889E+02 -0.13058064516E+02  0.16965561042E+02  0.29629229980E+02  0.00000000000E+00 0. -1.
</event>
<event>
 7    1  0.2599124E-010  0.4778727E+02  0.7816164E-02  0.1312668E+00
        -11   -1    0    0    0    0  0.00000000000E+00  0.00000000000E+00  0.45593999997E+02  0.45594000000E+02  0.51100000000E-03 0.  1.
         11   -1    0    0    0    0 -0.00000000000E+00 -0.00000000000E+00 -0.45593999997E+02  0.45594000000E+02  0.51100000000E-03 0. -1.
    9900012    2    1    2    0    0 -0.10564755075E+02 -0.20314472941E+02  0.36869114280E+02  0.47787269034E+02  0.19999990832E+02 0.  0.
         12    1    1    2    0    0  0.10564755075E+02  0.20314472941E+02 -0.36869114280E+02  0.43400730966E+02  0.00000000000E+00 0. -1.
         11    1    3    3    0    0 -0.30750947173E+01 -0.51552134458E+01 -0.18937582591E+00  0.60056886913E+01  0.51100000000E-03 0. -1.
        -11    1    3    3    0    0  0.11645867619E+01 -0.59242148832E+01  0.75052884765E+01  0.96323382252E+01  0.51100000000E-03 0.  1.
        -12    1    3    3    0    0 -0.86542471195E+01 -0.92350446118E+01  0.29553201629E+02  0.32149242117E+02  0.00000000000E+00 0.  1.
</event>
<event>
 7    1  0.2599124E-010  0.4778727E+02  0.7816164E-02  0.1312668E+00
        -11   -1    0    0    0    0  0.00000000000E+00  0.00000000000E+00  0.45593999997E+02  0.45594000000E+02  0.51100000000E-03 0.  1.
         11   -1    0    0    0    0 -0.00000000000E+00 -0.00000000000E+00 -0.45593999997E+02  0.45594000000E+02  0.51100000000E-03 0. -1.
    9900012    2    1    2    0    0 -0.24087738026E+02 -0.52021307374E+01  0.35725930039E+02  0.47787270000E+02  0.19999995236E+02 0.  0.
         12    1    1    2    0    0  0.24087738026E+02  0.52021307374E+01 -0.35725930039E+02  0.43400730000E+02  0.00000000000E+00 0. -1.
         11    1    3    3    0    0 -0.49986513998E+01  0.12472126068E+00  0.58318288855E+01  0.76819463432E+01  0.51100000000E-03 0. -1.
        -11    1    3    3    0    0 -0.21650515557E+02 -0.17437597755E+01  0.21161370460E+02  0.30324727897E+02  0.51100000000E-03 0.  1.
         12    1    3    3    0    0  0.25614289307E+01 -0.35830922226E+01  0.87327306933E+01  0.97805957592E+01  0.00000000000E+00 0. -1.
</event>
<event>
 7    1  0.2599124E-010  0.4778727E+02  0.7816164E-02  0.1312668E+00
        -11   -1    0    0    0    0  0.00000000000E+00  0.00000000000E+00  0.45593999997E+02  0.45594000000E+02  0.51100000000E-03 0. -1.
         11   -1    0    0    0    0 -0.00000000000E+00 -0.00000000000E+00 -0.45593999997E+02  0.45594000000E+02  0.51100000000E-03 0.  1.
    9900012    2    1    2    0    0 -0.16680424029E+02  0.33543661505E+02 -0.21913689668E+02  0.47787267658E+02  0.19999984559E+02 0.  0.
         12    1    1    2    0    0  0.16680424029E+02 -0.33543661505E+02  0.21913689668E+02  0.43400732342E+02  0.00000000000E+00 0. -1.
         11    1    3    3    0    0 -0.55894939349E+01  0.12524955989E+02 -0.74921424993E+01  0.15628472877E+02  0.51100000000E-03 0.  1.
        -11    1    3    3    0    0 -0.17816588836E+01  0.18990456097E+02 -0.11101042486E+02  0.22069093223E+02  0.51100000000E-03 0. -1.
         12    1    3    3    0    0 -0.93092712109E+01  0.20282494192E+01 -0.33205046833E+01  0.10089701558E+02  0.00000000000E+00 0. -1.
</event>
<event>
 7    1  0.2599124E-010  0.4778727E+02  0.7816164E-02  0.1312668E+00
        -11   -1    0    0    0    0  0.00000000000E+00  0.00000000000E+00  0.45593999997E+02  0.45594000000E+02  0.51100000000E-03 0. -1.
         11   -1    0    0    0    0 -0.00000000000E+00 -0.00000000000E+00 -0.45593999997E+02  0.45594000000E+02  0.51100000000E-03 0.  1.
    9900012    2    1    2    0    0  0.42213885660E+00  0.19783383758E+01 -0.43353565565E+02  0.47787266468E+02  0.19999979135E+02 0.  0.
         12    1    1    2    0    0 -0.42213885660E+00 -0.19783383758E+01  0.43353565565E+02  0.43400733532E+02  0.00000000000E+00 0. -1.
         11    1    3    3    0    0  0.31254165016E+01 -0.17238771316E+01  0.94521740349E-01  0.35705623218E+01  0.51100000000E-03 0. -1.
        -11    1    3    3    0    0 -0.16674569857E+01 -0.18804636306E+01 -0.12041346920E+02  0.12300837052E+02  0.51100000000E-03 0.  1.
         12    1    3    3    0    0 -0.10358206593E+01  0.55826791380E+01 -0.31406740385E+02  0.31915867095E+02  0.00000000000E+00 0. -1.
</event>
<event>
 7    1  0.2599124E-010  0.4778727E+02  0.7816164E-02  0.1312668E+00
        -11   -1    0    0    0    0  0.00000000000E+00  0.00000000000E+00  0.45593999997E+02  0.45594000000E+02  0.51100000000E-03 0. -1.
         11   -1    0    0    0    0 -0.00000000000E+00 -0.00000000000E+00 -0.45593999997E+02  0.45594000000E+02  0.51100000000E-03 0.  1.
    9900012    2    1    2    0    0  0.14451699733E+01 -0.14046278084E+02 -0.41039457137E+02  0.47787268597E+02  0.19999988840E+02 0.  0.
         12    1    1    2    0    0 -0.14451699733E+01  0.14046278084E+02  0.41039457137E+02  0.43400731403E+02  0.00000000000E+00 0. -1.
         11    1    3    3    0    0 -0.31412892687E+01 -0.23633180167E+01 -0.13329877234E+01  0.41508826591E+01  0.51100000000E-03 0. -1.
        -11    1    3    3    0    0 -0.36647626956E+01 -0.78272089491E+01 -0.23606417159E+02  0.25138787101E+02  0.51100000000E-03 0.  1.
        -12    1    3    3    0    0  0.82512219375E+01 -0.38557511179E+01 -0.16100052254E+02  0.18497598837E+02  0.00000000000E+00 0.  1.
</event>
<event>
 7    1  0.2599124E-010  0.4778728E+02  0.7816164E-02  0.1312668E+00
        -11   -1    0    0    0    0  0.00000000000E+00  0.00000000000E+00  0.45593999997E+02  0.45594000000E+02  0.51100000000E-03 0. -1.
         11   -1    0    0    0    0 -0.00000000000E+00 -0.00000000000E+00 -0.45593999997E+02  0.45594000000E+02  0.51100000000E-03 0.  1.
    9900012    2    1    2    0    0  0.29768427782E+02 -0.28031387425E+02 -0.14550070347E+02  0.47787279721E+02  0.20000039561E+02 0.  0.
         12    1    1    2    0    0 -0.29768427782E+02  0.28031387425E+02  0.14550070347E+02  0.43400720279E+02  0.00000000000E+00 0. -1.
         11    1    3    3    0    0  0.65590332042E+01  0.12549200070E+01 -0.33588435571E+01  0.74751301728E+01  0.51100000000E-03 0. -1.
        -11    1    3    3    0    0  0.27392753419E+01  0.17060185047E+00 -0.29930960399E-01  0.27447459834E+01  0.51100000000E-03 0.  1.
        -12    1    3    3    0    0  0.20470119236E+02 -0.29456909283E+02 -0.11161295830E+02  0.37567403565E+02  0.00000000000E+00 0.  1.
</event>
<event>
 7    1  0.2599124E-010  0.4778727E+02  0.7816164E-02  0.1312668E+00
        -11   -1    0    0    0    0  0.00000000000E+00  0.00000000000E+00  0.45593999997E+02  0.45594000000E+02  0.51100000000E-03 0. -1.
         11   -1    0    0    0    0 -0.00000000000E+00 -0.00000000000E+00 -0.45593999997E+02  0.45594000000E+02  0.51100000000E-03 0.  1.
    9900012    2    1    2    0    0  0.24760318253E+01  0.31968067910E+02 -0.29249527868E+02  0.47787274430E+02  0.20000015437E+02 0.  0.
         12    1    1    2    0    0 -0.24760318253E+01 -0.31968067910E+02  0.29249527868E+02  0.43400725570E+02  0.00000000000E+00 0. -1.
         11    1    3    3    0    0  0.64456717950E+00  0.94541430758E+01 -0.25970090581E+01  0.98255149715E+01  0.51100000000E-03 0. -1.
        -11    1    3    3    0    0 -0.71608691084E+00  0.24041103635E+02 -0.23389150720E+02  0.33549065801E+02  0.51100000000E-03 0.  1.
         12    1    3    3    0    0  0.25475515566E+01 -0.15271788012E+01 -0.32633680905E+01  0.44126936579E+01  0.00000000000E+00 0. -1.
</event>
<event>
 7    1  0.2599124E-010  0.4778727E+02  0.7816164E-02  0.1312668E+00
        -11   -1    0    0    0    0  0.00000000000E+00  0.00000000000E+00  0.45593999997E+02  0.45594000000E+02  0.51100000000E-03 0.  1.
         11   -1    0    0    0    0 -0.00000000000E+00 -0.00000000000E+00 -0.45593999997E+02  0.45594000000E+02  0.51100000000E-03 0. -1.
    9900012    2    1    2    0    0  0.75974784851E+01  0.39045200470E+02  0.17360117923E+02  0.47787273584E+02  0.20000011581E+02 0.  0.
         12    1    1    2    0    0 -0.75974784851E+01 -0.39045200470E+02 -0.17360117923E+02  0.43400726416E+02  0.00000000000E+00 0. -1.
         11    1    3    3    0    0 -0.15057313517E+01  0.17226581714E+02  0.85601025811E+01  0.19295017515E+02  0.51100000000E-03 0.  1.
        -11    1    3    3    0    0  0.12181791293E+02  0.20053585451E+02  0.83964118192E+01  0.24920715484E+02  0.51100000000E-03 0. -1.
         12    1    3    3    0    0 -0.30785814558E+01  0.17650333051E+01  0.40360352302E+00  0.35715405853E+01  0.00000000000E+00 0. -1.
</event>
<event>
 7    1  0.2599124E-010  0.4778727E+02  0.7816164E-02  0.1312668E+00
        -11   -1    0    0    0    0  0.00000000000E+00  0.00000000000E+00  0.45593999997E+02  0.45594000000E+02  0.51100000000E-03 0. -1.
         11   -1    0    0    0    0 -0.00000000000E+00 -0.00000000000E+00 -0.45593999997E+02  0.45594000000E+02  0.51100000000E-03 0.  1.
    9900012    2    1    2    0    0  0.34709601765E+02 -0.26048061354E+02 -0.60441602176E+00  0.47787271047E+02  0.20000000010E+02 0.  0.
         12    1    1    2    0    0 -0.34709601765E+02  0.26048061354E+02  0.60441602176E+00  0.43400728953E+02  0.00000000000E+00 0. -1.
         11    1    3    3    0    0  0.22667323569E+02 -0.11707707190E+02 -0.70020404803E+01  0.26455746759E+02  0.51100000000E-03 0. -1.
        -11    1    3    3    0    0  0.24664622625E-01  0.79972543995E+00  0.96332738154E+00  0.12522655581E+01  0.51100000000E-03 0.  1.
        -12    1    3    3    0    0  0.12017613573E+02 -0.15140079604E+02  0.54342970770E+01  0.20079258730E+02  0.00000000000E+00 0.  1.
</event>
<event>
 7    1  0.2599124E-010  0.4778727E+02  0.7816164E-02  0.1312668E+00
        -11   -1    0    0    0    0  0.00000000000E+00  0.00000000000E+00  0.45593999997E+02  0.45594000000E+02  0.51100000000E-03 0.  1.
         11   -1    0    0    0    0 -0.00000000000E+00 -0.00000000000E+00 -0.45593999997E+02  0.45594000000E+02  0.51100000000E-03 0. -1.
    9900012    2    1    2    0    0  0.20636304016E+02  0.18780416488E+02  0.33242476166E+02  0.47787270645E+02  0.19999998178E+02 0.  0.
         12    1    1    2    0    0 -0.20636304016E+02 -0.18780416488E+02 -0.33242476166E+02  0.43400729355E+02  0.00000000000E+00 0. -1.
         11    1    3    3    0    0  0.53468739444E+01  0.98548587859E+00  0.92851690657E+01  0.10759860977E+02  0.51100000000E-03 0. -1.
        -11    1    3    3    0    0  0.16096502069E+02  0.15059846289E+02  0.25563235380E+02  0.33754634533E+02  0.51100000000E-03 0.  1.
         12    1    3    3    0    0 -0.80707199653E+00  0.27350843200E+01 -0.16059282801E+01  0.32727751352E+01  0.00000000000E+00 0. -1.
</event>
<event>
 7    1  0.2599124E-010  0.4778727E+02  0.7816164E-02  0.1312668E+00
        -11   -1    0    0    0    0  0.00000000000E+00  0.00000000000E+00  0.45593999997E+02  0.45594000000E+02  0.51100000000E-03 0. -1.
         11   -1    0    0    0    0 -0.00000000000E+00 -0.00000000000E+00 -0.45593999997E+02  0.45594000000E+02  0.51100000000E-03 0.  1.
    9900012    2    1    2    0    0 -0.33297835680E+02 -0.48956911381E+01 -0.27402733160E+02  0.47787269161E+02  0.19999991413E+02 0.  0.
         12    1    1    2    0    0  0.33297835680E+02  0.48956911381E+01  0.27402733160E+02  0.43400730839E+02  0.00000000000E+00 0. -1.
         11    1    3    3    0    0  0.20019893164E+01 -0.13028304118E+01 -0.19880240708E+01  0.31076628311E+01  0.51100000000E-03 0.  1.
        -11    1    3    3    0    0 -0.33593631216E+01 -0.76473870214E+00  0.46087866030E+00  0.34759970175E+01  0.51100000000E-03 0. -1.
        -12    1    3    3    0    0 -0.31940461875E+02 -0.28281220242E+01 -0.25875587750E+02  0.41203609312E+02  0.00000000000E+00 0.  1.
</event>
<event>
 7    1  0.2599124E-010  0.4778727E+02  0.7816164E-02  0.1312668E+00
        -11   -1    0    0    0    0  0.00000000000E+00  0.00000000000E+00  0.45593999997E+02  0.45594000000E+02  0.51100000000E-03 0. -1.
         11   -1    0    0    0    0 -0.00000000000E+00 -0.00000000000E+00 -0.45593999997E+02  0.45594000000E+02  0.51100000000E-03 0.  1.
    9900012    2    1    2    0    0  0.34224001355E+02 -0.21777136564E+02  0.15430407555E+02  0.47787269327E+02  0.19999992169E+02 0.  0.
         12    1    1    2    0    0 -0.34224001355E+02  0.21777136564E+02 -0.15430407555E+02  0.43400730673E+02  0.00000000000E+00 0. -1.
         11    1    3    3    0    0  0.13449134505E+00 -0.22593631397E+01  0.31966534419E+01  0.39168103359E+01  0.51100000000E-03 0. -1.
        -11    1    3    3    0    0  0.11771232508E+02  0.32534491891E+00  0.50699946638E+00  0.11786637043E+02  0.51100000000E-03 0.  1.
         12    1    3    3    0    0  0.22318277502E+02 -0.19843118343E+02  0.11726754647E+02  0.32083821948E+02  0.00000000000E+00 0. -1.
</event>
<event>
 7    1  0.2599124E-010  0.4778727E+02  0.7816164E-02  0.1312668E+00
        -11   -1    0    0    0    0  0.00000000000E+00  0.00000000000E+00  0.45593999997E+02  0.45594000000E+02  0.51100000000E-03 0.  1.
         11   -1    0    0    0    0 -0.00000000000E+00 -0.00000000000E+00 -0.45593999997E+02  0.45594000000E+02  0.51100000000E-03 0. -1.
    9900012    2    1    2    0    0 -0.28972504155E+02 -0.11138367515E+02  0.30334043021E+02  0.47787269662E+02  0.19999993695E+02 0.  0.
         12    1    1    2    0    0  0.28972504155E+02  0.11138367515E+02 -0.30334043021E+02  0.43400730338E+02  0.00000000000E+00 0. -1.
         11    1    3    3    0    0  0.77503981100E+00 -0.14131794843E+01  0.73624122377E+00  0.17719521337E+01  0.51100000000E-03 0. -1.
        -11    1    3    3    0    0 -0.19680022090E+02 -0.11467153657E+02  0.27279863143E+02  0.35538568005E+02  0.51100000000E-03 0.  1.
         12    1    3    3    0    0 -0.10067521876E+02  0.17419656261E+01  0.23179386538E+01  0.10476749523E+02  0.00000000000E+00 0. -1.
</event>
<event>
 7    1  0.2599124E-010  0.4778727E+02  0.7816164E-02  0.1312668E+00
        -11   -1    0    0    0    0  0.00000000000E+00  0.00000000000E+00  0.45593999997E+02  0.45594000000E+02  0.51100000000E-03 0.  1.
         11   -1    0    0    0    0 -0.00000000000E+00 -0.00000000000E+00 -0.45593999997E+02  0.45594000000E+02  0.51100000000E-03 0. -1.
    9900012    2    1    2    0    0 -0.15741446755E+02 -0.39095274220E+01  0.40255998844E+02  0.47787274274E+02  0.20000014724E+02 0.  0.
         12    1    1    2    0    0  0.15741446755E+02  0.39095274220E+01 -0.40255998844E+02  0.43400725726E+02  0.00000000000E+00 0. -1.
         11    1    3    3    0    0 -0.15063737084E+01 -0.36435644333E+01  0.17100958780E+02  0.17549573071E+02  0.51100000000E-03 0. -1.
        -11    1    3    3    0    0 -0.57996357019E+01 -0.15060967411E+01  0.20424071195E+02  0.21284895727E+02  0.51100000000E-03 0.  1.
        -12    1    3    3    0    0 -0.84354373445E+01  0.12401337525E+01  0.27309688692E+01  0.89528054755E+01  0.00000000000E+00 0.  1.
</event>
<event>
 7    1  0.2599124E-010  0.4778727E+02  0.7816164E-02  0.1312668E+00
        -11   -1    0    0    0    0  0.00000000000E+00  0.00000000000E+00  0.45593999997E+02  0.45594000000E+02  0.51100000000E-03 0.  1.
         11   -1    0    0    0    0 -0.00000000000E+00 -0.00000000000E+00 -0.45593999997E+02  0.45594000000E+02  0.51100000000E-03 0. -1.
    9900012    2    1    2    0    0  0.19702057266E+02 -0.21141993224E+02  0.32380060000E+02  0.47787271624E+02  0.20000002642E+02 0.  0.
         12    1    1    2    0    0 -0.19702057266E+02  0.21141993224E+02 -0.32380060000E+02  0.43400728376E+02  0.00000000000E+00 0. -1.
         11    1    3    3    0    0  0.56170335134E+01 -0.16662646579E+01  0.28377032080E+01  0.65099971704E+01  0.51100000000E-03 0. -1.
        -11    1    3    3    0    0  0.86771053802E+01 -0.11489467295E+00  0.78303140261E+01  0.11688420619E+02  0.51100000000E-03 0.  1.
        -12    1    3    3    0    0  0.54079183721E+01 -0.19360833893E+02  0.21712042766E+02  0.29588853834E+02  0.00000000000E+00 0.  1.
</event>
<event>
 7    1  0.2599124E-010  0.4778727E+02  0.7816164E-02  0.1312668E+00
        -11   -1    0    0    0    0  0.00000000000E+00  0.00000000000E+00  0.45593999997E+02  0.45594000000E+02  0.51100000000E-03 0.  1.
         11   -1    0    0    0    0 -0.00000000000E+00 -0.00000000000E+00 -0.45593999997E+02  0.45594000000E+02  0.51100000000E-03 0. -1.
    9900012    2    1    2    0    0  0.24198104137E+02  0.34035324411E+02  0.11818282464E+02  0.47787270144E+02  0.19999995896E+02 0.  0.
         12    1    1    2    0    0 -0.24198104137E+02 -0.34035324411E+02 -0.11818282464E+02  0.43400729856E+02  0.00000000000E+00 0. -1.
         11    1    3    3    0    0  0.69058688524E+01  0.48326245082E+01  0.42373989830E+01  0.94340253681E+01  0.51100000000E-03 0. -1.
        -11    1    3    3    0    0  0.10645058933E+02  0.40457173715E+01  0.40882257994E+01  0.12099533015E+02  0.51100000000E-03 0.  1.
        -12    1    3    3    0    0  0.66471763513E+01  0.25156982532E+02  0.34926576816E+01  0.26253711761E+02  0.00000000000E+00 0.  1.
</event>
<event>
 7    1  0.2599124E-010  0.4778727E+02  0.7816164E-02  0.1312668E+00
        -11   -1    0    0    0    0  0.00000000000E+00  0.00000000000E+00  0.45593999997E+02  0.45594000000E+02  0.51100000000E-03 0.  1.
         11   -1    0    0    0    0 -0.00000000000E+00 -0.00000000000E+00 -0.45593999997E+02  0.45594000000E+02  0.51100000000E-03 0. -1.
    9900012    2    1    2    0    0  0.26984303902E+02 -0.24221478016E+02  0.23849331385E+02  0.47787271183E+02  0.20000000630E+02 0.  0.
         12    1    1    2    0    0 -0.26984303902E+02  0.24221478016E+02 -0.23849331385E+02  0.43400728817E+02  0.00000000000E+00 0. -1.
         11    1    3    3    0    0 -0.17082580363E+01 -0.71727951451E+01  0.33406727427E+01  0.80948891498E+01  0.51100000000E-03 0. -1.
        -11    1    3    3    0    0  0.10654416362E+02 -0.56078376274E+01  0.11010178106E+02  0.16315282806E+02  0.51100000000E-03 0.  1.
        -12    1    3    3    0    0  0.18038145577E+02 -0.11440845244E+02  0.94984805360E+01  0.23377099226E+02  0.00000000000E+00 0.  1.
</event>
<event>
 7    1  0.2599124E-010  0.4778724E+02  0.7816164E-02  0.1312668E+00
        -11   -1    0    0    0    0  0.00000000000E+00  0.00000000000E+00  0.45593999997E+02  0.45594000000E+02  0.51100000000E-03 0. -1.
         11   -1    0    0    0    0 -0.00000000000E+00 -0.00000000000E+00 -0.45593999997E+02  0.45594000000E+02  0.51100000000E-03 0.  1.
    9900012    2    1    2    0    0 -0.24449851814E+02  0.35842651572E+02  0.10653590729E+01  0.47787240613E+02  0.19999861249E+02 0.  0.
         12    1    1    2    0    0  0.24449851814E+02 -0.35842651572E+02 -0.10653590729E+01  0.43400759387E+02  0.00000000000E+00 0. -1.
         11    1    3    3    0    0  0.74989668392E+00  0.12325219601E+01  0.24997027849E+01  0.28861686875E+01  0.51100000000E-03 0. -1.
        -11    1    3    3    0    0 -0.24395728968E+02  0.27279537509E+02  0.22332342991E+01  0.36664861847E+02  0.51100000000E-03 0.  1.
         12    1    3    3    0    0 -0.80401953071E+00  0.73305921028E+01 -0.36675780110E+01  0.82362100781E+01  0.00000000000E+00 0. -1.
</event>
<event>
 7    1  0.2599124E-010  0.4778727E+02  0.7816164E-02  0.1312668E+00
        -11   -1    0    0    0    0  0.00000000000E+00  0.00000000000E+00  0.45593999997E+02  0.45594000000E+02  0.51100000000E-03 0.  1.
         11   -1    0    0    0    0 -0.00000000000E+00 -0.00000000000E+00 -0.45593999997E+02  0.45594000000E+02  0.51100000000E-03 0. -1.
    9900012    2    1    2    0    0 -0.14001687733E+02 -0.20259659036E+02  0.35736844898E+02  0.47787272738E+02  0.20000007721E+02 0.  0.
         12    1    1    2    0    0  0.14001687733E+02  0.20259659036E+02 -0.35736844898E+02  0.43400727262E+02  0.00000000000E+00 0. -1.
         11    1    3    3    0    0 -0.40393628878E+00 -0.10830061361E+01  0.57749185419E+01  0.58894610316E+01  0.51100000000E-03 0. -1.
        -11    1    3    3    0    0 -0.13388592380E+02 -0.15241967080E+02  0.31664052630E+02  0.37605640476E+02  0.51100000000E-03 0.  1.
         12    1    3    3    0    0 -0.20915906361E+00 -0.39346858202E+01 -0.17021262740E+01  0.42921712303E+01  0.00000000000E+00 0. -1.
</event>
<event>
 7    1  0.2599124E-010  0.4778727E+02  0.7816164E-02  0.1312668E+00
        -11   -1    0    0    0    0  0.00000000000E+00  0.00000000000E+00  0.45593999997E+02  0.45594000000E+02  0.51100000000E-03 0.  1.
         11   -1    0    0    0    0 -0.00000000000E+00 -0.00000000000E+00 -0.45593999997E+02  0.45594000000E+02  0.51100000000E-03 0. -1.
    9900012    2    1    2    0    0  0.37434351563E+02 -0.20994133343E+02 -0.64450863766E+01  0.47787269014E+02  0.19999990742E+02 0.  0.
         12    1    1    2    0    0 -0.37434351563E+02  0.20994133343E+02  0.64450863766E+01  0.43400730986E+02  0.00000000000E+00 0. -1.
         11    1    3    3    0    0  0.21737477550E+02 -0.96706138262E+01 -0.74329383691E+01  0.24925634898E+02  0.51100000000E-03 0. -1.
        -11    1    3    3    0    0  0.17524624311E+02 -0.10178113413E+02  0.22040504926E+01  0.20385394005E+02  0.51100000000E-03 0.  1.
         12    1    3    3    0    0 -0.18277502984E+01 -0.11454061034E+01 -0.12161985001E+01  0.24762401109E+01  0.00000000000E+00 0. -1.
</event>
<event>
 7    1  0.2599124E-010  0.4778727E+02  0.7816164E-02  0.1312668E+00
        -11   -1    0    0    0    0  0.00000000000E+00  0.00000000000E+00  0.45593999997E+02  0.45594000000E+02  0.51100000000E-03 0.  1.
         11   -1    0    0    0    0 -0.00000000000E+00 -0.00000000000E+00 -0.45593999997E+02  0.45594000000E+02  0.51100000000E-03 0. -1.
    9900012    2    1    2    0    0 -0.33957767998E+02 -0.26350468720E+02  0.60121421901E+01  0.47787273475E+02  0.20000011083E+02 0.  0.
         12    1    1    2    0    0  0.33957767998E+02  0.26350468720E+02 -0.60121421901E+01  0.43400726525E+02  0.00000000000E+00 0. -1.
         11    1    3    3    0    0 -0.38807560549E+01 -0.19039367377E+01 -0.24630322813E+01  0.49751151684E+01  0.51100000000E-03 0. -1.
        -11    1    3    3    0    0 -0.22918684820E+02 -0.25831385176E+02  0.56462339377E+01  0.34991520857E+02  0.51100000000E-03 0.  1.
        -12    1    3    3    0    0 -0.71583271235E+01  0.13848531937E+01  0.28289405337E+01  0.78206374496E+01  0.00000000000E+00 0.  1.
</event>
<event>
 7    1  0.2599124E-010  0.4778728E+02  0.7816164E-02  0.1312668E+00
        -11   -1    0    0    0    0  0.00000000000E+00  0.00000000000E+00  0.45593999997E+02  0.45594000000E+02  0.51100000000E-03 0.  1.
         11   -1    0    0    0    0 -0.00000000000E+00 -0.00000000000E+00 -0.45593999997E+02  0.45594000000E+02  0.51100000000E-03 0. -1.
    9900012    2    1    2    0    0  0.11279881490E+01 -0.26257692982E+02  0.34538153258E+02  0.47787276176E+02  0.20000023396E+02 0.  0.
         12    1    1    2    0    0 -0.11279881490E+01  0.26257692982E+02 -0.34538153258E+02  0.43400723824E+02  0.00000000000E+00 0. -1.
         11    1    3    3    0    0 -0.13399617704E+00 -0.23262543587E+01 -0.19343334155E+00  0.23381255389E+01  0.51100000000E-03 0. -1.
        -11    1    3    3    0    0  0.48010696438E+00 -0.27641605074E+01  0.18635750741E+02  0.18845749970E+02  0.51100000000E-03 0.  1.
        -12    1    3    3    0    0  0.78187736166E+00 -0.21167278116E+02  0.16095835859E+02  0.26603400667E+02  0.00000000000E+00 0.  1.
</event>
<event>
 7    1  0.2599124E-010  0.4778727E+02  0.7816164E-02  0.1312668E+00
        -11   -1    0    0    0    0  0.00000000000E+00  0.00000000000E+00  0.45593999997E+02  0.45594000000E+02  0.51100000000E-03 0.  1.
         11   -1    0    0    0    0 -0.00000000000E+00 -0.00000000000E+00 -0.45593999997E+02  0.45594000000E+02  0.51100000000E-03 0. -1.
    9900012    2    1    2    0    0 -0.97511650783E+01  0.18897767399E+02  0.37834011079E+02  0.47787271580E+02  0.20000002442E+02 0.  0.
         12    1    1    2    0    0  0.97511650783E+01 -0.18897767399E+02 -0.37834011079E+02  0.43400728420E+02  0.00000000000E+00 0. -1.
         11    1    3    3    0    0 -0.32355231164E+01 -0.20158891422E+01  0.10804072960E+01  0.39622845754E+01  0.51100000000E-03 0. -1.
        -11    1    3    3    0    0 -0.15382491770E+01  0.17293041823E+01  0.11459086425E+02  0.11690481831E+02  0.51100000000E-03 0.  1.
        -12    1    3    3    0    0 -0.49773927849E+01  0.19184352359E+02  0.25294517358E+02  0.32134505174E+02  0.00000000000E+00 0.  1.
</event>
<event>
 7    1  0.2599124E-010  0.4778727E+02  0.7816164E-02  0.1312668E+00
        -11   -1    0    0    0    0  0.00000000000E+00  0.00000000000E+00  0.45593999997E+02  0.45594000000E+02  0.51100000000E-03 0.  1.
         11   -1    0    0    0    0 -0.00000000000E+00 -0.00000000000E+00 -0.45593999997E+02  0.45594000000E+02  0.51100000000E-03 0. -1.
    9900012    2    1    2    0    0  0.42447075238E+00  0.42575102862E+02  0.84144995094E+01  0.47787270039E+02  0.19999995417E+02 0.  0.
         12    1    1    2    0    0 -0.42447075238E+00 -0.42575102862E+02 -0.84144995094E+01  0.43400729961E+02  0.00000000000E+00 0. -1.
         11    1    3    3    0    0 -0.99346560804E+00  0.21797669024E+01  0.32448102774E+01  0.40332557148E+01  0.51100000000E-03 0. -1.
        -11    1    3    3    0    0  0.35307001373E+01  0.22826072981E+02  0.10357359950E+02  0.25313442211E+02  0.51100000000E-03 0.  1.
        -12    1    3    3    0    0 -0.21127637768E+01  0.17569262979E+02 -0.51876707179E+01  0.18440572114E+02  0.00000000000E+00 0.  1.
</event>
<event>
 7    1  0.2599124E-010  0.4778724E+02  0.7816164E-02  0.1312668E+00
        -11   -1    0    0    0    0  0.00000000000E+00  0.00000000000E+00  0.45593999997E+02  0.45594000000E+02  0.51100000000E-03 0.  1.
         11   -1    0    0    0    0 -0.00000000000E+00 -0.00000000000E+00 -0.45593999997E+02  0.45594000000E+02  0.51100000000E-03 0. -1.
    9900012    2    1    2    0    0 -0.52212421322E+01  0.63003974727E+01  0.42622411244E+02  0.47787235975E+02  0.19999840103E+02 0.  0.
         12    1    1    2    0    0  0.52212421322E+01 -0.63003974727E+01 -0.42622411244E+02  0.43400764025E+02  0.00000000000E+00 0. -1.
         11    1    3    3    0    0 -0.15947053470E+01 -0.60542878630E+00 -0.35206160933E+00  0.17417166236E+01  0.51100000000E-03 0. -1.
        -11    1    3    3    0    0  0.98722221619E+00  0.92982376172E+01  0.15645186566E+02  0.18226455866E+02  0.51100000000E-03 0.  1.
         12    1    3    3    0    0 -0.46137590014E+01 -0.23924113582E+01  0.27329286288E+02  0.27819063486E+02  0.00000000000E+00 0. -1.
</event>
<event>
 7    1  0.2599124E-010  0.4778727E+02  0.7816164E-02  0.1312668E+00
        -11   -1    0    0    0    0  0.00000000000E+00  0.00000000000E+00  0.45593999997E+02  0.45594000000E+02  0.51100000000E-03 0.  1.
         11   -1    0    0    0    0 -0.00000000000E+00 -0.00000000000E+00 -0.45593999997E+02  0.45594000000E+02  0.51100000000E-03 0. -1.
    9900012    2    1    2    0    0 -0.37543659061E+02  0.60049544726E+01 -0.20929337628E+02  0.47787274344E+02  0.20000015042E+02 0.  0.
         12    1    1    2    0    0  0.37543659061E+02 -0.60049544726E+01  0.20929337628E+02  0.43400725656E+02  0.00000000000E+00 0. -1.
         11    1    3    3    0    0 -0.17188087647E+02 -0.27542574755E+01 -0.69162188347E+01  0.18731000359E+02  0.51100000000E-03 0. -1.
        -11    1    3    3    0    0 -0.58623260187E+01 -0.21467615618E+01 -0.75595236756E+01  0.98041751318E+01  0.51100000000E-03 0.  1.
         12    1    3    3    0    0 -0.14493245395E+02  0.10905973510E+02 -0.64535951181E+01  0.19252098853E+02  0.00000000000E+00 0. -1.
</event>
<event>
 7    1  0.2599124E-010  0.4778727E+02  0.7816164E-02  0.1312668E+00
        -11   -1    0    0    0    0  0.00000000000E+00  0.00000000000E+00  0.45593999997E+02  0.45594000000E+02  0.51100000000E-03 0.  1.
         11   -1    0    0    0    0 -0.00000000000E+00 -0.00000000000E+00 -0.45593999997E+02  0.45594000000E+02  0.51100000000E-03 0. -1.
    9900012    2    1    2    0    0  0.40252028174E+02 -0.14825760527E+02  0.66025873729E+01  0.47787272963E+02  0.20000008749E+02 0.  0.
         12    1    1    2    0    0 -0.40252028174E+02  0.14825760527E+02 -0.66025873729E+01  0.43400727037E+02  0.00000000000E+00 0. -1.
         11    1    3    3    0    0  0.15395083350E+02 -0.13506220705E+02  0.41823735310E+01  0.20902603610E+02  0.51100000000E-03 0. -1.
        -11    1    3    3    0    0  0.12907611569E+02 -0.54278919415E+01  0.26288506142E+01  0.14247080513E+02  0.51100000000E-03 0.  1.
         12    1    3    3    0    0  0.11949333255E+02  0.41083521195E+01 -0.20863677231E+00  0.12637588840E+02  0.00000000000E+00 0. -1.
</event>
<event>
 7    1  0.2599124E-010  0.4778727E+02  0.7816164E-02  0.1312668E+00
        -11   -1    0    0    0    0  0.00000000000E+00  0.00000000000E+00  0.45593999997E+02  0.45594000000E+02  0.51100000000E-03 0. -1.
         11   -1    0    0    0    0 -0.00000000000E+00 -0.00000000000E+00 -0.45593999997E+02  0.45594000000E+02  0.51100000000E-03 0.  1.
    9900012    2    1    2    0    0 -0.39924391130E+02 -0.12530480316E+02  0.11517515893E+02  0.47787272858E+02  0.20000008269E+02 0.  0.
         12    1    1    2    0    0  0.39924391130E+02  0.12530480316E+02 -0.11517515893E+02  0.43400727142E+02  0.00000000000E+00 0. -1.
         11    1    3    3    0    0 -0.14421136995E+02 -0.23287336204E+01  0.11288914793E+02  0.18461630209E+02  0.51100000000E-03 0. -1.
        -11    1    3    3    0    0 -0.40063919123E+01 -0.57402616354E+00  0.37402912604E+01  0.55109401344E+01  0.51100000000E-03 0.  1.
        -12    1    3    3    0    0 -0.21496862223E+02 -0.96277205323E+01 -0.35116901601E+01  0.23814702515E+02  0.00000000000E+00 0.  1.
</event>
<event>
 7    1  0.2599124E-010  0.4778727E+02  0.7816164E-02  0.1312668E+00
        -11   -1    0    0    0    0  0.00000000000E+00  0.00000000000E+00  0.45593999997E+02  0.45594000000E+02  0.51100000000E-03 0. -1.
         11   -1    0    0    0    0 -0.00000000000E+00 -0.00000000000E+00 -0.45593999997E+02  0.45594000000E+02  0.51100000000E-03 0.  1.
    9900012    2    1    2    0    0 -0.21854624862E+02 -0.35165404190E+02  0.13015116032E+02  0.47787268151E+02  0.19999986808E+02 0.  0.
         12    1    1    2    0    0  0.21854624862E+02  0.35165404190E+02 -0.13015116032E+02  0.43400731849E+02  0.00000000000E+00 0. -1.
         11    1    3    3    0    0 -0.79014181802E+01 -0.66488068612E+01  0.55991363981E+01  0.11746887699E+02  0.51100000000E-03 0. -1.
        -11    1    3    3    0    0 -0.14915059256E+02 -0.13692730949E+02  0.60025537327E+01  0.21118250994E+02  0.51100000000E-03 0.  1.
         12    1    3    3    0    0  0.96185257456E+00 -0.14823866379E+02  0.14134259016E+01  0.14922129459E+02  0.00000000000E+00 0. -1.
</event>
<event>
 7    1  0.2599124E-010  0.4778727E+02  0.7816164E-02  0.1312668E+00
        -11   -1    0    0    0    0  0.00000000000E+00  0.00000000000E+00  0.45593999997E+02  0.45594000000E+02  0.51100000000E-03 0.  1.
         11   -1    0    0    0    0 -0.00000000000E+00 -0.00000000000E+00 -0.45593999997E+02  0.45594000000E+02  0.51100000000E-03 0. -1.
    9900012    2    1    2    0    0 -0.47590989948E+01  0.18505978105E+02  0.38967971266E+02  0.47787273814E+02  0.20000012629E+02 0.  0.
         12    1    1    2    0    0  0.47590989948E+01 -0.18505978105E+02 -0.38967971266E+02  0.43400726186E+02  0.00000000000E+00 0. -1.
         11    1    3    3    0    0  0.56175066337E+01  0.10134638363E+02  0.12100492848E+02  0.16753781751E+02  0.51100000000E-03 0. -1.
        -11    1    3    3    0    0 -0.19299088949E+01  0.49930095675E+01  0.15940185669E+02  0.16814999623E+02  0.51100000000E-03 0.  1.
         12    1    3    3    0    0 -0.84466967336E+01  0.33783301742E+01  0.10927292749E+02  0.14218492441E+02  0.00000000000E+00 0. -1.
</event>
<event>
 7    1  0.2599124E-010  0.4778728E+02  0.7816164E-02  0.1312668E+00
        -11   -1    0    0    0    0  0.00000000000E+00  0.00000000000E+00  0.45593999997E+02  0.45594000000E+02  0.51100000000E-03 0.  1.
         11   -1    0    0    0    0 -0.00000000000E+00 -0.00000000000E+00 -0.45593999997E+02  0.45594000000E+02  0.51100000000E-03 0. -1.
    9900012    2    1    2    0    0  0.41003402052E+02  0.60864070659E+01  0.12856880707E+02  0.47787277514E+02  0.20000029497E+02 0.  0.
         12    1    1    2    0    0 -0.41003402052E+02 -0.60864070659E+01 -0.12856880707E+02  0.43400722486E+02  0.00000000000E+00 0. -1.
         11    1    3    3    0    0  0.92873857525E+01 -0.51481735041E+01  0.34916560772E+01  0.11178143270E+02  0.51100000000E-03 0. -1.
        -11    1    3    3    0    0  0.24260416538E+01  0.26920157807E+01 -0.18923170747E+01  0.40882136981E+01  0.51100000000E-03 0.  1.
        -12    1    3    3    0    0  0.29289974646E+02  0.85425647893E+01  0.11257541704E+02  0.32520920546E+02  0.00000000000E+00 0.  1.
</event>
<event>
 7    1  0.2599124E-010  0.4778727E+02  0.7816164E-02  0.1312668E+00
        -11   -1    0    0    0    0  0.00000000000E+00  0.00000000000E+00  0.45593999997E+02  0.45594000000E+02  0.51100000000E-03 0.  1.
         11   -1    0    0    0    0 -0.00000000000E+00 -0.00000000000E+00 -0.45593999997E+02  0.45594000000E+02  0.51100000000E-03 0. -1.
    9900012    2    1    2    0    0  0.85103081297E+01  0.70255637971E+01  0.41974271285E+02  0.47787270270E+02  0.19999996471E+02 0.  0.
         12    1    1    2    0    0 -0.85103081297E+01 -0.70255637971E+01 -0.41974271285E+02  0.43400729730E+02  0.00000000000E+00 0. -1.
         11    1    3    3    0    0  0.58063303584E+01  0.11424599022E+01  0.98779861663E+01  0.11514916318E+02  0.51100000000E-03 0. -1.
        -11    1    3    3    0    0  0.66436878187E+01 -0.19400964514E+01  0.21145591918E+02  0.22249463362E+02  0.51100000000E-03 0.  1.
         12    1    3    3    0    0 -0.39397100474E+01  0.78232003463E+01  0.10950693201E+02  0.14022890590E+02  0.00000000000E+00 0. -1.
</event>
<event>
 7    1  0.2599124E-010  0.4778727E+02  0.7816164E-02  0.1312668E+00
        -11   -1    0    0    0    0  0.00000000000E+00  0.00000000000E+00  0.45593999997E+02  0.45594000000E+02  0.51100000000E-03 0.  1.
         11   -1    0    0    0    0 -0.00000000000E+00 -0.00000000000E+00 -0.45593999997E+02  0.45594000000E+02  0.51100000000E-03 0. -1.
    9900012    2    1    2    0    0 -0.21081843990E+01 -0.24802163366E+02  0.35553225853E+02  0.47787267084E+02  0.19999981941E+02 0.  0.
         12    1    1    2    0    0  0.21081843990E+01  0.24802163366E+02 -0.35553225853E+02  0.43400732916E+02  0.00000000000E+00 0. -1.
         11    1    3    3    0    0  0.46040733489E+01 -0.22219084438E+02  0.31401784810E+02  0.38742190105E+02  0.51100000000E-03 0. -1.
        -11    1    3    3    0    0 -0.19196120756E+01 -0.13040715122E+01  0.32656359197E+01  0.40062315524E+01  0.51100000000E-03 0.  1.
         12    1    3    3    0    0 -0.47926456723E+01 -0.12790074164E+01  0.88580512371E+00  0.50388454262E+01  0.00000000000E+00 0. -1.
</event>
<event>
 7    1  0.2599124E-010  0.4778727E+02  0.7816164E-02  0.1312668E+00
        -11   -1    0    0    0    0  0.00000000000E+00  0.00000000000E+00  0.45593999997E+02  0.45594000000E+02  0.51100000000E-03 0. -1.
         11   -1    0    0    0    0 -0.00000000000E+00 -0.00000000000E+00 -0.45593999997E+02  0.45594000000E+02  0.51100000000E-03 0.  1.
    9900012    2    1    2    0    0 -0.25705163745E+02 -0.34671960141E+02  0.45522611964E+01  0.47787270223E+02  0.19999996254E+02 0.  0.
         12    1    1    2    0    0  0.25705163745E+02  0.34671960141E+02 -0.45522611964E+01  0.43400729777E+02  0.00000000000E+00 0. -1.
         11    1    3    3    0    0 -0.85821900494E+01 -0.92591048152E+01 -0.13429436840E+01  0.12696003545E+02  0.51100000000E-03 0. -1.
        -11    1    3    3    0    0 -0.15111058369E+02 -0.21161481481E+02 -0.18079592763E+01  0.26065707367E+02  0.51100000000E-03 0.  1.
         12    1    3    3    0    0 -0.20119153260E+01 -0.42513738448E+01  0.77031641568E+01  0.90255593109E+01  0.00000000000E+00 0. -1.
</event>
<event>
 7    1  0.2599124E-010  0.4778728E+02  0.7816164E-02  0.1312668E+00
        -11   -1    0    0    0    0  0.00000000000E+00  0.00000000000E+00  0.45593999997E+02  0.45594000000E+02  0.51100000000E-03 0.  1.
         11   -1    0    0    0    0 -0.00000000000E+00 -0.00000000000E+00 -0.45593999997E+02  0.45594000000E+02  0.51100000000E-03 0. -1.
    9900012    2    1    2    0    0 -0.18257331855E+02 -0.15056451353E+02  0.36381259079E+02  0.47787275283E+02  0.20000019325E+02 0.  0.
         12    1    1    2    0    0  0.18257331855E+02  0.15056451353E+02 -0.36381259079E+02  0.43400724717E+02  0.00000000000E+00 0. -1.
         11    1    3    3    0    0  0.80090730544E+00 -0.14027504050E+01 -0.93967308739E+00  0.18687287076E+01  0.51100000000E-03 0. -1.
        -11    1    3    3    0    0 -0.82499199825E+01  0.82726325523E+00  0.15578361170E+02  0.17647404376E+02  0.51100000000E-03 0.  1.
        -12    1    3    3    0    0 -0.10808319178E+02 -0.14480964204E+02  0.21742570996E+02  0.28271142199E+02  0.00000000000E+00 0.  1.
</event>
<event>
 7    1  0.2599124E-010  0.4778727E+02  0.7816164E-02  0.1312668E+00
        -11   -1    0    0    0    0  0.00000000000E+00  0.00000000000E+00  0.45593999997E+02  0.45594000000E+02  0.51100000000E-03 0. -1.
         11   -1    0    0    0    0 -0.00000000000E+00 -0.00000000000E+00 -0.45593999997E+02  0.45594000000E+02  0.51100000000E-03 0.  1.
    9900012    2    1    2    0    0  0.11714316460E+02 -0.40390469274E+02 -0.10724197140E+02  0.47787267027E+02  0.19999981682E+02 0.  0.
         12    1    1    2    0    0 -0.11714316460E+02  0.40390469274E+02  0.10724197140E+02  0.43400732973E+02  0.00000000000E+00 0. -1.
         11    1    3    3    0    0  0.54922990245E+01 -0.11519670448E+02 -0.11294239695E+02  0.17041948432E+02  0.51100000000E-03 0. -1.
        -11    1    3    3    0    0 -0.71653621606E+00 -0.86051881359E+01 -0.27647308188E+01  0.90667758197E+01  0.51100000000E-03 0.  1.
        -12    1    3    3    0    0  0.69385536514E+01 -0.20265610690E+02  0.33347733733E+01  0.21678542775E+02  0.00000000000E+00 0.  1.
</event>
<event>
 7    1  0.2599124E-010  0.4778727E+02  0.7816164E-02  0.1312668E+00
        -11   -1    0    0    0    0  0.00000000000E+00  0.00000000000E+00  0.45593999997E+02  0.45594000000E+02  0.51100000000E-03 0.  1.
         11   -1    0    0    0    0 -0.00000000000E+00 -0.00000000000E+00 -0.45593999997E+02  0.45594000000E+02  0.51100000000E-03 0. -1.
    9900012    2    1    2    0    0  0.22216070668E+01  0.63663308257E+00  0.43339155100E+02  0.47787271844E+02  0.20000003646E+02 0.  0.
         12    1    1    2    0    0 -0.22216070668E+01 -0.63663308257E+00 -0.43339155100E+02  0.43400728156E+02  0.00000000000E+00 0. -1.
         11    1    3    3    0    0  0.95524468239E+01  0.12339584441E+01  0.15404893094E+02  0.18168176168E+02  0.51100000000E-03 0. -1.
        -11    1    3    3    0    0  0.79872471560E+00  0.40652970146E+00  0.82494967246E+01  0.82980373607E+01  0.51100000000E-03 0.  1.
         12    1    3    3    0    0 -0.81295644727E+01 -0.10038550630E+01  0.19684765281E+02  0.21321058315E+02  0.00000000000E+00 0. -1.
</event>
<event>
 7    1  0.2599124E-010  0.4778727E+02  0.7816164E-02  0.1312668E+00
        -11   -1    0    0    0    0  0.00000000000E+00  0.00000000000E+00  0.45593999997E+02  0.45594000000E+02  0.51100000000E-03 0.  1.
         11   -1    0    0    0    0 -0.00000000000E+00 -0.00000000000E+00 -0.45593999997E+02  0.45594000000E+02  0.51100000000E-03 0. -1.
    9900012    2    1    2    0    0 -0.20478436520E+02 -0.37639480144E+02 -0.68939346883E+01  0.47787272318E+02  0.20000005806E+02 0.  0.
         12    1    1    2    0    0  0.20478436520E+02  0.37639480144E+02  0.68939346883E+01  0.43400727682E+02  0.00000000000E+00 0. -1.
         11    1    3    3    0    0 -0.39075930615E+01  0.23943426045E+00 -0.12289754499E+01  0.41032905353E+01  0.51100000000E-03 0. -1.
        -11    1    3    3    0    0 -0.13940939180E+02 -0.17327480098E+02 -0.13557482204E+00  0.22239823123E+02  0.51100000000E-03 0.  1.
        -12    1    3    3    0    0 -0.26299042790E+01 -0.20551434307E+02 -0.55293844163E+01  0.21444158659E+02  0.00000000000E+00 0.  1.
</event>
<event>
 7    1  0.2599124E-010  0.4778726E+02  0.7816164E-02  0.1312668E+00
        -11   -1    0    0    0    0  0.00000000000E+00  0.00000000000E+00  0.45593999997E+02  0.45594000000E+02  0.51100000000E-03 0. -1.
         11   -1    0    0    0    0 -0.00000000000E+00 -0.00000000000E+00 -0.45593999997E+02  0.45594000000E+02  0.51100000000E-03 0.  1.
    9900012    2    1    2    0    0 -0.28642859999E+02  0.10866346135E+02 -0.30743018513E+02  0.47787261590E+02  0.19999956894E+02 0.  0.
         12    1    1    2    0    0  0.28642859999E+02 -0.10866346135E+02  0.30743018513E+02  0.43400738410E+02  0.00000000000E+00 0. -1.
         11    1    3    3    0    0 -0.27348577771E+01 -0.20814074047E+01 -0.40652252725E+01  0.53233223294E+01  0.51100000000E-03 0. -1.
        -11    1    3    3    0    0 -0.60865186612E+01 -0.36102688403E+01 -0.73680656426E+01  0.10216072733E+02  0.51100000000E-03 0.  1.
        -12    1    3    3    0    0 -0.19821483560E+02  0.16558022380E+02 -0.19309727598E+02  0.32247866528E+02  0.00000000000E+00 0.  1.
</event>
<event>
 7    1  0.2599124E-010  0.4778727E+02  0.7816164E-02  0.1312668E+00
        -11   -1    0    0    0    0  0.00000000000E+00  0.00000000000E+00  0.45593999997E+02  0.45594000000E+02  0.51100000000E-03 0.  1.
         11   -1    0    0    0    0 -0.00000000000E+00 -0.00000000000E+00 -0.45593999997E+02  0.45594000000E+02  0.51100000000E-03 0. -1.
    9900012    2    1    2    0    0 -0.18094119488E+02 -0.13608083939E+02  0.37027640554E+02  0.47787271048E+02  0.20000000015E+02 0.  0.
         12    1    1    2    0    0  0.18094119488E+02  0.13608083939E+02 -0.37027640554E+02  0.43400728952E+02  0.00000000000E+00 0. -1.
         11    1    3    3    0    0 -0.51438990554E+01  0.14235137756E+01  0.70168013607E+01  0.88159849454E+01  0.51100000000E-03 0. -1.
        -11    1    3    3    0    0 -0.11582313210E+02 -0.31425044627E+01  0.20201149723E+02  0.23497058624E+02  0.51100000000E-03 0.  1.
         12    1    3    3    0    0 -0.13679072227E+01 -0.11889093252E+02  0.98096894706E+01  0.15474227478E+02  0.00000000000E+00 0. -1.
</event>
<event>
 7    1  0.2599124E-010  0.4778727E+02  0.7816164E-02  0.1312668E+00
        -11   -1    0    0    0    0  0.00000000000E+00  0.00000000000E+00  0.45593999997E+02  0.45594000000E+02  0.51100000000E-03 0.  1.
         11   -1    0    0    0    0 -0.00000000000E+00 -0.00000000000E+00 -0.45593999997E+02  0.45594000000E+02  0.51100000000E-03 0. -1.
    9900012    2    1    2    0    0 -0.36934935997E+02  0.69042210163E+01  0.21720156332E+02  0.47787274706E+02  0.20000016696E+02 0.  0.
         12    1    1    2    0    0  0.36934935997E+02 -0.69042210163E+01 -0.21720156332E+02  0.43400725294E+02  0.00000000000E+00 0. -1.
         11    1    3    3    0    0 -0.13221341897E+02  0.89135508853E+00  0.88084603436E-01  0.13251647241E+02  0.51100000000E-03 0. -1.
        -11    1    3    3    0    0 -0.11780088159E+02  0.63793956362E+01  0.55367540749E+01  0.14495613532E+02  0.51100000000E-03 0.  1.
         12    1    3    3    0    0 -0.11933505941E+02 -0.36652970846E+00  0.16095317654E+02  0.20040013934E+02  0.00000000000E+00 0. -1.
</event>
<event>
 7    1  0.2599124E-010  0.4778727E+02  0.7816164E-02  0.1312668E+00
        -11   -1    0    0    0    0  0.00000000000E+00  0.00000000000E+00  0.45593999997E+02  0.45594000000E+02  0.51100000000E-03 0.  1.
         11   -1    0    0    0    0 -0.00000000000E+00 -0.00000000000E+00 -0.45593999997E+02  0.45594000000E+02  0.51100000000E-03 0. -1.
    9900012    2    1    2    0    0  0.20226763246E+02  0.22963496026E+02  0.30776277375E+02  0.47787270166E+02  0.19999995993E+02 0.  0.
         12    1    1    2    0    0 -0.20226763246E+02 -0.22963496026E+02 -0.30776277375E+02  0.43400729834E+02  0.00000000000E+00 0. -1.
         11    1    3    3    0    0  0.24478012139E+01  0.30393711444E+01  0.37050774212E+01  0.53811807900E+01  0.51100000000E-03 0. -1.
        -11    1    3    3    0    0  0.14084021678E+02  0.22879591427E+02  0.26328138573E+02  0.37616568842E+02  0.51100000000E-03 0.  1.
         12    1    3    3    0    0  0.36949403537E+01 -0.29554665462E+01  0.74306138057E+00  0.47895205332E+01  0.00000000000E+00 0. -1.
</event>
<event>
 7    1  0.2599124E-010  0.4778726E+02  0.7816164E-02  0.1312668E+00
        -11   -1    0    0    0    0  0.00000000000E+00  0.00000000000E+00  0.45593999997E+02  0.45594000000E+02  0.51100000000E-03 0. -1.
         11   -1    0    0    0    0 -0.00000000000E+00 -0.00000000000E+00 -0.45593999997E+02  0.45594000000E+02  0.51100000000E-03 0.  1.
    9900012    2    1    2    0    0  0.15256672207E+02 -0.27783426173E+02 -0.29646905266E+02  0.47787264885E+02  0.19999971915E+02 0.  0.
         12    1    1    2    0    0 -0.15256672207E+02  0.27783426173E+02  0.29646905266E+02  0.43400735115E+02  0.00000000000E+00 0. -1.
         11    1    3    3    0    0 -0.19662292863E+00 -0.65917164074E+01 -0.44539219648E+01  0.79578142037E+01  0.51100000000E-03 0. -1.
        -11    1    3    3    0    0  0.14931513280E+02 -0.18019883425E+02 -0.12095463751E+02  0.26343244505E+02  0.51100000000E-03 0.  1.
        -12    1    3    3    0    0  0.52178185532E+00 -0.31718263407E+01 -0.13097519550E+02  0.13486206176E+02  0.00000000000E+00 0.  1.
</event>
<event>
 7    1  0.2599124E-010  0.4778727E+02  0.7816164E-02  0.1312668E+00
        -11   -1    0    0    0    0  0.00000000000E+00  0.00000000000E+00  0.45593999997E+02  0.45594000000E+02  0.51100000000E-03 0.  1.
         11   -1    0    0    0    0 -0.00000000000E+00 -0.00000000000E+00 -0.45593999997E+02  0.45594000000E+02  0.51100000000E-03 0. -1.
    9900012    2    1    2    0    0 -0.36326427296E+02 -0.10090265005E+02  0.21498846311E+02  0.47787272349E+02  0.20000005948E+02 0.  0.
         12    1    1    2    0    0  0.36326427296E+02  0.10090265005E+02 -0.21498846311E+02  0.43400727651E+02  0.00000000000E+00 0. -1.
         11    1    3    3    0    0 -0.98063972929E+01 -0.84973502665E+01  0.12301070851E+02  0.17879785619E+02  0.51100000000E-03 0. -1.
        -11    1    3    3    0    0 -0.12320525553E+02 -0.10209282426E+01  0.96595059574E+01  0.15688967461E+02  0.51100000000E-03 0.  1.
         12    1    3    3    0    0 -0.14199504449E+02 -0.57198649573E+00 -0.46173049789E+00  0.14218519269E+02  0.00000000000E+00 0. -1.
</event>
<event>
 7    1  0.2599124E-010  0.4778728E+02  0.7816164E-02  0.1312668E+00
        -11   -1    0    0    0    0  0.00000000000E+00  0.00000000000E+00  0.45593999997E+02  0.45594000000E+02  0.51100000000E-03 0. -1.
         11   -1    0    0    0    0 -0.00000000000E+00 -0.00000000000E+00 -0.45593999997E+02  0.45594000000E+02  0.51100000000E-03 0.  1.
    9900012    2    1    2    0    0 -0.15178884543E+02 -0.40126146185E+02 -0.65663297262E+01  0.47787276162E+02  0.20000023331E+02 0.  0.
         12    1    1    2    0    0  0.15178884543E+02  0.40126146185E+02  0.65663297262E+01  0.43400723838E+02  0.00000000000E+00 0. -1.
         11    1    3    3    0    0 -0.17578813504E+02 -0.23858458545E+02 -0.14445145941E+01  0.29670310936E+02  0.51100000000E-03 0.  1.
        -11    1    3    3    0    0  0.26872192726E+01 -0.77995641941E+01 -0.65133731669E-01  0.82497631300E+01  0.51100000000E-03 0. -1.
        -12    1    3    3    0    0 -0.28729031183E+00 -0.84681234455E+01 -0.50566814004E+01  0.98672020957E+01  0.00000000000E+00 0.  1.
</event>
<event>
 7    1  0.2599124E-010  0.4778727E+02  0.7816164E-02  0.1312668E+00
        -11   -1    0    0    0    0  0.00000000000E+00  0.00000000000E+00  0.45593999997E+02  0.45594000000E+02  0.51100000000E-03 0.  1.
         11   -1    0    0    0    0 -0.00000000000E+00 -0.00000000000E+00 -0.45593999997E+02  0.45594000000E+02  0.51100000000E-03 0. -1.
    9900012    2    1    2    0    0 -0.22739394576E+02  0.48104378538E+01  0.36652460740E+02  0.47787271246E+02  0.20000000921E+02 0.  0.
         12    1    1    2    0    0  0.22739394576E+02 -0.48104378538E+01 -0.36652460740E+02  0.43400728754E+02  0.00000000000E+00 0. -1.
         11    1    3    3    0    0 -0.69325555859E+01 -0.28599678432E+01  0.68497988605E+01  0.10156745921E+02  0.51100000000E-03 0. -1.
        -11    1    3    3    0    0 -0.39128385698E+01 -0.21147161732E+01  0.43472550514E+00  0.44689279131E+01  0.51100000000E-03 0.  1.
         12    1    3    3    0    0 -0.11894000420E+02  0.97851218703E+01  0.29367936375E+02  0.33161597412E+02  0.00000000000E+00 0. -1.
</event>
<event>
 7    1  0.2599124E-010  0.4778727E+02  0.7816164E-02  0.1312668E+00
        -11   -1    0    0    0    0  0.00000000000E+00  0.00000000000E+00  0.45593999997E+02  0.45594000000E+02  0.51100000000E-03 0. -1.
         11   -1    0    0    0    0 -0.00000000000E+00 -0.00000000000E+00 -0.45593999997E+02  0.45594000000E+02  0.51100000000E-03 0.  1.
    9900012    2    1    2    0    0  0.38425174460E+02  0.42129745556E+01 -0.19732718474E+02  0.47787269991E+02  0.19999995199E+02 0.  0.
         12    1    1    2    0    0 -0.38425174460E+02 -0.42129745556E+01  0.19732718474E+02  0.43400730009E+02  0.00000000000E+00 0. -1.
         11    1    3    3    0    0  0.45577798171E+01  0.30164469408E+01 -0.49129542934E+01  0.73491107733E+01  0.51100000000E-03 0. -1.
        -11    1    3    3    0    0  0.20314969461E+02  0.82404261938E+01 -0.57098453667E+01  0.22654027069E+02  0.51100000000E-03 0.  1.
         12    1    3    3    0    0  0.13552425182E+02 -0.70438985791E+01 -0.91099188136E+01  0.17784132149E+02  0.00000000000E+00 0. -1.
</event>
<event>
 7    1  0.2866826E-010  0.4778727E+02  0.7816164E-02  0.1312668E+00
        -11   -1    0    0    0    0  0.00000000000E+00  0.00000000000E+00  0.45593999997E+02  0.45594000000E+02  0.51100000000E-03 0. -1.
         11   -1    0    0    0    0 -0.00000000000E+00 -0.00000000000E+00 -0.45593999997E+02  0.45594000000E+02  0.51100000000E-03 0.  1.
    9900012    2    1    2    0    0  0.11449827917E+02 -0.23021009729E+02 -0.34965092331E+02  0.47787272702E+02  0.20000007559E+02 0.  0.
         12    1    1    2    0    0 -0.11449827917E+02  0.23021009729E+02  0.34965092331E+02  0.43400727298E+02  0.00000000000E+00 0. -1.
         11    1    3    3    0    0  0.97880037704E+00 -0.11590349113E+02 -0.92721897915E+01  0.14875071312E+02  0.51100000000E-03 0. -1.
        -11    1    3    3    0    0 -0.12951069057E+01  0.14360884400E+01 -0.89445855604E-01  0.19358855150E+01  0.51100000000E-03 0.  1.
        -12    1    3    3    0    0  0.11766134446E+02 -0.12866749055E+02 -0.25603456684E+02  0.30976315875E+02  0.00000000000E+00 0.  1.
</event>
<event>
 7    1  0.2599124E-010  0.4778727E+02  0.7816164E-02  0.1312668E+00
        -11   -1    0    0    0    0  0.00000000000E+00  0.00000000000E+00  0.45593999997E+02  0.45594000000E+02  0.51100000000E-03 0. -1.
         11   -1    0    0    0    0 -0.00000000000E+00 -0.00000000000E+00 -0.45593999997E+02  0.45594000000E+02  0.51100000000E-03 0.  1.
    9900012    2    1    2    0    0  0.25985898845E+02 -0.31736822358E+02  0.14182045202E+02  0.47787271455E+02  0.20000001871E+02 0.  0.
         12    1    1    2    0    0 -0.25985898845E+02  0.31736822358E+02 -0.14182045202E+02  0.43400728545E+02  0.00000000000E+00 0. -1.
         11    1    3    3    0    0 -0.15327832916E+01 -0.92458773364E+01  0.49684981642E+01  0.10607622100E+02  0.51100000000E-03 0. -1.
        -11    1    3    3    0    0  0.70937073843E+01 -0.41053447506E+01  0.25983462485E-02  0.81960079910E+01  0.51100000000E-03 0.  1.
        -12    1    3    3    0    0  0.20424974752E+02 -0.18385600271E+02  0.92109486917E+01  0.28983641364E+02  0.00000000000E+00 0.  1.
</event>
<event>
 7    1  0.2599124E-010  0.4778727E+02  0.7816164E-02  0.1312668E+00
        -11   -1    0    0    0    0  0.00000000000E+00  0.00000000000E+00  0.45593999997E+02  0.45594000000E+02  0.51100000000E-03 0.  1.
         11   -1    0    0    0    0 -0.00000000000E+00 -0.00000000000E+00 -0.45593999997E+02  0.45594000000E+02  0.51100000000E-03 0. -1.
    9900012    2    1    2    0    0  0.82618857557E+01 -0.12179643606E+02  0.40829170066E+02  0.47787267254E+02  0.19999982716E+02 0.  0.
         12    1    1    2    0    0 -0.82618857557E+01  0.12179643606E+02 -0.40829170066E+02  0.43400732746E+02  0.00000000000E+00 0. -1.
         11    1    3    3    0    0  0.28422215801E+01 -0.12141373712E+02  0.17081597964E+02  0.21148810094E+02  0.51100000000E-03 0. -1.
        -11    1    3    3    0    0  0.74332527976E+01 -0.31704139947E+01  0.18652093266E+02  0.20327453247E+02  0.51100000000E-03 0.  1.
         12    1    3    3    0    0 -0.20135886220E+01  0.31321441011E+01  0.50954788363E+01  0.63110039122E+01  0.00000000000E+00 0. -1.
</event>
<event>
 7    1  0.2599124E-010  0.4778727E+02  0.7816164E-02  0.1312668E+00
        -11   -1    0    0    0    0  0.00000000000E+00  0.00000000000E+00  0.45593999997E+02  0.45594000000E+02  0.51100000000E-03 0.  1.
         11   -1    0    0    0    0 -0.00000000000E+00 -0.00000000000E+00 -0.45593999997E+02  0.45594000000E+02  0.51100000000E-03 0. -1.
    9900012    2    1    2    0    0  0.34781722825E+02 -0.25167655912E+02 -0.63595773723E+01  0.47787269924E+02  0.19999994893E+02 0.  0.
         12    1    1    2    0    0 -0.34781722825E+02  0.25167655912E+02  0.63595773723E+01  0.43400730076E+02  0.00000000000E+00 0. -1.
         11    1    3    3    0    0  0.11734064681E+01 -0.67855196739E+01 -0.34699946552E+01  0.77110974026E+01  0.51100000000E-03 0. -1.
        -11    1    3    3    0    0  0.39818431231E+01  0.44017418882E+00  0.22613476932E+01  0.46002740814E+01  0.51100000000E-03 0.  1.
        -12    1    3    3    0    0  0.29626473234E+02 -0.18822310426E+02 -0.51509304104E+01  0.35475898440E+02  0.00000000000E+00 0.  1.
</event>
<event>
 7    1  0.2599124E-010  0.4778727E+02  0.7816164E-02  0.1312668E+00
        -11   -1    0    0    0    0  0.00000000000E+00  0.00000000000E+00  0.45593999997E+02  0.45594000000E+02  0.51100000000E-03 0. -1.
         11   -1    0    0    0    0 -0.00000000000E+00 -0.00000000000E+00 -0.45593999997E+02  0.45594000000E+02  0.51100000000E-03 0.  1.
    9900012    2    1    2    0    0  0.26805208410E+02 -0.28870225708E+01 -0.34011311506E+02  0.47787269504E+02  0.19999992976E+02 0.  0.
         12    1    1    2    0    0 -0.26805208410E+02  0.28870225708E+01  0.34011311506E+02  0.43400730496E+02  0.00000000000E+00 0. -1.
         11    1    3    3    0    0  0.43787030997E+01 -0.61241553919E+00 -0.12421181162E+02  0.13184605999E+02  0.51100000000E-03 0. -1.
        -11    1    3    3    0    0  0.17467544830E+02  0.47786254093E+01 -0.16983343078E+02  0.24827088544E+02  0.51100000000E-03 0.  1.
         12    1    3    3    0    0  0.49589604797E+01 -0.70532324409E+01 -0.46067872670E+01  0.97755749615E+01  0.00000000000E+00 0. -1.
</event>
<event>
 7    1  0.2599124E-010  0.4778727E+02  0.7816164E-02  0.1312668E+00
        -11   -1    0    0    0    0  0.00000000000E+00  0.00000000000E+00  0.45593999997E+02  0.45594000000E+02  0.51100000000E-03 0.  1.
         11   -1    0    0    0    0 -0.00000000000E+00 -0.00000000000E+00 -0.45593999997E+02  0.45594000000E+02  0.51100000000E-03 0. -1.
    9900012    2    1    2    0    0 -0.17961531964E+02 -0.18182724689E+02  0.35076987533E+02  0.47787272333E+02  0.20000005875E+02 0.  0.
         12    1    1    2    0    0  0.17961531964E+02  0.18182724689E+02 -0.35076987533E+02  0.43400727667E+02  0.00000000000E+00 0. -1.
         11    1    3    3    0    0 -0.43606380534E+01  0.92087479759E+00  0.69226827132E+01  0.82332685389E+01  0.51100000000E-03 0. -1.
        -11    1    3    3    0    0  0.31016095319E+01 -0.46589252048E+01  0.43845243536E+01  0.71098255830E+01  0.51100000000E-03 0.  1.
         12    1    3    3    0    0 -0.16702503443E+02 -0.14444674282E+02  0.23769780466E+02  0.32444178211E+02  0.00000000000E+00 0. -1.
</event>
<event>
 7    1  0.2599124E-010  0.4778728E+02  0.7816164E-02  0.1312668E+00
        -11   -1    0    0    0    0  0.00000000000E+00  0.00000000000E+00  0.45593999997E+02  0.45594000000E+02  0.51100000000E-03 0.  1.
         11   -1    0    0    0    0 -0.00000000000E+00 -0.00000000000E+00 -0.45593999997E+02  0.45594000000E+02  0.51100000000E-03 0. -1.
    9900012    2    1    2    0    0 -0.41869821618E+02  0.10837556170E+02  0.36177672128E+01  0.47787276208E+02  0.20000023544E+02 0.  0.
         12    1    1    2    0    0  0.41869821618E+02 -0.10837556170E+02 -0.36177672128E+01  0.43400723792E+02  0.00000000000E+00 0. -1.
         11    1    3    3    0    0 -0.19379403996E+02  0.86464594969E+01  0.28313804059E+00  0.21222693714E+02  0.51100000000E-03 0. -1.
        -11    1    3    3    0    0 -0.16080050767E+02  0.77553223468E+01  0.26566337955E+01  0.18049120775E+02  0.51100000000E-03 0.  1.
         12    1    3    3    0    0 -0.64103668543E+01 -0.55642256736E+01  0.67799537671E+00  0.85154617188E+01  0.00000000000E+00 0. -1.
</event>
<event>
 7    1  0.2599124E-010  0.4778727E+02  0.7816164E-02  0.1312668E+00
        -11   -1    0    0    0    0  0.00000000000E+00  0.00000000000E+00  0.45593999997E+02  0.45594000000E+02  0.51100000000E-03 0. -1.
         11   -1    0    0    0    0 -0.00000000000E+00 -0.00000000000E+00 -0.45593999997E+02  0.45594000000E+02  0.51100000000E-03 0.  1.
    9900012    2    1    2    0    0 -0.25046309265E+01  0.43862101611E+01 -0.43105814747E+02  0.47787270966E+02  0.19999999643E+02 0.  0.
         12    1    1    2    0    0  0.25046309265E+01 -0.43862101611E+01  0.43105814747E+02  0.43400729034E+02  0.00000000000E+00 0. -1.
         11    1    3    3    0    0  0.27001985196E+01 -0.25643934374E+01 -0.57396038046E+01  0.68418007748E+01  0.51100000000E-03 0. -1.
        -11    1    3    3    0    0  0.31498632418E+01  0.63972391364E+01 -0.25105492735E+02  0.26098507098E+02  0.51100000000E-03 0.  1.
        -12    1    3    3    0    0 -0.83546926879E+01  0.55336446207E+00 -0.12260718208E+02  0.14846963094E+02  0.00000000000E+00 0.  1.
</event>
<event>
 7    1  0.2599124E-010  0.4778727E+02  0.7816164E-02  0.1312668E+00
        -11   -1    0    0    0    0  0.00000000000E+00  0.00000000000E+00  0.45593999997E+02  0.45594000000E+02  0.51100000000E-03 0.  1.
         11   -1    0    0    0    0 -0.00000000000E+00 -0.00000000000E+00 -0.45593999997E+02  0.45594000000E+02  0.51100000000E-03 0. -1.
    9900012    2    1    2    0    0 -0.45537396173E+01 -0.12807768452E+02  0.41217079030E+02  0.47787273266E+02  0.20000010130E+02 0.  0.
         12    1    1    2    0    0  0.45537396173E+01  0.12807768452E+02 -0.41217079030E+02  0.43400726734E+02  0.00000000000E+00 0. -1.
         11    1    3    3    0    0  0.71733969168E+01 -0.17304251780E+01  0.92293608686E+01  0.11816644910E+02  0.51100000000E-03 0. -1.
        -11    1    3    3    0    0 -0.26439241485E+01 -0.38053457840E+01  0.11682395440E+02  0.12567790375E+02  0.51100000000E-03 0.  1.
         12    1    3    3    0    0 -0.90832123856E+01 -0.72719974899E+01  0.20305322722E+02  0.23402837981E+02  0.00000000000E+00 0. -1.
</event>
<event>
 7    1  0.2599124E-010  0.4778727E+02  0.7816164E-02  0.1312668E+00
        -11   -1    0    0    0    0  0.00000000000E+00  0.00000000000E+00  0.45593999997E+02  0.45594000000E+02  0.51100000000E-03 0. -1.
         11   -1    0    0    0    0 -0.00000000000E+00 -0.00000000000E+00 -0.45593999997E+02  0.45594000000E+02  0.51100000000E-03 0.  1.
    9900012    2    1    2    0    0  0.72389849917E+01  0.40395958715E+02 -0.14120451467E+02  0.47787268049E+02  0.19999986343E+02 0.  0.
         12    1    1    2    0    0 -0.72389849917E+01 -0.40395958715E+02  0.14120451467E+02  0.43400731951E+02  0.00000000000E+00 0. -1.
         11    1    3    3    0    0 -0.52744732897E+00  0.13885977967E+01  0.22718306800E+01  0.27143359087E+01  0.51100000000E-03 0. -1.
        -11    1    3    3    0    0  0.16926809636E+01 -0.65599342637E+00 -0.11544281573E+01  0.21513253709E+01  0.51100000000E-03 0.  1.
        -12    1    3    3    0    0  0.60737513570E+01  0.39663354345E+02 -0.15237853990E+02  0.42921606769E+02  0.00000000000E+00 0.  1.
</event>
<event>
 7    1  0.2599124E-010  0.4778727E+02  0.7816164E-02  0.1312668E+00
        -11   -1    0    0    0    0  0.00000000000E+00  0.00000000000E+00  0.45593999997E+02  0.45594000000E+02  0.51100000000E-03 0.  1.
         11   -1    0    0    0    0 -0.00000000000E+00 -0.00000000000E+00 -0.45593999997E+02  0.45594000000E+02  0.51100000000E-03 0. -1.
    9900012    2    1    2    0    0 -0.11811499648E+02 -0.76310711079E+01  0.41059449712E+02  0.47787272117E+02  0.20000004889E+02 0.  0.
         12    1    1    2    0    0  0.11811499648E+02  0.76310711079E+01 -0.41059449712E+02  0.43400727883E+02  0.00000000000E+00 0. -1.
         11    1    3    3    0    0 -0.18876336699E+01  0.19806313191E+01  0.18469955793E+02  0.18671511148E+02  0.51100000000E-03 0. -1.
        -11    1    3    3    0    0 -0.99874570272E+01 -0.48980751504E+01  0.21604204515E+02  0.24299837264E+02  0.51100000000E-03 0.  1.
        -12    1    3    3    0    0  0.63591049206E-01 -0.47136272765E+01  0.98528940337E+00  0.48159237049E+01  0.00000000000E+00 0.  1.
</event>
<event>
 7    1  0.2599124E-010  0.4778728E+02  0.7816164E-02  0.1312668E+00
        -11   -1    0    0    0    0  0.00000000000E+00  0.00000000000E+00  0.45593999997E+02  0.45594000000E+02  0.51100000000E-03 0. -1.
         11   -1    0    0    0    0 -0.00000000000E+00 -0.00000000000E+00 -0.45593999997E+02  0.45594000000E+02  0.51100000000E-03 0.  1.
    9900012    2    1    2    0    0 -0.19849242340E+02  0.43295303429E+01 -0.38352124695E+02  0.47787277390E+02  0.20000028933E+02 0.  0.
         12    1    1    2    0    0  0.19849242340E+02 -0.43295303429E+01  0.38352124695E+02  0.43400722610E+02  0.00000000000E+00 0. -1.
         11    1    3    3    0    0 -0.81871948493E+01 -0.68017648445E+00 -0.74005161047E+01  0.11057144226E+02  0.51100000000E-03 0. -1.
        -11    1    3    3    0    0 -0.14340916742E+02  0.18800612412E+01 -0.17727806752E+02  0.22879502962E+02  0.51100000000E-03 0.  1.
         12    1    3    3    0    0  0.26788692517E+01  0.31296455862E+01 -0.13223801838E+02  0.13850630203E+02  0.00000000000E+00 0. -1.
</event>
<event>
 7    1  0.2599124E-010  0.4778727E+02  0.7816164E-02  0.1312668E+00
        -11   -1    0    0    0    0  0.00000000000E+00  0.00000000000E+00  0.45593999997E+02  0.45594000000E+02  0.51100000000E-03 0.  1.
         11   -1    0    0    0    0 -0.00000000000E+00 -0.00000000000E+00 -0.45593999997E+02  0.45594000000E+02  0.51100000000E-03 0. -1.
    9900012    2    1    2    0    0  0.28214681880E+02 -0.24292309675E+02  0.22303335612E+02  0.47787270025E+02  0.19999995352E+02 0.  0.
         12    1    1    2    0    0 -0.28214681880E+02  0.24292309675E+02 -0.22303335612E+02  0.43400729975E+02  0.00000000000E+00 0. -1.
         11    1    3    3    0    0  0.35439112169E+01 -0.14472140237E+02  0.66478158842E+01  0.16315502017E+02  0.51100000000E-03 0.  1.
        -11    1    3    3    0    0  0.55189760022E+00  0.75177073730E+00  0.26268087416E+00  0.96889199881E+00  0.51100000000E-03 0. -1.
        -12    1    3    3    0    0  0.24118873063E+02 -0.10571940175E+02  0.15392838854E+02  0.30502876010E+02  0.00000000000E+00 0.  1.
</event>
<event>
 7    1  0.2599124E-010  0.4778727E+02  0.7816164E-02  0.1312668E+00
        -11   -1    0    0    0    0  0.00000000000E+00  0.00000000000E+00  0.45593999997E+02  0.45594000000E+02  0.51100000000E-03 0. -1.
         11   -1    0    0    0    0 -0.00000000000E+00 -0.00000000000E+00 -0.45593999997E+02  0.45594000000E+02  0.51100000000E-03 0.  1.
    9900012    2    1    2    0    0  0.35913655528E+02  0.76646108795E+01 -0.23131931291E+02  0.47787272373E+02  0.20000006057E+02 0.  0.
         12    1    1    2    0    0 -0.35913655528E+02 -0.76646108795E+01  0.23131931291E+02  0.43400727627E+02  0.00000000000E+00 0. -1.
         11    1    3    3    0    0  0.13824865167E+02  0.56100592530E+01 -0.79302840655E+01  0.16896421731E+02  0.51100000000E-03 0. -1.
        -11    1    3    3    0    0  0.53311680628E+01  0.55686714866E+01 -0.10698057203E+02  0.13186352157E+02  0.51100000000E-03 0.  1.
         12    1    3    3    0    0  0.16757622299E+02 -0.35141198601E+01 -0.45035900225E+01  0.17704498484E+02  0.00000000000E+00 0. -1.
</event>
<event>
 7    1  0.2599124E-010  0.4778727E+02  0.7816164E-02  0.1312668E+00
        -11   -1    0    0    0    0  0.00000000000E+00  0.00000000000E+00  0.45593999997E+02  0.45594000000E+02  0.51100000000E-03 0. -1.
         11   -1    0    0    0    0 -0.00000000000E+00 -0.00000000000E+00 -0.45593999997E+02  0.45594000000E+02  0.51100000000E-03 0.  1.
    9900012    2    1    2    0    0 -0.19949925018E+02 -0.29663206937E+02 -0.24611337300E+02  0.47787271000E+02  0.19999999800E+02 0.  0.
         12    1    1    2    0    0  0.19949925018E+02  0.29663206937E+02  0.24611337300E+02  0.43400729000E+02  0.00000000000E+00 0. -1.
         11    1    3    3    0    0 -0.43097061601E+01 -0.15180731626E+02 -0.61611871724E+01  0.16940732202E+02  0.51100000000E-03 0. -1.
        -11    1    3    3    0    0 -0.13417302797E+02 -0.14523637394E+02 -0.10095031337E+02  0.22200669257E+02  0.51100000000E-03 0.  1.
        -12    1    3    3    0    0 -0.22229160601E+01  0.41162083292E-01 -0.83551187903E+01  0.86458695415E+01  0.00000000000E+00 0.  1.
</event>
<event>
 7    1  0.2599124E-010  0.4778727E+02  0.7816164E-02  0.1312668E+00
        -11   -1    0    0    0    0  0.00000000000E+00  0.00000000000E+00  0.45593999997E+02  0.45594000000E+02  0.51100000000E-03 0. -1.
         11   -1    0    0    0    0 -0.00000000000E+00 -0.00000000000E+00 -0.45593999997E+02  0.45594000000E+02  0.51100000000E-03 0.  1.
    9900012    2    1    2    0    0 -0.12891948571E+02  0.69523343874E+01 -0.40854445815E+02  0.47787273805E+02  0.20000012585E+02 0.  0.
         12    1    1    2    0    0  0.12891948571E+02 -0.69523343874E+01  0.40854445815E+02  0.43400726195E+02  0.00000000000E+00 0. -1.
         11    1    3    3    0    0  0.26450942038E+01  0.13075758834E+01 -0.54040005451E+01  0.61570691234E+01  0.51100000000E-03 0. -1.
        -11    1    3    3    0    0  0.27935091484E+00  0.39378522380E+01 -0.16115536099E+02  0.16592022818E+02  0.51100000000E-03 0.  1.
         12    1    3    3    0    0 -0.15816393690E+02  0.17069062660E+01 -0.19334909171E+02  0.25038181863E+02  0.00000000000E+00 0. -1.
</event>
<event>
 7    1  0.2599124E-010  0.4778730E+02  0.7816164E-02  0.1312668E+00
        -11   -1    0    0    0    0  0.00000000000E+00  0.00000000000E+00  0.45593999997E+02  0.45594000000E+02  0.51100000000E-03 0.  1.
         11   -1    0    0    0    0 -0.00000000000E+00 -0.00000000000E+00 -0.45593999997E+02  0.45594000000E+02  0.51100000000E-03 0. -1.
    9900012    2    1    2    0    0  0.24299440453E+02 -0.24752597048E+02  0.26085759853E+02  0.47787300304E+02  0.20000133407E+02 0.  0.
         12    1    1    2    0    0 -0.24299440453E+02  0.24752597048E+02 -0.26085759853E+02  0.43400699696E+02  0.00000000000E+00 0. -1.
         11    1    3    3    0    0 -0.15673177588E+01 -0.17399348580E+01  0.23451692337E+01  0.33141631316E+01  0.51100000000E-03 0. -1.
        -11    1    3    3    0    0  0.59837990196E+01 -0.23753077685E+01  0.11771220431E+02  0.13416764454E+02  0.51100000000E-03 0.  1.
        -12    1    3    3    0    0  0.19882959192E+02 -0.20637354421E+02  0.11969370188E+02  0.31056372719E+02  0.00000000000E+00 0.  1.
</event>
<event>
 7    1  0.2599124E-010  0.4778729E+02  0.7816164E-02  0.1312668E+00
        -11   -1    0    0    0    0  0.00000000000E+00  0.00000000000E+00  0.45593999997E+02  0.45594000000E+02  0.51100000000E-03 0.  1.
         11   -1    0    0    0    0 -0.00000000000E+00 -0.00000000000E+00 -0.45593999997E+02  0.45594000000E+02  0.51100000000E-03 0. -1.
    9900012    2    1    2    0    0 -0.78426851324E+01  0.21113969478E+01  0.42633980354E+02  0.47787285859E+02  0.20000067544E+02 0.  0.
         12    1    1    2    0    0  0.78426851324E+01 -0.21113969478E+01 -0.42633980354E+02  0.43400714141E+02  0.00000000000E+00 0. -1.
         11    1    3    3    0    0  0.29465902718E+01  0.51134850466E+01  0.66897061127E+01  0.89208907452E+01  0.51100000000E-03 0. -1.
        -11    1    3    3    0    0  0.91811918850E+00  0.18818730592E+01  0.47119723372E+01  0.51562653755E+01  0.51100000000E-03 0.  1.
        -12    1    3    3    0    0 -0.11707394593E+02 -0.48839611581E+01  0.31232301904E+02  0.33710129738E+02  0.00000000000E+00 0.  1.
</event>
<event>
 7    1  0.2599124E-010  0.4778727E+02  0.7816164E-02  0.1312668E+00
        -11   -1    0    0    0    0  0.00000000000E+00  0.00000000000E+00  0.45593999997E+02  0.45594000000E+02  0.51100000000E-03 0.  1.
         11   -1    0    0    0    0 -0.00000000000E+00 -0.00000000000E+00 -0.45593999997E+02  0.45594000000E+02  0.51100000000E-03 0. -1.
    9900012    2    1    2    0    0  0.80066899988E+01 -0.38145519572E+02  0.19090193840E+02  0.47787271331E+02  0.20000001306E+02 0.  0.
         12    1    1    2    0    0 -0.80066899988E+01  0.38145519572E+02 -0.19090193840E+02  0.43400728669E+02  0.00000000000E+00 0. -1.
         11    1    3    3    0    0  0.37108859105E+01 -0.17235085798E+02  0.73803299324E+01  0.19112512312E+02  0.51100000000E-03 0. -1.
        -11    1    3    3    0    0  0.72231771888E+01 -0.21670027618E+02  0.88023164159E+01  0.24479484476E+02  0.51100000000E-03 0.  1.
         12    1    3    3    0    0 -0.29273731005E+01  0.75959384339E+00  0.29075474919E+01  0.41952745434E+01  0.00000000000E+00 0. -1.
</event>
<event>
 7    1  0.2599124E-010  0.4778727E+02  0.7816164E-02  0.1312668E+00
        -11   -1    0    0    0    0  0.00000000000E+00  0.00000000000E+00  0.45593999997E+02  0.45594000000E+02  0.51100000000E-03 0.  1.
         11   -1    0    0    0    0 -0.00000000000E+00 -0.00000000000E+00 -0.45593999997E+02  0.45594000000E+02  0.51100000000E-03 0. -1.
    9900012    2    1    2    0    0  0.34962191965E+02  0.25149580330E+02  0.53635170575E+01  0.47787267599E+02  0.19999984290E+02 0.  0.
         12    1    1    2    0    0 -0.34962191965E+02 -0.25149580330E+02 -0.53635170575E+01  0.43400732401E+02  0.00000000000E+00 0. -1.
         11    1    3    3    0    0  0.21385326526E+01  0.55355727199E+01 -0.29971633625E+01  0.66482235015E+01  0.51100000000E-03 0. -1.
        -11    1    3    3    0    0  0.88270553592E+01  0.10563210613E+02 -0.10842277950E+01  0.13808471130E+02  0.51100000000E-03 0.  1.
         12    1    3    3    0    0  0.23996603953E+02  0.90507969973E+01  0.94449082150E+01  0.27330572968E+02  0.00000000000E+00 0. -1.
</event>
<event>
 7    1  0.2599124E-010  0.4778727E+02  0.7816164E-02  0.1312668E+00
        -11   -1    0    0    0    0  0.00000000000E+00  0.00000000000E+00  0.45593999997E+02  0.45594000000E+02  0.51100000000E-03 0. -1.
         11   -1    0    0    0    0 -0.00000000000E+00 -0.00000000000E+00 -0.45593999997E+02  0.45594000000E+02  0.51100000000E-03 0.  1.
    9900012    2    1    2    0    0  0.24371512917E+02 -0.18204519774E+02 -0.30955584378E+02  0.47787269750E+02  0.19999994099E+02 0.  0.
         12    1    1    2    0    0 -0.24371512917E+02  0.18204519774E+02  0.30955584378E+02  0.43400730250E+02  0.00000000000E+00 0. -1.
         11    1    3    3    0    0  0.64092137379E+01  0.10406118718E+01 -0.57399491493E+01  0.86664820027E+01  0.51100000000E-03 0. -1.
        -11    1    3    3    0    0  0.35790378842E+01 -0.55457834565E+01 -0.15831583879E+02  0.17152383936E+02  0.51100000000E-03 0.  1.
         12    1    3    3    0    0  0.14383261295E+02 -0.13699348189E+02 -0.93840513499E+01  0.21968403811E+02  0.00000000000E+00 0. -1.
</event>
<event>
 7    1  0.2599124E-010  0.4778729E+02  0.7816164E-02  0.1312668E+00
        -11   -1    0    0    0    0  0.00000000000E+00  0.00000000000E+00  0.45593999997E+02  0.45594000000E+02  0.51100000000E-03 0. -1.
         11   -1    0    0    0    0 -0.00000000000E+00 -0.00000000000E+00 -0.45593999997E+02  0.45594000000E+02  0.51100000000E-03 0.  1.
    9900012    2    1    2    0    0  0.11336501525E+02 -0.40831719429E+02  0.93742203414E+01  0.47787290497E+02  0.20000088693E+02 0.  0.
         12    1    1    2    0    0 -0.11336501525E+02  0.40831719429E+02 -0.93742203414E+01  0.43400709503E+02  0.00000000000E+00 0. -1.
         11    1    3    3    0    0  0.82459921865E+01 -0.53832738490E+01  0.16455843280E+01  0.99841861218E+01  0.51100000000E-03 0. -1.
        -11    1    3    3    0    0  0.44916168152E+01 -0.13002857467E+02  0.66711279435E+01  0.15288978783E+02  0.51100000000E-03 0.  1.
        -12    1    3    3    0    0 -0.14011074768E+01 -0.22445588112E+02  0.10575080699E+01  0.22514125592E+02  0.00000000000E+00 0.  1.
</event>
<event>
 7    1  0.2599124E-010  0.4778727E+02  0.7816164E-02  0.1312668E+00
        -11   -1    0    0    0    0  0.00000000000E+00  0.00000000000E+00  0.45593999997E+02  0.45594000000E+02  0.51100000000E-03 0.  1.
         11   -1    0    0    0    0 -0.00000000000E+00 -0.00000000000E+00 -0.45593999997E+02  0.45594000000E+02  0.51100000000E-03 0. -1.
    9900012    2    1    2    0    0  0.17600512821E+02 -0.31714581730E+02  0.23833399940E+02  0.47787266152E+02  0.19999977692E+02 0.  0.
         12    1    1    2    0    0 -0.17600512821E+02  0.31714581730E+02 -0.23833399940E+02  0.43400733848E+02  0.00000000000E+00 0. -1.
         11    1    3    3    0    0  0.28134704201E+00 -0.53515234245E+01  0.70945719058E+01  0.88910578622E+01  0.51100000000E-03 0. -1.
        -11    1    3    3    0    0  0.10866758161E+02 -0.15153528587E+02  0.17979042690E+02  0.25902931067E+02  0.51100000000E-03 0.  1.
         12    1    3    3    0    0  0.64524076181E+01 -0.11209529719E+02 -0.12402146560E+01  0.12993277222E+02  0.00000000000E+00 0. -1.
</event>
<event>
 7    1  0.2599124E-010  0.4778727E+02  0.7816164E-02  0.1312668E+00
        -11   -1    0    0    0    0  0.00000000000E+00  0.00000000000E+00  0.45593999997E+02  0.45594000000E+02  0.51100000000E-03 0.  1.
         11   -1    0    0    0    0 -0.00000000000E+00 -0.00000000000E+00 -0.45593999997E+02  0.45594000000E+02  0.51100000000E-03 0. -1.
    9900012    2    1    2    0    0  0.86589158129E+01  0.37764499275E+02  0.19557329642E+02  0.47787269922E+02  0.19999994884E+02 0.  0.
         12    1    1    2    0    0 -0.86589158129E+01 -0.37764499275E+02 -0.19557329642E+02  0.43400730078E+02  0.00000000000E+00 0. -1.
         11    1    3    3    0    0  0.51573743015E+01  0.35733919246E+01  0.35393025871E+01  0.72037700267E+01  0.51100000000E-03 0. -1.
        -11    1    3    3    0    0  0.81301800086E+01  0.22275488840E+02  0.14285874414E+02  0.27683631229E+02  0.51100000000E-03 0.  1.
         12    1    3    3    0    0 -0.46286384971E+01  0.11915618511E+02  0.17321526408E+01  0.12899868666E+02  0.00000000000E+00 0. -1.
</event>
<event>
 7    1  0.2599124E-010  0.4778727E+02  0.7816164E-02  0.1312668E+00
        -11   -1    0    0    0    0  0.00000000000E+00  0.00000000000E+00  0.45593999997E+02  0.45594000000E+02  0.51100000000E-03 0. -1.
         11   -1    0    0    0    0 -0.00000000000E+00 -0.00000000000E+00 -0.45593999997E+02  0.45594000000E+02  0.51100000000E-03 0.  1.
    9900012    2    1    2    0    0 -0.38148014610E+02  0.20682552815E+02 -0.76426309858E+00  0.47787272959E+02  0.20000008727E+02 0.  0.
         12    1    1    2    0    0  0.38148014610E+02 -0.20682552815E+02  0.76426309858E+00  0.43400727041E+02  0.00000000000E+00 0. -1.
         11    1    3    3    0    0 -0.82696134890E+01  0.31524939351E+01  0.52534787897E+01  0.10291927172E+02  0.51100000000E-03 0. -1.
        -11    1    3    3    0    0 -0.13074624053E+02  0.87137161529E+01  0.37489364826E+01  0.16153302088E+02  0.51100000000E-03 0.  1.
        -12    1    3    3    0    0 -0.16803777068E+02  0.88163427270E+01 -0.97666783708E+01  0.21342043698E+02  0.00000000000E+00 0.  1.
</event>
<event>
 7    1  0.2599124E-010  0.4778727E+02  0.7816164E-02  0.1312668E+00
        -11   -1    0    0    0    0  0.00000000000E+00  0.00000000000E+00  0.45593999997E+02  0.45594000000E+02  0.51100000000E-03 0. -1.
         11   -1    0    0    0    0 -0.00000000000E+00 -0.00000000000E+00 -0.45593999997E+02  0.45594000000E+02  0.51100000000E-03 0.  1.
    9900012    2    1    2    0    0  0.30914065443E+02 -0.18728673296E+02 -0.24024583821E+02  0.47787271050E+02  0.20000000024E+02 0.  0.
         12    1    1    2    0    0 -0.30914065443E+02  0.18728673296E+02  0.24024583821E+02  0.43400728950E+02  0.00000000000E+00 0. -1.
         11    1    3    3    0    0  0.33923624703E+01 -0.53886074113E+01  0.13448304916E+01  0.65079783554E+01  0.51100000000E-03 0. -1.
        -11    1    3    3    0    0  0.30384637318E+01 -0.42956937837E+01 -0.59855319335E+00  0.52956126292E+01  0.51100000000E-03 0.  1.
        -12    1    3    3    0    0  0.24483239241E+02 -0.90443721006E+01 -0.24770861119E+02  0.35983680065E+02  0.00000000000E+00 0.  1.
</event>
<event>
 7    1  0.2599124E-010  0.4778727E+02  0.7816164E-02  0.1312668E+00
        -11   -1    0    0    0    0  0.00000000000E+00  0.00000000000E+00  0.45593999997E+02  0.45594000000E+02  0.51100000000E-03 0.  1.
         11   -1    0    0    0    0 -0.00000000000E+00 -0.00000000000E+00 -0.45593999997E+02  0.45594000000E+02  0.51100000000E-03 0. -1.
    9900012    2    1    2    0    0 -0.12911337123E+02 -0.40927300587E+02  0.64712209959E+01  0.47787271195E+02  0.20000000685E+02 0.  0.
         12    1    1    2    0    0  0.12911337123E+02  0.40927300587E+02 -0.64712209959E+01  0.43400728805E+02  0.00000000000E+00 0. -1.
         11    1    3    3    0    0 -0.13281797667E+01 -0.47759950373E+01 -0.67388094301E+00  0.50028297868E+01  0.51100000000E-03 0. -1.
        -11    1    3    3    0    0  0.10142043123E+01 -0.22112981133E+02 -0.11787512518E+01  0.22167588947E+02  0.51100000000E-03 0.  1.
         12    1    3    3    0    0 -0.12597361668E+02 -0.14038324417E+02  0.83238531907E+01  0.20616852461E+02  0.00000000000E+00 0. -1.
</event>
<event>
 7    1  0.2599124E-010  0.4778727E+02  0.7816164E-02  0.1312668E+00
        -11   -1    0    0    0    0  0.00000000000E+00  0.00000000000E+00  0.45593999997E+02  0.45594000000E+02  0.51100000000E-03 0.  1.
         11   -1    0    0    0    0 -0.00000000000E+00 -0.00000000000E+00 -0.45593999997E+02  0.45594000000E+02  0.51100000000E-03 0. -1.
    9900012    2    1    2    0    0 -0.19566795276E+02 -0.37214176636E+02  0.10764228589E+02  0.47787273771E+02  0.20000012430E+02 0.  0.
         12    1    1    2    0    0  0.19566795276E+02  0.37214176636E+02 -0.10764228589E+02  0.43400726229E+02  0.00000000000E+00 0. -1.
         11    1    3    3    0    0 -0.11913017142E+01 -0.22636081842E+01  0.24518316901E+01  0.35432471948E+01  0.51100000000E-03 0. -1.
        -11    1    3    3    0    0 -0.29564430037E+01 -0.88677403569E+01 -0.56069298752E+01  0.10900231060E+02  0.51100000000E-03 0.  1.
        -12    1    3    3    0    0 -0.15419050559E+02 -0.26082828095E+02  0.13919326774E+02  0.33343795516E+02  0.00000000000E+00 0.  1.
</event>
<event>
 7    1  0.2599124E-010  0.4778727E+02  0.7816164E-02  0.1312668E+00
        -11   -1    0    0    0    0  0.00000000000E+00  0.00000000000E+00  0.45593999997E+02  0.45594000000E+02  0.51100000000E-03 0.  1.
         11   -1    0    0    0    0 -0.00000000000E+00 -0.00000000000E+00 -0.45593999997E+02  0.45594000000E+02  0.51100000000E-03 0. -1.
    9900012    2    1    2    0    0  0.10578877290E+02 -0.17323447047E+02  0.38361560062E+02  0.47787265529E+02  0.19999974851E+02 0.  0.
         12    1    1    2    0    0 -0.10578877290E+02  0.17323447047E+02 -0.38361560062E+02  0.43400734471E+02  0.00000000000E+00 0. -1.
         11    1    3    3    0    0  0.35789282452E+01 -0.65105263335E+01  0.17819134379E+02  0.19305885911E+02  0.51100000000E-03 0. -1.
        -11    1    3    3    0    0  0.59436440255E+00 -0.11625441269E+02  0.18216802310E+02  0.21618419008E+02  0.51100000000E-03 0.  1.
         12    1    3    3    0    0  0.64055846420E+01  0.81252055562E+00  0.23256233726E+01  0.68629606097E+01  0.00000000000E+00 0. -1.
</event>
<event>
 7    1  0.2599124E-010  0.4778728E+02  0.7816164E-02  0.1312668E+00
        -11   -1    0    0    0    0  0.00000000000E+00  0.00000000000E+00  0.45593999997E+02  0.45594000000E+02  0.51100000000E-03 0.  1.
         11   -1    0    0    0    0 -0.00000000000E+00 -0.00000000000E+00 -0.45593999997E+02  0.45594000000E+02  0.51100000000E-03 0. -1.
    9900012    2    1    2    0    0  0.28849184803E+02  0.22625352528E+02  0.23225864514E+02  0.47787276236E+02  0.20000023668E+02 0.  0.
         12    1    1    2    0    0 -0.28849184803E+02 -0.22625352528E+02 -0.23225864514E+02  0.43400723764E+02  0.00000000000E+00 0. -1.
         11    1    3    3    0    0  0.11728530711E+02  0.29006895332E+01  0.13979737447E+02  0.18477161355E+02  0.51100000000E-03 0. -1.
        -11    1    3    3    0    0  0.45324457528E+01  0.74878392756E+01  0.77500629260E+01  0.11690777439E+02  0.51100000000E-03 0.  1.
        -12    1    3    3    0    0  0.12588208339E+02  0.12236823720E+02  0.14960641414E+01  0.17619337441E+02  0.00000000000E+00 0.  1.
</event>
<event>
 7    1  0.2599124E-010  0.4778727E+02  0.7816164E-02  0.1312668E+00
        -11   -1    0    0    0    0  0.00000000000E+00  0.00000000000E+00  0.45593999997E+02  0.45594000000E+02  0.51100000000E-03 0. -1.
         11   -1    0    0    0    0 -0.00000000000E+00 -0.00000000000E+00 -0.45593999997E+02  0.45594000000E+02  0.51100000000E-03 0.  1.
    9900012    2    1    2    0    0  0.29406840049E+02  0.29470828435E+02  0.12260973282E+02  0.47787269175E+02  0.19999991475E+02 0.  0.
         12    1    1    2    0    0 -0.29406840049E+02 -0.29470828435E+02 -0.12260973282E+02  0.43400730825E+02  0.00000000000E+00 0. -1.
         11    1    3    3    0    0  0.15625718538E+02  0.10637403027E+02  0.94223992849E+01  0.21121056591E+02  0.51100000000E-03 0. -1.
        -11    1    3    3    0    0  0.13530508054E+02  0.12987950662E+02 -0.22787369001E+01  0.18893230341E+02  0.51100000000E-03 0.  1.
         12    1    3    3    0    0  0.25061345708E+00  0.58454747463E+01  0.51173108976E+01  0.77729822421E+01  0.00000000000E+00 0. -1.
</event>
<event>
 7    1  0.2599124E-010  0.4778727E+02  0.7816164E-02  0.1312668E+00
        -11   -1    0    0    0    0  0.00000000000E+00  0.00000000000E+00  0.45593999997E+02  0.45594000000E+02  0.51100000000E-03 0.  1.
         11   -1    0    0    0    0 -0.00000000000E+00 -0.00000000000E+00 -0.45593999997E+02  0.45594000000E+02  0.51100000000E-03 0. -1.
    9900012    2    1    2    0    0 -0.32022061492E+02  0.17747868298E+02  0.23307167433E+02  0.47787270685E+02  0.19999998363E+02 0.  0.
         12    1    1    2    0    0  0.32022061492E+02 -0.17747868298E+02 -0.23307167433E+02  0.43400729315E+02  0.00000000000E+00 0. -1.
         11    1    3    3    0    0 -0.93481864573E+01  0.47448600591E+01  0.21624697755E+00  0.10485659256E+02  0.51100000000E-03 0. -1.
        -11    1    3    3    0    0 -0.14592093862E+02  0.69242818168E+01  0.55947758521E+01  0.17093168198E+02  0.51100000000E-03 0.  1.
         12    1    3    3    0    0 -0.80817811724E+01  0.60787264218E+01  0.17496144603E+02  0.20208443231E+02  0.00000000000E+00 0. -1.
</event>
<event>
 7    1  0.2599124E-010  0.4778727E+02  0.7816164E-02  0.1312668E+00
        -11   -1    0    0    0    0  0.00000000000E+00  0.00000000000E+00  0.45593999997E+02  0.45594000000E+02  0.51100000000E-03 0. -1.
         11   -1    0    0    0    0 -0.00000000000E+00 -0.00000000000E+00 -0.45593999997E+02  0.45594000000E+02  0.51100000000E-03 0.  1.
    9900012    2    1    2    0    0 -0.55718096495E+01 -0.42509697173E+02  0.67456450657E+01  0.47787272542E+02  0.20000006827E+02 0.  0.
         12    1    1    2    0    0  0.55718096495E+01  0.42509697173E+02 -0.67456450657E+01  0.43400727458E+02  0.00000000000E+00 0. -1.
         11    1    3    3    0    0 -0.21110911117E+01 -0.92701294579E+01  0.80787332677E+01  0.12476295016E+02  0.51100000000E-03 0. -1.
        -11    1    3    3    0    0 -0.63601128524E+01 -0.18997048742E+02  0.27312562733E+01  0.20218769930E+02  0.51100000000E-03 0.  1.
        -12    1    3    3    0    0  0.28993943146E+01 -0.14242518973E+02 -0.40643444754E+01  0.15092207596E+02  0.00000000000E+00 0.  1.
</event>
<event>
 7    1  0.2599124E-010  0.4778727E+02  0.7816164E-02  0.1312668E+00
        -11   -1    0    0    0    0  0.00000000000E+00  0.00000000000E+00  0.45593999997E+02  0.45594000000E+02  0.51100000000E-03 0. -1.
         11   -1    0    0    0    0 -0.00000000000E+00 -0.00000000000E+00 -0.45593999997E+02  0.45594000000E+02  0.51100000000E-03 0.  1.
    9900012    2    1    2    0    0 -0.16682855502E+02  0.33603172432E+02 -0.21820454944E+02  0.47787272827E+02  0.20000008127E+02 0.  0.
         12    1    1    2    0    0  0.16682855502E+02 -0.33603172432E+02  0.21820454944E+02  0.43400727173E+02  0.00000000000E+00 0. -1.
         11    1    3    3    0    0 -0.77220869312E+01  0.90021799670E+01 -0.15929416164E+01  0.11966926673E+02  0.51100000000E-03 0. -1.
        -11    1    3    3    0    0  0.14549274820E+01  0.88226513394E+01 -0.12434444428E+01  0.90278538412E+01  0.51100000000E-03 0.  1.
         12    1    3    3    0    0 -0.10415696053E+02  0.15778341125E+02 -0.18984068885E+02  0.26792492313E+02  0.00000000000E+00 0. -1.
</event>
<event>
 7    1  0.2599124E-010  0.4778727E+02  0.7816164E-02  0.1312668E+00
        -11   -1    0    0    0    0  0.00000000000E+00  0.00000000000E+00  0.45593999997E+02  0.45594000000E+02  0.51100000000E-03 0. -1.
         11   -1    0    0    0    0 -0.00000000000E+00 -0.00000000000E+00 -0.45593999997E+02  0.45594000000E+02  0.51100000000E-03 0.  1.
    9900012    2    1    2    0    0  0.64969055174E+01  0.27228443828E+02 -0.33166625165E+02  0.47787274667E+02  0.20000016518E+02 0.  0.
         12    1    1    2    0    0 -0.64969055174E+01 -0.27228443828E+02  0.33166625165E+02  0.43400725333E+02  0.00000000000E+00 0. -1.
         11    1    3    3    0    0 -0.42927943543E+01  0.12033987833E+02 -0.15669127586E+02  0.20217974827E+02  0.51100000000E-03 0. -1.
        -11    1    3    3    0    0 -0.53152970132E+00  0.61820489367E+01 -0.85209814943E+01  0.10540748492E+02  0.51100000000E-03 0.  1.
         12    1    3    3    0    0  0.11321229573E+02  0.90124070575E+01 -0.89765160849E+01  0.17028551349E+02  0.00000000000E+00 0. -1.
</event>
<event>
 7    1  0.2599124E-010  0.4778728E+02  0.7816164E-02  0.1312668E+00
        -11   -1    0    0    0    0  0.00000000000E+00  0.00000000000E+00  0.45593999997E+02  0.45594000000E+02  0.51100000000E-03 0.  1.
         11   -1    0    0    0    0 -0.00000000000E+00 -0.00000000000E+00 -0.45593999997E+02  0.45594000000E+02  0.51100000000E-03 0. -1.
    9900012    2    1    2    0    0  0.13820558096E+01  0.25469189987E+02  0.35114571937E+02  0.47787275592E+02  0.20000020733E+02 0.  0.
         12    1    1    2    0    0 -0.13820558096E+01 -0.25469189987E+02 -0.35114571937E+02  0.43400724408E+02  0.00000000000E+00 0. -1.
         11    1    3    3    0    0 -0.38167901208E+01  0.58240924653E+01  0.13202158541E+02  0.14925981719E+02  0.51100000000E-03 0.  1.
        -11    1    3    3    0    0  0.49756145509E+01  0.22754366872E+01  0.11167203828E+02  0.12435465165E+02  0.51100000000E-03 0. -1.
        -12    1    3    3    0    0  0.22323137957E+00  0.17369660834E+02  0.10745209568E+02  0.20425828708E+02  0.00000000000E+00 0.  1.
</event>
<event>
 7    1  0.2599124E-010  0.4778727E+02  0.7816164E-02  0.1312668E+00
        -11   -1    0    0    0    0  0.00000000000E+00  0.00000000000E+00  0.45593999997E+02  0.45594000000E+02  0.51100000000E-03 0.  1.
         11   -1    0    0    0    0 -0.00000000000E+00 -0.00000000000E+00 -0.45593999997E+02  0.45594000000E+02  0.51100000000E-03 0. -1.
    9900012    2    1    2    0    0  0.40252855771E+02 -0.29779149622E+01  0.15951893791E+02  0.47787270850E+02  0.19999999115E+02 0.  0.
         12    1    1    2    0    0 -0.40252855771E+02  0.29779149622E+01 -0.15951893791E+02  0.43400729150E+02  0.00000000000E+00 0. -1.
         11    1    3    3    0    0  0.31177539542E+01 -0.14534795868E+01  0.77555823584E+01  0.84842236302E+01  0.51100000000E-03 0. -1.
        -11    1    3    3    0    0  0.15008223183E+02  0.89929611685E+00  0.80258347618E+01  0.17043166387E+02  0.51100000000E-03 0.  1.
        -12    1    3    3    0    0  0.22126878634E+02 -0.24237314922E+01  0.17047667045E+00  0.22259880833E+02  0.00000000000E+00 0.  1.
</event>
<event>
 7    1  0.2599124E-010  0.4778727E+02  0.7816164E-02  0.1312668E+00
        -11   -1    0    0    0    0  0.00000000000E+00  0.00000000000E+00  0.45593999997E+02  0.45594000000E+02  0.51100000000E-03 0.  1.
         11   -1    0    0    0    0 -0.00000000000E+00 -0.00000000000E+00 -0.45593999997E+02  0.45594000000E+02  0.51100000000E-03 0. -1.
    9900012    2    1    2    0    0 -0.30524992053E+01 -0.13927588494E+02  0.40991805101E+02  0.47787267770E+02  0.19999985071E+02 0.  0.
         12    1    1    2    0    0  0.30524992053E+01  0.13927588494E+02 -0.40991805101E+02  0.43400732230E+02  0.00000000000E+00 0. -1.
         11    1    3    3    0    0  0.31761700578E+01 -0.27348580989E+01  0.17525601132E+02  0.18019827978E+02  0.51100000000E-03 0. -1.
        -11    1    3    3    0    0 -0.54965429384E+01 -0.87326679339E+01  0.24810037619E+02  0.26870233353E+02  0.51100000000E-03 0.  1.
        -12    1    3    3    0    0 -0.73212632480E+00 -0.24600624616E+01 -0.13438336503E+01  0.28972064390E+01  0.00000000000E+00 0.  1.
</event>
<event>
 7    1  0.2599124E-010  0.4778727E+02  0.7816164E-02  0.1312668E+00
        -11   -1    0    0    0    0  0.00000000000E+00  0.00000000000E+00  0.45593999997E+02  0.45594000000E+02  0.51100000000E-03 0.  1.
         11   -1    0    0    0    0 -0.00000000000E+00 -0.00000000000E+00 -0.45593999997E+02  0.45594000000E+02  0.51100000000E-03 0. -1.
    9900012    2    1    2    0    0 -0.27147751911E+02  0.27034483900E+02  0.20390188500E+02  0.47787267972E+02  0.19999985991E+02 0.  0.
         12    1    1    2    0    0  0.27147751911E+02 -0.27034483900E+02 -0.20390188500E+02  0.43400732028E+02  0.00000000000E+00 0. -1.
         11    1    3    3    0    0 -0.11446234583E+02  0.63717201359E+01  0.72085932363E+01  0.14952555646E+02  0.51100000000E-03 0. -1.
        -11    1    3    3    0    0 -0.14566228814E+02  0.16401716011E+02  0.16388682547E+02  0.27382115073E+02  0.51100000000E-03 0.  1.
         12    1    3    3    0    0 -0.11352885135E+01  0.42610477528E+01 -0.32070872840E+01  0.54525972534E+01  0.00000000000E+00 0. -1.
</event>
<event>
 7    1  0.2599124E-010  0.4778727E+02  0.7816164E-02  0.1312668E+00
        -11   -1    0    0    0    0  0.00000000000E+00  0.00000000000E+00  0.45593999997E+02  0.45594000000E+02  0.51100000000E-03 0. -1.
         11   -1    0    0    0    0 -0.00000000000E+00 -0.00000000000E+00 -0.45593999997E+02  0.45594000000E+02  0.51100000000E-03 0.  1.
    9900012    2    1    2    0    0  0.10757346267E+02  0.42046397008E+02  0.56659716316E-01  0.47787271776E+02  0.20000003335E+02 0.  0.
         12    1    1    2    0    0 -0.10757346267E+02 -0.42046397008E+02 -0.56659716316E-01  0.43400728224E+02  0.00000000000E+00 0. -1.
         11    1    3    3    0    0 -0.25695375440E+01  0.57898911776E+01 -0.41143663484E+01  0.75533683710E+01  0.51100000000E-03 0. -1.
        -11    1    3    3    0    0 -0.21366817532E+00  0.12632211607E+02 -0.31100138343E+00  0.12637845794E+02  0.51100000000E-03 0.  1.
        -12    1    3    3    0    0  0.13540551986E+02  0.23624294223E+02  0.44820274482E+01  0.27596057611E+02  0.00000000000E+00 0.  1.
</event>
<event>
 7    1  0.2599124E-010  0.4778727E+02  0.7816164E-02  0.1312668E+00
        -11   -1    0    0    0    0  0.00000000000E+00  0.00000000000E+00  0.45593999997E+02  0.45594000000E+02  0.51100000000E-03 0. -1.
         11   -1    0    0    0    0 -0.00000000000E+00 -0.00000000000E+00 -0.45593999997E+02  0.45594000000E+02  0.51100000000E-03 0.  1.
    9900012    2    1    2    0    0  0.21035747307E+02  0.13430658678E+02 -0.35506875600E+02  0.47787268760E+02  0.19999989584E+02 0.  0.
         12    1    1    2    0    0 -0.21035747307E+02 -0.13430658678E+02  0.35506875600E+02  0.43400731240E+02  0.00000000000E+00 0. -1.
         11    1    3    3    0    0  0.62855245006E+01  0.22516566299E+01 -0.10355015370E+02  0.12320881437E+02  0.51100000000E-03 0. -1.
        -11    1    3    3    0    0  0.15447300832E+02  0.34575173744E+01 -0.10826883965E+02  0.19177980760E+02  0.51100000000E-03 0.  1.
         12    1    3    3    0    0 -0.69707802519E+00  0.77214846735E+01 -0.14324976266E+02  0.16288406562E+02  0.00000000000E+00 0. -1.
</event>
<event>
 7    1  0.2599124E-010  0.4778727E+02  0.7816164E-02  0.1312668E+00
        -11   -1    0    0    0    0  0.00000000000E+00  0.00000000000E+00  0.45593999997E+02  0.45594000000E+02  0.51100000000E-03 0.  1.
         11   -1    0    0    0    0 -0.00000000000E+00 -0.00000000000E+00 -0.45593999997E+02  0.45594000000E+02  0.51100000000E-03 0. -1.
    9900012    2    1    2    0    0  0.38057093584E+02 -0.73146146770E+00 -0.20850556311E+02  0.47787272973E+02  0.20000008794E+02 0.  0.
         12    1    1    2    0    0 -0.38057093584E+02  0.73146146770E+00  0.20850556311E+02  0.43400727027E+02  0.00000000000E+00 0. -1.
         11    1    3    3    0    0  0.51775480830E+01  0.39856232884E+01  0.33649413951E+00  0.65425855528E+01  0.51100000000E-03 0. -1.
        -11    1    3    3    0    0  0.39075814689E+01  0.34359496241E+01 -0.41821246382E+01  0.66757104121E+01  0.51100000000E-03 0.  1.
        -12    1    3    3    0    0  0.28971964032E+02 -0.81530343803E+01 -0.17004925813E+02  0.34568977008E+02  0.00000000000E+00 0.  1.
</event>
<event>
 7    1  0.2599124E-010  0.4778724E+02  0.7816164E-02  0.1312668E+00
        -11   -1    0    0    0    0  0.00000000000E+00  0.00000000000E+00  0.45593999997E+02  0.45594000000E+02  0.51100000000E-03 0.  1.
         11   -1    0    0    0    0 -0.00000000000E+00 -0.00000000000E+00 -0.45593999997E+02  0.45594000000E+02  0.51100000000E-03 0. -1.
    9900012    2    1    2    0    0  0.11345726226E+01 -0.38477678455E+02  0.20045132597E+02  0.47787235777E+02  0.19999839201E+02 0.  0.
         12    1    1    2    0    0 -0.11345726226E+01  0.38477678455E+02 -0.20045132597E+02  0.43400764223E+02  0.00000000000E+00 0. -1.
         11    1    3    3    0    0  0.19701663195E+01 -0.14539264337E+01  0.44215324130E+00  0.24881634092E+01  0.51100000000E-03 0. -1.
        -11    1    3    3    0    0  0.38070209534E+01 -0.29685481901E+01  0.73828132817E+01  0.88210894515E+01  0.51100000000E-03 0.  1.
         12    1    3    3    0    0 -0.46426146503E+01 -0.34055203831E+02  0.12220166074E+02  0.36477982916E+02  0.00000000000E+00 0. -1.
</event>
<event>
 7    1  0.2599124E-010  0.4778727E+02  0.7816164E-02  0.1312668E+00
        -11   -1    0    0    0    0  0.00000000000E+00  0.00000000000E+00  0.45593999997E+02  0.45594000000E+02  0.51100000000E-03 0.  1.
         11   -1    0    0    0    0 -0.00000000000E+00 -0.00000000000E+00 -0.45593999997E+02  0.45594000000E+02  0.51100000000E-03 0. -1.
    9900012    2    1    2    0    0 -0.21441977232E+02 -0.73545962431E+01  0.37010472922E+02  0.47787267524E+02  0.19999983949E+02 0.  0.
         12    1    1    2    0    0  0.21441977232E+02  0.73545962431E+01 -0.37010472922E+02  0.43400732476E+02  0.00000000000E+00 0. -1.
         11    1    3    3    0    0 -0.34527741248E+01  0.17867112476E+01  0.67116656060E+00  0.39451807376E+01  0.51100000000E-03 0. -1.
        -11    1    3    3    0    0  0.87798734125E+00 -0.48528524810E+01  0.50861899136E+01  0.70845160084E+01  0.51100000000E-03 0.  1.
        -12    1    3    3    0    0 -0.18867190449E+02 -0.42884550097E+01  0.31253116448E+02  0.36757570778E+02  0.00000000000E+00 0.  1.
</event>
<event>
 7    1  0.2599124E-010  0.4778726E+02  0.7816164E-02  0.1312668E+00
        -11   -1    0    0    0    0  0.00000000000E+00  0.00000000000E+00  0.45593999997E+02  0.45594000000E+02  0.51100000000E-03 0.  1.
         11   -1    0    0    0    0 -0.00000000000E+00 -0.00000000000E+00 -0.45593999997E+02  0.45594000000E+02  0.51100000000E-03 0. -1.
    9900012    2    1    2    0    0  0.49786339546E+01  0.39959156807E+02  0.16189593935E+02  0.47787263133E+02  0.19999963930E+02 0.  0.
         12    1    1    2    0    0 -0.49786339546E+01 -0.39959156807E+02 -0.16189593935E+02  0.43400736867E+02  0.00000000000E+00 0. -1.
         11    1    3    3    0    0  0.22869598246E+01 -0.49255080680E+00  0.14310132496E+01  0.27423695444E+01  0.51100000000E-03 0. -1.
        -11    1    3    3    0    0 -0.34919555730E+01  0.28585170974E+02  0.72301886359E+01  0.29691436161E+02  0.51100000000E-03 0.  1.
         12    1    3    3    0    0  0.61836297030E+01  0.11866536640E+02  0.75283920497E+01  0.15353457428E+02  0.00000000000E+00 0. -1.
</event>
<event>
 7    1  0.2599124E-010  0.4778727E+02  0.7816164E-02  0.1312668E+00
        -11   -1    0    0    0    0  0.00000000000E+00  0.00000000000E+00  0.45593999997E+02  0.45594000000E+02  0.51100000000E-03 0.  1.
         11   -1    0    0    0    0 -0.00000000000E+00 -0.00000000000E+00 -0.45593999997E+02  0.45594000000E+02  0.51100000000E-03 0. -1.
    9900012    2    1    2    0    0  0.10524859354E+02 -0.13843189033E+02  0.39764514260E+02  0.47787272571E+02  0.20000006962E+02 0.  0.
         12    1    1    2    0    0 -0.10524859354E+02  0.13843189033E+02 -0.39764514260E+02  0.43400727429E+02  0.00000000000E+00 0. -1.
         11    1    3    3    0    0  0.40104301242E+01 -0.85292149620E+01  0.10305186716E+02  0.13965240104E+02  0.51100000000E-03 0. -1.
        -11    1    3    3    0    0  0.97403918670E+01 -0.46515450017E+01  0.12365900713E+02  0.16414250069E+02  0.51100000000E-03 0.  1.
         12    1    3    3    0    0 -0.32259626371E+01 -0.66242906979E+00  0.17093426831E+02  0.17407782399E+02  0.00000000000E+00 0. -1.
</event>
<event>
 7    1  0.2599124E-010  0.4778727E+02  0.7816164E-02  0.1312668E+00
        -11   -1    0    0    0    0  0.00000000000E+00  0.00000000000E+00  0.45593999997E+02  0.45594000000E+02  0.51100000000E-03 0.  1.
         11   -1    0    0    0    0 -0.00000000000E+00 -0.00000000000E+00 -0.45593999997E+02  0.45594000000E+02  0.51100000000E-03 0. -1.
    9900012    2    1    2    0    0  0.10991193609E+02  0.16513524923E+02  0.38602076258E+02  0.47787272659E+02  0.20000007360E+02 0.  0.
         12    1    1    2    0    0 -0.10991193609E+02 -0.16513524923E+02 -0.38602076258E+02  0.43400727341E+02  0.00000000000E+00 0. -1.
         11    1    3    3    0    0 -0.43015063834E-01  0.42288902652E+01  0.62362619793E+00  0.42748418762E+01  0.51100000000E-03 0. -1.
        -11    1    3    3    0    0  0.79034554491E+01  0.12141003164E+02  0.17151040588E+02  0.22450540292E+02  0.51100000000E-03 0.  1.
         12    1    3    3    0    0  0.31307532238E+01  0.14363149439E+00  0.20827409472E+02  0.21061890491E+02  0.00000000000E+00 0. -1.
</event>
<event>
 7    1  0.2599124E-010  0.4778727E+02  0.7816164E-02  0.1312668E+00
        -11   -1    0    0    0    0  0.00000000000E+00  0.00000000000E+00  0.45593999997E+02  0.45594000000E+02  0.51100000000E-03 0. -1.
         11   -1    0    0    0    0 -0.00000000000E+00 -0.00000000000E+00 -0.45593999997E+02  0.45594000000E+02  0.51100000000E-03 0.  1.
    9900012    2    1    2    0    0  0.85287592115E+01  0.30136270694E+02 -0.30044777542E+02  0.47787271866E+02  0.20000003745E+02 0.  0.
         12    1    1    2    0    0 -0.85287592115E+01 -0.30136270694E+02  0.30044777542E+02  0.43400728134E+02  0.00000000000E+00 0. -1.
         11    1    3    3    0    0 -0.19792865263E+00  0.31874223952E+01  0.19646447669E+01  0.37494888450E+01  0.51100000000E-03 0. -1.
        -11    1    3    3    0    0 -0.24554961354E+01  0.60790023181E+01 -0.74460300863E+01  0.99210430279E+01  0.51100000000E-03 0.  1.
        -12    1    3    3    0    0  0.11182183999E+02  0.20869845981E+02 -0.24563392223E+02  0.34116739993E+02  0.00000000000E+00 0.  1.
</event>
<event>
 7    1  0.2599124E-010  0.4778728E+02  0.7816164E-02  0.1312668E+00
        -11   -1    0    0    0    0  0.00000000000E+00  0.00000000000E+00  0.45593999997E+02  0.45594000000E+02  0.51100000000E-03 0. -1.
         11   -1    0    0    0    0 -0.00000000000E+00 -0.00000000000E+00 -0.45593999997E+02  0.45594000000E+02  0.51100000000E-03 0.  1.
    9900012    2    1    2    0    0  0.38420389701E+02 -0.18368702945E+02 -0.83718137262E+01  0.47787275838E+02  0.20000021856E+02 0.  0.
         12    1    1    2    0    0 -0.38420389701E+02  0.18368702945E+02  0.83718137262E+01  0.43400724162E+02  0.00000000000E+00 0. -1.
         11    1    3    3    0    0  0.15026766627E+02 -0.18019398884E+01 -0.33863105169E+01  0.15508636362E+02  0.51100000000E-03 0. -1.
        -11    1    3    3    0    0 -0.61680619419E+00  0.16301033363E+01 -0.54620774680E+00  0.18264802030E+01  0.51100000000E-03 0.  1.
        -12    1    3    3    0    0  0.24010429268E+02 -0.18196866393E+02 -0.44392954625E+01  0.30452159273E+02  0.00000000000E+00 0.  1.
</event>
<event>
 7    1  0.2599124E-010  0.4778727E+02  0.7816164E-02  0.1312668E+00
        -11   -1    0    0    0    0  0.00000000000E+00  0.00000000000E+00  0.45593999997E+02  0.45594000000E+02  0.51100000000E-03 0.  1.
         11   -1    0    0    0    0 -0.00000000000E+00 -0.00000000000E+00 -0.45593999997E+02  0.45594000000E+02  0.51100000000E-03 0. -1.
    9900012    2    1    2    0    0 -0.29612518641E+02 -0.17135863573E+02  0.26703631960E+02  0.47787273733E+02  0.20000012259E+02 0.  0.
         12    1    1    2    0    0  0.29612518641E+02  0.17135863573E+02 -0.26703631960E+02  0.43400726267E+02  0.00000000000E+00 0. -1.
         11    1    3    3    0    0 -0.10138704865E+02  0.14923047617E+01  0.40162019881E+01  0.11006824634E+02  0.51100000000E-03 0.  1.
        -11    1    3    3    0    0 -0.54853181367E+01 -0.57207136814E+01  0.11021052055E+01  0.80018695460E+01  0.51100000000E-03 0. -1.
        -12    1    3    3    0    0 -0.13988495639E+02 -0.12907454654E+02  0.21585324766E+02  0.28778579554E+02  0.00000000000E+00 0.  1.
</event>
<event>
 7    1  0.2599124E-010  0.4778727E+02  0.7816164E-02  0.1312668E+00
        -11   -1    0    0    0    0  0.00000000000E+00  0.00000000000E+00  0.45593999997E+02  0.45594000000E+02  0.51100000000E-03 0. -1.
         11   -1    0    0    0    0 -0.00000000000E+00 -0.00000000000E+00 -0.45593999997E+02  0.45594000000E+02  0.51100000000E-03 0.  1.
    9900012    2    1    2    0    0 -0.32663848454E+02 -0.19073715205E+02 -0.21281198758E+02  0.47787273875E+02  0.20000012908E+02 0.  0.
         12    1    1    2    0    0  0.32663848454E+02  0.19073715205E+02  0.21281198758E+02  0.43400726125E+02  0.00000000000E+00 0. -1.
         11    1    3    3    0    0 -0.16157647443E+02 -0.28986552671E+01 -0.13321082488E+02  0.21140553733E+02  0.51100000000E-03 0. -1.
        -11    1    3    3    0    0 -0.82709355659E+01 -0.12491111961E+01 -0.21489386961E+01  0.86363529164E+01  0.51100000000E-03 0.  1.
        -12    1    3    3    0    0 -0.82352654451E+01 -0.14925948742E+02 -0.58111775748E+01  0.18010367226E+02  0.00000000000E+00 0.  1.
</event>
<event>
 7    1  0.2599124E-010  0.4778727E+02  0.7816164E-02  0.1312668E+00
        -11   -1    0    0    0    0  0.00000000000E+00  0.00000000000E+00  0.45593999997E+02  0.45594000000E+02  0.51100000000E-03 0.  1.
         11   -1    0    0    0    0 -0.00000000000E+00 -0.00000000000E+00 -0.45593999997E+02  0.45594000000E+02  0.51100000000E-03 0. -1.
    9900012    2    1    2    0    0 -0.90101933001E-01  0.32750635426E+00  0.43399399458E+02  0.47787271296E+02  0.20000001146E+02 0.  0.
         12    1    1    2    0    0  0.90101933001E-01 -0.32750635426E+00 -0.43399399458E+02  0.43400728704E+02  0.00000000000E+00 0. -1.
         11    1    3    3    0    0 -0.22306158199E+01 -0.63513433376E+00  0.53044572142E+00  0.23791627692E+01  0.51100000000E-03 0. -1.
        -11    1    3    3    0    0  0.12184758942E+01 -0.67289976664E+01  0.25283611549E+02  0.26192080985E+02  0.51100000000E-03 0.  1.
        -12    1    3    3    0    0  0.92203799270E+00  0.76916383544E+01  0.17585342187E+02  0.19216027541E+02  0.00000000000E+00 0.  1.
</event>
<event>
 7    1  0.2599124E-010  0.4778727E+02  0.7816164E-02  0.1312668E+00
        -11   -1    0    0    0    0  0.00000000000E+00  0.00000000000E+00  0.45593999997E+02  0.45594000000E+02  0.51100000000E-03 0.  1.
         11   -1    0    0    0    0 -0.00000000000E+00 -0.00000000000E+00 -0.45593999997E+02  0.45594000000E+02  0.51100000000E-03 0. -1.
    9900012    2    1    2    0    0 -0.20611849910E+02  0.83329456046E+01  0.37273809256E+02  0.47787271946E+02  0.20000004112E+02 0.  0.
         12    1    1    2    0    0  0.20611849910E+02 -0.83329456046E+01 -0.37273809256E+02  0.43400728054E+02  0.00000000000E+00 0. -1.
         11    1    3    3    0    0 -0.53277270222E+01  0.68828986841E+01  0.73595289814E+01  0.11398317271E+02  0.51100000000E-03 0. -1.
        -11    1    3    3    0    0 -0.28359438898E+01  0.38651040753E+01  0.11152530751E+01  0.49219302048E+01  0.51100000000E-03 0.  1.
        -12    1    3    3    0    0 -0.12448178998E+02 -0.24150571548E+01  0.28799027199E+02  0.31467024471E+02  0.00000000000E+00 0.  1.
</event>
<event>
 7    1  0.2599124E-010  0.4778727E+02  0.7816164E-02  0.1312668E+00
        -11   -1    0    0    0    0  0.00000000000E+00  0.00000000000E+00  0.45593999997E+02  0.45594000000E+02  0.51100000000E-03 0. -1.
         11   -1    0    0    0    0 -0.00000000000E+00 -0.00000000000E+00 -0.45593999997E+02  0.45594000000E+02  0.51100000000E-03 0.  1.
    9900012    2    1    2    0    0  0.46732536486E+00 -0.34598863590E+02 -0.26197773022E+02  0.47787273439E+02  0.20000010918E+02 0.  0.
         12    1    1    2    0    0 -0.46732536486E+00  0.34598863590E+02  0.26197773022E+02  0.43400726561E+02  0.00000000000E+00 0. -1.
         11    1    3    3    0    0 -0.71628076962E+01 -0.20745566783E+02 -0.13669992473E+02  0.25856392821E+02  0.51100000000E-03 0. -1.
        -11    1    3    3    0    0  0.73071011522E+00 -0.49967705229E+01  0.78032135244E-01  0.50505190036E+01  0.51100000000E-03 0.  1.
        -12    1    3    3    0    0  0.68994229458E+01 -0.88565262840E+01 -0.12605812684E+02  0.16880361614E+02  0.00000000000E+00 0.  1.
</event>
<event>
 7    1  0.2599124E-010  0.4778727E+02  0.7816164E-02  0.1312668E+00
        -11   -1    0    0    0    0  0.00000000000E+00  0.00000000000E+00  0.45593999997E+02  0.45594000000E+02  0.51100000000E-03 0.  1.
         11   -1    0    0    0    0 -0.00000000000E+00 -0.00000000000E+00 -0.45593999997E+02  0.45594000000E+02  0.51100000000E-03 0. -1.
    9900012    2    1    2    0    0  0.77201644322E+01 -0.26701715794E+02  0.33332275265E+02  0.47787272592E+02  0.20000007058E+02 0.  0.
         12    1    1    2    0    0 -0.77201644322E+01  0.26701715794E+02 -0.33332275265E+02  0.43400727408E+02  0.00000000000E+00 0. -1.
         11    1    3    3    0    0  0.63378200666E+01 -0.69034785014E+01  0.68808142915E+01  0.11626331502E+02  0.51100000000E-03 0. -1.
        -11    1    3    3    0    0  0.64643729578E+01 -0.14896369538E+02  0.12387417559E+02  0.20423957922E+02  0.51100000000E-03 0.  1.
         12    1    3    3    0    0 -0.50820285921E+01 -0.49018677541E+01  0.14064043414E+02  0.15736983169E+02  0.00000000000E+00 0. -1.
</event>
<event>
 7    1  0.2599124E-010  0.4778727E+02  0.7816164E-02  0.1312668E+00
        -11   -1    0    0    0    0  0.00000000000E+00  0.00000000000E+00  0.45593999997E+02  0.45594000000E+02  0.51100000000E-03 0.  1.
         11   -1    0    0    0    0 -0.00000000000E+00 -0.00000000000E+00 -0.45593999997E+02  0.45594000000E+02  0.51100000000E-03 0. -1.
    9900012    2    1    2    0    0 -0.80436907409E+01 -0.26227006013E+02  0.33631329220E+02  0.47787272929E+02  0.20000008594E+02 0.  0.
         12    1    1    2    0    0  0.80436907409E+01  0.26227006013E+02 -0.33631329220E+02  0.43400727071E+02  0.00000000000E+00 0. -1.
         11    1    3    3    0    0 -0.38405787278E+01 -0.14445865150E+02  0.15159802637E+02  0.21289731825E+02  0.51100000000E-03 0.  1.
        -11    1    3    3    0    0 -0.59506181274E+01 -0.71023829030E+01  0.22645343714E+01  0.95384388230E+01  0.51100000000E-03 0. -1.
         12    1    3    3    0    0  0.17475061143E+01 -0.46787579598E+01  0.16206992211E+02  0.16959102282E+02  0.00000000000E+00 0. -1.
</event>
<event>
 7    1  0.2599124E-010  0.4778726E+02  0.7816164E-02  0.1312668E+00
        -11   -1    0    0    0    0  0.00000000000E+00  0.00000000000E+00  0.45593999997E+02  0.45594000000E+02  0.51100000000E-03 0. -1.
         11   -1    0    0    0    0 -0.00000000000E+00 -0.00000000000E+00 -0.45593999997E+02  0.45594000000E+02  0.51100000000E-03 0.  1.
    9900012    2    1    2    0    0 -0.39447769941E+02  0.60518330639E+01 -0.17054991028E+02  0.47787263189E+02  0.19999964185E+02 0.  0.
         12    1    1    2    0    0  0.39447769941E+02 -0.60518330639E+01  0.17054991028E+02  0.43400736811E+02  0.00000000000E+00 0. -1.
         11    1    3    3    0    0 -0.59966992543E-01 -0.45564609433E+00 -0.36060953627E+01  0.36352624980E+01  0.51100000000E-03 0. -1.
        -11    1    3    3    0    0 -0.17642403598E+02  0.23112741948E+01 -0.12937657865E+02  0.21999531459E+02  0.51100000000E-03 0.  1.
        -12    1    3    3    0    0 -0.21745399350E+02  0.41962049634E+01 -0.51123780040E+00  0.22152469232E+02  0.00000000000E+00 0.  1.
</event>
<event>
 7    1  0.2599124E-010  0.4778727E+02  0.7816164E-02  0.1312668E+00
        -11   -1    0    0    0    0  0.00000000000E+00  0.00000000000E+00  0.45593999997E+02  0.45594000000E+02  0.51100000000E-03 0.  1.
         11   -1    0    0    0    0 -0.00000000000E+00 -0.00000000000E+00 -0.45593999997E+02  0.45594000000E+02  0.51100000000E-03 0. -1.
    9900012    2    1    2    0    0  0.15110031557E+02 -0.25224408721E+01  0.40607234439E+02  0.47787271315E+02  0.20000001232E+02 0.  0.
         12    1    1    2    0    0 -0.15110031557E+02  0.25224408721E+01 -0.40607234439E+02  0.43400728685E+02  0.00000000000E+00 0. -1.
         11    1    3    3    0    0  0.67990973661E+00 -0.35813521441E+01  0.16368085791E+02  0.16769096373E+02  0.51100000000E-03 0. -1.
        -11    1    3    3    0    0 -0.20338598831E+01  0.17993962268E+01  0.21795648497E+01  0.34820850076E+01  0.51100000000E-03 0.  1.
        -12    1    3    3    0    0  0.16463981704E+02 -0.74048495478E+00  0.22059583798E+02  0.27536089934E+02  0.00000000000E+00 0.  1.
</event>
<event>
 7    1  0.2599124E-010  0.4778728E+02  0.7816164E-02  0.1312668E+00
        -11   -1    0    0    0    0  0.00000000000E+00  0.00000000000E+00  0.45593999997E+02  0.45594000000E+02  0.51100000000E-03 0.  1.
         11   -1    0    0    0    0 -0.00000000000E+00 -0.00000000000E+00 -0.45593999997E+02  0.45594000000E+02  0.51100000000E-03 0. -1.
    9900012    2    1    2    0    0  0.87581726858E+01 -0.40787028765E+02 -0.11972280378E+02  0.47787276484E+02  0.20000024801E+02 0.  0.
         12    1    1    2    0    0 -0.87581726858E+01  0.40787028765E+02  0.11972280378E+02  0.43400723516E+02  0.00000000000E+00 0. -1.
         11    1    3    3    0    0  0.14408027970E+01 -0.68318354533E+01 -0.40771961257E+01  0.80853829142E+01  0.51100000000E-03 0. -1.
        -11    1    3    3    0    0  0.38208627362E+01 -0.57097450785E+01 -0.88756524589E+01  0.11223964885E+02  0.51100000000E-03 0.  1.
         12    1    3    3    0    0  0.34965071526E+01 -0.28245448233E+02  0.98056820685E+00  0.28477928685E+02  0.00000000000E+00 0. -1.
</event>
<event>
 7    1  0.2599124E-010  0.4778727E+02  0.7816164E-02  0.1312668E+00
        -11   -1    0    0    0    0  0.00000000000E+00  0.00000000000E+00  0.45593999997E+02  0.45594000000E+02  0.51100000000E-03 0. -1.
         11   -1    0    0    0    0 -0.00000000000E+00 -0.00000000000E+00 -0.45593999997E+02  0.45594000000E+02  0.51100000000E-03 0.  1.
    9900012    2    1    2    0    0  0.17576610384E+01 -0.14598258497E+02 -0.40834112051E+02  0.47787271545E+02  0.20000002281E+02 0.  0.
         12    1    1    2    0    0 -0.17576610384E+01  0.14598258497E+02  0.40834112051E+02  0.43400728455E+02  0.00000000000E+00 0. -1.
         11    1    3    3    0    0  0.94201319852E+00 -0.54236450927E+01 -0.12238260869E+02  0.13419327267E+02  0.51100000000E-03 0. -1.
        -11    1    3    3    0    0 -0.92628378051E+00 -0.12729451291E+02 -0.27409410092E+02  0.30235288880E+02  0.51100000000E-03 0.  1.
         12    1    3    3    0    0  0.17419316204E+01  0.35548378868E+01 -0.11864410902E+01  0.41326553972E+01  0.00000000000E+00 0. -1.
</event>
<event>
 7    1  0.2599124E-010  0.4778727E+02  0.7816164E-02  0.1312668E+00
        -11   -1    0    0    0    0  0.00000000000E+00  0.00000000000E+00  0.45593999997E+02  0.45594000000E+02  0.51100000000E-03 0.  1.
         11   -1    0    0    0    0 -0.00000000000E+00 -0.00000000000E+00 -0.45593999997E+02  0.45594000000E+02  0.51100000000E-03 0. -1.
    9900012    2    1    2    0    0  0.22823042126E+02  0.47684369756E+01  0.36605926028E+02  0.47787273469E+02  0.20000011053E+02 0.  0.
         12    1    1    2    0    0 -0.22823042126E+02 -0.47684369756E+01 -0.36605926028E+02  0.43400726531E+02  0.00000000000E+00 0. -1.
         11    1    3    3    0    0 -0.22040465232E+01  0.56339317644E+00  0.11591779847E+01  0.25532189113E+01  0.51100000000E-03 0.  1.
        -11    1    3    3    0    0  0.63467917141E+01  0.14858007045E+01  0.19834313011E+01  0.68134696582E+01  0.51100000000E-03 0. -1.
         12    1    3    3    0    0  0.18680296935E+02  0.27192430946E+01  0.33463316742E+02  0.38420584899E+02  0.00000000000E+00 0. -1.
</event>
<event>
 7    1  0.2599124E-010  0.4778727E+02  0.7816164E-02  0.1312668E+00
        -11   -1    0    0    0    0  0.00000000000E+00  0.00000000000E+00  0.45593999997E+02  0.45594000000E+02  0.51100000000E-03 0. -1.
         11   -1    0    0    0    0 -0.00000000000E+00 -0.00000000000E+00 -0.45593999997E+02  0.45594000000E+02  0.51100000000E-03 0.  1.
    9900012    2    1    2    0    0 -0.21482258363E+02 -0.17109559212E+02  0.33606527200E+02  0.47787272918E+02  0.20000008542E+02 0.  0.
         12    1    1    2    0    0  0.21482258363E+02  0.17109559212E+02 -0.33606527200E+02  0.43400727082E+02  0.00000000000E+00 0. -1.
         11    1    3    3    0    0 -0.45466858220E+01 -0.62036518934E+01  0.45063567060E+01  0.89143087114E+01  0.51100000000E-03 0. -1.
        -11    1    3    3    0    0 -0.14251929272E+02 -0.70369471800E+01  0.90773284552E+01  0.18303934160E+02  0.51100000000E-03 0.  1.
         12    1    3    3    0    0 -0.26836432691E+01 -0.38689601382E+01  0.20022842039E+02  0.20569030046E+02  0.00000000000E+00 0. -1.
</event>
<event>
 7    1  0.2599124E-010  0.4778726E+02  0.7816164E-02  0.1312668E+00
        -11   -1    0    0    0    0  0.00000000000E+00  0.00000000000E+00  0.45593999997E+02  0.45594000000E+02  0.51100000000E-03 0.  1.
         11   -1    0    0    0    0 -0.00000000000E+00 -0.00000000000E+00 -0.45593999997E+02  0.45594000000E+02  0.51100000000E-03 0. -1.
    9900012    2    1    2    0    0  0.25901785212E+02 -0.19997969904E+01  0.34766688578E+02  0.47787259224E+02  0.19999946107E+02 0.  0.
         12    1    1    2    0    0 -0.25901785212E+02  0.19997969904E+01 -0.34766688578E+02  0.43400740776E+02  0.00000000000E+00 0. -1.
         11    1    3    3    0    0  0.66077698530E+01  0.70280828810E+00  0.17183466228E+01  0.68636198392E+01  0.51100000000E-03 0. -1.
        -11    1    3    3    0    0  0.14321191778E+02  0.46685166474E+01  0.18296145541E+02  0.23698956170E+02  0.51100000000E-03 0.  1.
         12    1    3    3    0    0  0.49728235814E+01 -0.73711219260E+01  0.14752196414E+02  0.17224683215E+02  0.00000000000E+00 0. -1.
</event>
<event>
 7    1  0.2599124E-010  0.4778729E+02  0.7816164E-02  0.1312668E+00
        -11   -1    0    0    0    0  0.00000000000E+00  0.00000000000E+00  0.45593999997E+02  0.45594000000E+02  0.51100000000E-03 0.  1.
         11   -1    0    0    0    0 -0.00000000000E+00 -0.00000000000E+00 -0.45593999997E+02  0.45594000000E+02  0.51100000000E-03 0. -1.
    9900012    2    1    2    0    0 -0.15283327915E+01  0.43253727101E+02 -0.32250338788E+01  0.47787290873E+02  0.20000090405E+02 0.  0.
         12    1    1    2    0    0  0.15283327915E+01 -0.43253727101E+02  0.32250338788E+01  0.43400709127E+02  0.00000000000E+00 0. -1.
         11    1    3    3    0    0 -0.19842837438E+01  0.12906649147E+02 -0.83856557224E+00  0.13085188828E+02  0.51100000000E-03 0. -1.
        -11    1    3    3    0    0  0.32531867505E+01  0.30286009263E+02  0.78824697841E+00  0.30470426887E+02  0.51100000000E-03 0.  1.
         12    1    3    3    0    0 -0.27972357982E+01  0.61068690016E-01 -0.31747152849E+01  0.42316751572E+01  0.00000000000E+00 0. -1.
</event>
<event>
 7    1  0.2599124E-010  0.4778727E+02  0.7816164E-02  0.1312668E+00
        -11   -1    0    0    0    0  0.00000000000E+00  0.00000000000E+00  0.45593999997E+02  0.45594000000E+02  0.51100000000E-03 0.  1.
         11   -1    0    0    0    0 -0.00000000000E+00 -0.00000000000E+00 -0.45593999997E+02  0.45594000000E+02  0.51100000000E-03 0. -1.
    9900012    2    1    2    0    0  0.11938733908E+02  0.33514844922E+02  0.24856491567E+02  0.47787269931E+02  0.19999994923E+02 0.  0.
         12    1    1    2    0    0 -0.11938733908E+02 -0.33514844922E+02 -0.24856491567E+02  0.43400730069E+02  0.00000000000E+00 0. -1.
         11    1    3    3    0    0  0.33246618228E+01  0.77508872888E+01 -0.27070091097E+01  0.88576254482E+01  0.51100000000E-03 0. -1.
        -11    1    3    3    0    0  0.12834418186E+01  0.28160698902E+01  0.52438541616E+01  0.60889637261E+01  0.51100000000E-03 0.  1.
         12    1    3    3    0    0  0.73306302667E+01  0.22947887743E+02  0.22319646515E+02  0.32840680757E+02  0.00000000000E+00 0. -1.
</event>
<event>
 7    1  0.2599124E-010  0.4778727E+02  0.7816164E-02  0.1312668E+00
        -11   -1    0    0    0    0  0.00000000000E+00  0.00000000000E+00  0.45593999997E+02  0.45594000000E+02  0.51100000000E-03 0. -1.
         11   -1    0    0    0    0 -0.00000000000E+00 -0.00000000000E+00 -0.45593999997E+02  0.45594000000E+02  0.51100000000E-03 0.  1.
    9900012    2    1    2    0    0  0.41182956717E+02 -0.13079215714E+02  0.40646522304E+01  0.47787271833E+02  0.20000003596E+02 0.  0.
         12    1    1    2    0    0 -0.41182956717E+02  0.13079215714E+02 -0.40646522304E+01  0.43400728167E+02  0.00000000000E+00 0. -1.
         11    1    3    3    0    0  0.30005659789E+01 -0.49202762794E+01  0.13424562818E+01  0.59173223665E+01  0.51100000000E-03 0. -1.
        -11    1    3    3    0    0  0.21319020788E+01 -0.18234380841E+01 -0.37663768510E+01  0.46963313091E+01  0.51100000000E-03 0.  1.
        -12    1    3    3    0    0  0.36050488659E+02 -0.63355013502E+01  0.64885727996E+01  0.37173618158E+02  0.00000000000E+00 0.  1.
</event>
<event>
 7    1  0.2599124E-010  0.4778727E+02  0.7816164E-02  0.1312668E+00
        -11   -1    0    0    0    0  0.00000000000E+00  0.00000000000E+00  0.45593999997E+02  0.45594000000E+02  0.51100000000E-03 0.  1.
         11   -1    0    0    0    0 -0.00000000000E+00 -0.00000000000E+00 -0.45593999997E+02  0.45594000000E+02  0.51100000000E-03 0. -1.
    9900012    2    1    2    0    0 -0.40955158679E+02  0.83557292718E+01  0.11682458253E+02  0.47787273452E+02  0.20000010975E+02 0.  0.
         12    1    1    2    0    0  0.40955158679E+02 -0.83557292718E+01 -0.11682458253E+02  0.43400726548E+02  0.00000000000E+00 0. -1.
         11    1    3    3    0    0 -0.13411365395E+02 -0.25527194574E+01  0.41025539755E+01  0.14255246324E+02  0.51100000000E-03 0. -1.
        -11    1    3    3    0    0 -0.19091975013E+02  0.67616920139E+01  0.11548938641E+02  0.23315273380E+02  0.51100000000E-03 0.  1.
         12    1    3    3    0    0 -0.84518182715E+01  0.41467567153E+01 -0.39690343640E+01  0.10216753747E+02  0.00000000000E+00 0. -1.
</event>
<event>
 7    1  0.2599124E-010  0.4778727E+02  0.7816164E-02  0.1312668E+00
        -11   -1    0    0    0    0  0.00000000000E+00  0.00000000000E+00  0.45593999997E+02  0.45594000000E+02  0.51100000000E-03 0.  1.
         11   -1    0    0    0    0 -0.00000000000E+00 -0.00000000000E+00 -0.45593999997E+02  0.45594000000E+02  0.51100000000E-03 0. -1.
    9900012    2    1    2    0    0 -0.27356909499E+02 -0.26933849525E+02  0.20243275954E+02  0.47787274558E+02  0.20000016018E+02 0.  0.
         12    1    1    2    0    0  0.27356909499E+02  0.26933849525E+02 -0.20243275954E+02  0.43400725442E+02  0.00000000000E+00 0. -1.
         11    1    3    3    0    0 -0.70722267885E+01 -0.14196539644E+02  0.46828324157E+01  0.16537443857E+02  0.51100000000E-03 0. -1.
        -11    1    3    3    0    0 -0.20556782536E+02 -0.12416778841E+02  0.17211253677E+02  0.29546318864E+02  0.51100000000E-03 0.  1.
         12    1    3    3    0    0  0.27209982468E+00 -0.32053103933E+00 -0.16508101393E+01  0.17035118367E+01  0.00000000000E+00 0. -1.
</event>
<event>
 7    1  0.2599124E-010  0.4778727E+02  0.7816164E-02  0.1312668E+00
        -11   -1    0    0    0    0  0.00000000000E+00  0.00000000000E+00  0.45593999997E+02  0.45594000000E+02  0.51100000000E-03 0.  1.
         11   -1    0    0    0    0 -0.00000000000E+00 -0.00000000000E+00 -0.45593999997E+02  0.45594000000E+02  0.51100000000E-03 0. -1.
    9900012    2    1    2    0    0  0.13825267809E+02 -0.18581766843E+02  0.36704264863E+02  0.47787272493E+02  0.20000006606E+02 0.  0.
         12    1    1    2    0    0 -0.13825267809E+02  0.18581766843E+02 -0.36704264863E+02  0.43400727507E+02  0.00000000000E+00 0. -1.
         11    1    3    3    0    0  0.22231520937E+01 -0.62547610625E+01  0.21927959964E+02  0.22910693347E+02  0.51100000000E-03 0. -1.
        -11    1    3    3    0    0  0.28116708790E+01  0.17742273349E+01  0.17148463747E+01  0.37408654236E+01  0.51100000000E-03 0.  1.
        -12    1    3    3    0    0  0.87904448365E+01 -0.14101233115E+02  0.13061458524E+02  0.21135713723E+02  0.00000000000E+00 0.  1.
</event>
<event>
 7    1  0.2599124E-010  0.4778727E+02  0.7816164E-02  0.1312668E+00
        -11   -1    0    0    0    0  0.00000000000E+00  0.00000000000E+00  0.45593999997E+02  0.45594000000E+02  0.51100000000E-03 0.  1.
         11   -1    0    0    0    0 -0.00000000000E+00 -0.00000000000E+00 -0.45593999997E+02  0.45594000000E+02  0.51100000000E-03 0. -1.
    9900012    2    1    2    0    0 -0.26076433049E+02 -0.57573261879E+01  0.34212514018E+02  0.47787270964E+02  0.19999999635E+02 0.  0.
         12    1    1    2    0    0  0.26076433049E+02  0.57573261879E+01 -0.34212514018E+02  0.43400729036E+02  0.00000000000E+00 0. -1.
         11    1    3    3    0    0  0.23192218994E+01  0.13743132684E+01  0.83064163470E+00  0.28209028634E+01  0.51100000000E-03 0. -1.
        -11    1    3    3    0    0 -0.31384877249E+01 -0.16213709486E+01  0.12975558870E+01  0.37633230653E+01  0.51100000000E-03 0.  1.
        -12    1    3    3    0    0 -0.25257167224E+02 -0.55102685077E+01  0.32084316496E+02  0.41203045036E+02  0.00000000000E+00 0.  1.
</event>
<event>
 7    1  0.2599124E-010  0.4778729E+02  0.7816164E-02  0.1312668E+00
        -11   -1    0    0    0    0  0.00000000000E+00  0.00000000000E+00  0.45593999997E+02  0.45594000000E+02  0.51100000000E-03 0.  1.
         11   -1    0    0    0    0 -0.00000000000E+00 -0.00000000000E+00 -0.45593999997E+02  0.45594000000E+02  0.51100000000E-03 0. -1.
    9900012    2    1    2    0    0 -0.20950912039E+02 -0.32517969208E+01  0.37869606550E+02  0.47787285735E+02  0.20000066981E+02 0.  0.
         12    1    1    2    0    0  0.20950912039E+02  0.32517969208E+01 -0.37869606550E+02  0.43400714265E+02  0.00000000000E+00 0. -1.
         11    1    3    3    0    0  0.12405935159E+01  0.27290415550E+01  0.63811165663E+01  0.70502048888E+01  0.51100000000E-03 0. -1.
        -11    1    3    3    0    0 -0.99304187836E+01  0.13779494135E+01  0.65062745325E+01  0.11951718301E+02  0.51100000000E-03 0.  1.
        -12    1    3    3    0    0 -0.12261086771E+02 -0.73587878893E+01  0.24982215451E+02  0.28785362545E+02  0.00000000000E+00 0.  1.
</event>
<event>
 7    1  0.2599124E-010  0.4778729E+02  0.7816164E-02  0.1312668E+00
        -11   -1    0    0    0    0  0.00000000000E+00  0.00000000000E+00  0.45593999997E+02  0.45594000000E+02  0.51100000000E-03 0.  1.
         11   -1    0    0    0    0 -0.00000000000E+00 -0.00000000000E+00 -0.45593999997E+02  0.45594000000E+02  0.51100000000E-03 0. -1.
    9900012    2    1    2    0    0  0.24147735720E+02 -0.35534566898E+02 -0.61484214636E+01  0.47787289504E+02  0.20000084165E+02 0.  0.
         12    1    1    2    0    0 -0.24147735720E+02  0.35534566898E+02  0.61484214636E+01  0.43400710496E+02  0.00000000000E+00 0. -1.
         11    1    3    3    0    0  0.18401099045E+02 -0.29692613514E+02 -0.83978812537E+01  0.35927373313E+02  0.51100000000E-03 0. -1.
        -11    1    3    3    0    0  0.28900673935E+01 -0.57963921359E+01  0.47749271287E+01  0.80467745512E+01  0.51100000000E-03 0.  1.
        -12    1    3    3    0    0  0.28565692815E+01 -0.45561248090E-01 -0.25254673387E+01  0.38131416399E+01  0.00000000000E+00 0.  1.
</event>
<event>
 7    1  0.2599124E-010  0.4778727E+02  0.7816164E-02  0.1312668E+00
        -11   -1    0    0    0    0  0.00000000000E+00  0.00000000000E+00  0.45593999997E+02  0.45594000000E+02  0.51100000000E-03 0. -1.
         11   -1    0    0    0    0 -0.00000000000E+00 -0.00000000000E+00 -0.45593999997E+02  0.45594000000E+02  0.51100000000E-03 0.  1.
    9900012    2    1    2    0    0  0.22140938887E+02 -0.31115100550E+02 -0.20621661696E+02  0.47787267424E+02  0.19999983493E+02 0.  0.
         12    1    1    2    0    0 -0.22140938887E+02  0.31115100550E+02  0.20621661696E+02  0.43400732576E+02  0.00000000000E+00 0. -1.
         11    1    3    3    0    0  0.34306030677E+01 -0.11346770698E+02  0.51005248504E+00  0.11865007226E+02  0.51100000000E-03 0. -1.
        -11    1    3    3    0    0 -0.41424542941E+00 -0.37735180473E+01 -0.47916542314E+01  0.61131815173E+01  0.51100000000E-03 0.  1.
        -12    1    3    3    0    0  0.19124581249E+02 -0.15994811805E+02 -0.16340059949E+02  0.29809078680E+02  0.00000000000E+00 0.  1.
</event>
<event>
 7    1  0.2599124E-010  0.4778725E+02  0.7816164E-02  0.1312668E+00
        -11   -1    0    0    0    0  0.00000000000E+00  0.00000000000E+00  0.45593999997E+02  0.45594000000E+02  0.51100000000E-03 0.  1.
         11   -1    0    0    0    0 -0.00000000000E+00 -0.00000000000E+00 -0.45593999997E+02  0.45594000000E+02  0.51100000000E-03 0. -1.
    9900012    2    1    2    0    0 -0.19387014144E+02  0.16352909354E+01  0.38795552962E+02  0.47787246280E+02  0.19999887089E+02 0.  0.
         12    1    1    2    0    0  0.19387014144E+02 -0.16352909354E+01 -0.38795552962E+02  0.43400753720E+02  0.00000000000E+00 0. -1.
         11    1    3    3    0    0  0.15967123234E+01  0.55201650652E+01  0.44384797672E+01  0.72609789626E+01  0.51100000000E-03 0. -1.
        -11    1    3    3    0    0 -0.28609998506E+01  0.15636223571E+00  0.56999188910E+01  0.63795646340E+01  0.51100000000E-03 0.  1.
         12    1    3    3    0    0 -0.18122726617E+02 -0.40412363655E+01  0.28657154303E+02  0.34146702683E+02  0.00000000000E+00 0. -1.
</event>
<event>
 7    1  0.2599124E-010  0.4778727E+02  0.7816164E-02  0.1312668E+00
        -11   -1    0    0    0    0  0.00000000000E+00  0.00000000000E+00  0.45593999997E+02  0.45594000000E+02  0.51100000000E-03 0.  1.
         11   -1    0    0    0    0 -0.00000000000E+00 -0.00000000000E+00 -0.45593999997E+02  0.45594000000E+02  0.51100000000E-03 0. -1.
    9900012    2    1    2    0    0  0.24901178906E+02  0.13013018611E+02  0.33078933122E+02  0.47787272117E+02  0.20000004892E+02 0.  0.
         12    1    1    2    0    0 -0.24901178906E+02 -0.13013018611E+02 -0.33078933122E+02  0.43400727883E+02  0.00000000000E+00 0. -1.
         11    1    3    3    0    0  0.54134459990E+01 -0.12662816852E+01  0.53037197256E+01  0.76836391169E+01  0.51100000000E-03 0.  1.
        -11    1    3    3    0    0 -0.98831382633E+00  0.56111130761E+01  0.19427867406E+01  0.60196158310E+01  0.51100000000E-03 0. -1.
         12    1    3    3    0    0  0.20476046733E+02  0.86681872205E+01  0.25832426656E+02  0.34084017169E+02  0.00000000000E+00 0. -1.
</event>
<event>
 7    1  0.2599124E-010  0.4778728E+02  0.7816164E-02  0.1312668E+00
        -11   -1    0    0    0    0  0.00000000000E+00  0.00000000000E+00  0.45593999997E+02  0.45594000000E+02  0.51100000000E-03 0. -1.
         11   -1    0    0    0    0 -0.00000000000E+00 -0.00000000000E+00 -0.45593999997E+02  0.45594000000E+02  0.51100000000E-03 0.  1.
    9900012    2    1    2    0    0  0.34102651410E+02 -0.24395835849E+02 -0.11201553075E+02  0.47787280752E+02  0.20000044260E+02 0.  0.
         12    1    1    2    0    0 -0.34102651410E+02  0.24395835849E+02  0.11201553075E+02  0.43400719248E+02  0.00000000000E+00 0. -1.
         11    1    3    3    0    0  0.17538972234E+00  0.44546397204E+00 -0.12797171372E+01  0.13663366779E+01  0.51100000000E-03 0. -1.
        -11    1    3    3    0    0  0.26600176954E+02 -0.13963752528E+02 -0.13334745477E+02  0.32869001138E+02  0.51100000000E-03 0.  1.
         12    1    3    3    0    0  0.73270847340E+01 -0.10877547293E+02  0.34129095391E+01  0.13551942936E+02  0.00000000000E+00 0. -1.
</event>
<event>
 7    1  0.2599124E-010  0.4778726E+02  0.7816164E-02  0.1312668E+00
        -11   -1    0    0    0    0  0.00000000000E+00  0.00000000000E+00  0.45593999997E+02  0.45594000000E+02  0.51100000000E-03 0.  1.
         11   -1    0    0    0    0 -0.00000000000E+00 -0.00000000000E+00 -0.45593999997E+02  0.45594000000E+02  0.51100000000E-03 0. -1.
    9900012    2    1    2    0    0 -0.93426695039E+01 -0.39330716350E+02  0.15793468553E+02  0.47787258405E+02  0.19999942373E+02 0.  0.
         12    1    1    2    0    0  0.93426695039E+01  0.39330716350E+02 -0.15793468553E+02  0.43400741595E+02  0.00000000000E+00 0. -1.
         11    1    3    3    0    0 -0.55925061716E+01 -0.80364400423E+01  0.39771844878E+01  0.10567804434E+02  0.51100000000E-03 0. -1.
        -11    1    3    3    0    0 -0.80688774399E+01 -0.14648278714E+02  0.69183870737E+00  0.16737905887E+02  0.51100000000E-03 0.  1.
        -12    1    3    3    0    0  0.43187141077E+01 -0.16645997594E+02  0.11124445358E+02  0.20481548085E+02  0.00000000000E+00 0.  1.
</event>
<event>
 7    1  0.2599124E-010  0.4778731E+02  0.7816164E-02  0.1312668E+00
        -11   -1    0    0    0    0  0.00000000000E+00  0.00000000000E+00  0.45593999997E+02  0.45594000000E+02  0.51100000000E-03 0. -1.
         11   -1    0    0    0    0 -0.00000000000E+00 -0.00000000000E+00 -0.45593999997E+02  0.45594000000E+02  0.51100000000E-03 0.  1.
    9900012    2    1    2    0    0 -0.30920956454E+02 -0.30197170399E+02 -0.39554438734E+01  0.47787306638E+02  0.20000162283E+02 0.  0.
         12    1    1    2    0    0  0.30920956454E+02  0.30197170399E+02  0.39554438734E+01  0.43400693362E+02  0.00000000000E+00 0. -1.
         11    1    3    3    0    0 -0.19229580968E+02 -0.13973532835E+02  0.32616884252E+01  0.23993228540E+02  0.51100000000E-03 0. -1.
        -11    1    3    3    0    0 -0.79159159008E+01 -0.14788266084E+02 -0.15641826992E+01  0.16846400390E+02  0.51100000000E-03 0.  1.
         12    1    3    3    0    0 -0.37754595845E+01 -0.14353714795E+01 -0.56529495994E+01  0.69476777078E+01  0.00000000000E+00 0. -1.
</event>
<event>
 7    1  0.2599124E-010  0.4778727E+02  0.7816164E-02  0.1312668E+00
        -11   -1    0    0    0    0  0.00000000000E+00  0.00000000000E+00  0.45593999997E+02  0.45594000000E+02  0.51100000000E-03 0.  1.
         11   -1    0    0    0    0 -0.00000000000E+00 -0.00000000000E+00 -0.45593999997E+02  0.45594000000E+02  0.51100000000E-03 0. -1.
    9900012    2    1    2    0    0  0.19100066464E+02 -0.32894851004E+01  0.38832846226E+02  0.47787271928E+02  0.20000004028E+02 0.  0.
         12    1    1    2    0    0 -0.19100066464E+02  0.32894851004E+01 -0.38832846226E+02  0.43400728072E+02  0.00000000000E+00 0. -1.
         11    1    3    3    0    0 -0.29583987292E+01  0.25076905967E+01  0.97365225974E+01  0.10480482227E+02  0.51100000000E-03 0.  1.
        -11    1    3    3    0    0  0.27079096763E+01  0.41928301989E+00  0.18148015866E+01  0.32866515066E+01  0.51100000000E-03 0. -1.
         12    1    3    3    0    0  0.19350555516E+02 -0.62164587169E+01  0.27281522042E+02  0.34020138194E+02  0.00000000000E+00 0. -1.
</event>
<event>
 7    1  0.2599124E-010  0.4778728E+02  0.7816164E-02  0.1312668E+00
        -11   -1    0    0    0    0  0.00000000000E+00  0.00000000000E+00  0.45593999997E+02  0.45594000000E+02  0.51100000000E-03 0.  1.
         11   -1    0    0    0    0 -0.00000000000E+00 -0.00000000000E+00 -0.45593999997E+02  0.45594000000E+02  0.51100000000E-03 0. -1.
    9900012    2    1    2    0    0 -0.34934384847E+02 -0.41822641872E+01  0.25411020872E+02  0.47787279267E+02  0.20000037489E+02 0.  0.
         12    1    1    2    0    0  0.34934384847E+02  0.41822641872E+01 -0.25411020872E+02  0.43400720733E+02  0.00000000000E+00 0. -1.
         11    1    3    3    0    0 -0.10983721637E+02 -0.35188998040E+01  0.29063242999E+01  0.11894180006E+02  0.51100000000E-03 0. -1.
        -11    1    3    3    0    0 -0.23272504143E+02  0.21621928311E+01  0.14814589348E+02  0.27672307181E+02  0.51100000000E-03 0.  1.
         12    1    3    3    0    0 -0.67815906800E+00 -0.28255572142E+01  0.76901072241E+01  0.82207920793E+01  0.00000000000E+00 0. -1.
</event>
<event>
 7    1  0.2599124E-010  0.4778727E+02  0.7816164E-02  0.1312668E+00
        -11   -1    0    0    0    0  0.00000000000E+00  0.00000000000E+00  0.45593999997E+02  0.45594000000E+02  0.51100000000E-03 0. -1.
         11   -1    0    0    0    0 -0.00000000000E+00 -0.00000000000E+00 -0.45593999997E+02  0.45594000000E+02  0.51100000000E-03 0.  1.
    9900012    2    1    2    0    0 -0.27778165627E+02  0.70254170427E+01 -0.32598165545E+02  0.47787269970E+02  0.19999995101E+02 0.  0.
         12    1    1    2    0    0  0.27778165627E+02 -0.70254170427E+01  0.32598165545E+02  0.43400730030E+02  0.00000000000E+00 0. -1.
         11    1    3    3    0    0 -0.13087018482E+01  0.32579149501E+00  0.43200760615E+00  0.14161466939E+01  0.51100000000E-03 0. -1.
        -11    1    3    3    0    0 -0.25527920882E+02  0.15632782828E+01 -0.32139286212E+02  0.41073742245E+02  0.51100000000E-03 0.  1.
        -12    1    3    3    0    0 -0.94154289707E+00  0.51363472648E+01 -0.89088693975E+00  0.52973810313E+01  0.00000000000E+00 0.  1.
</event>
<event>
 7    1  0.2599124E-010  0.4778727E+02  0.7816164E-02  0.1312668E+00
        -11   -1    0    0    0    0  0.00000000000E+00  0.00000000000E+00  0.45593999997E+02  0.45594000000E+02  0.51100000000E-03 0. -1.
         11   -1    0    0    0    0 -0.00000000000E+00 -0.00000000000E+00 -0.45593999997E+02  0.45594000000E+02  0.51100000000E-03 0.  1.
    9900012    2    1    2    0    0 -0.38865439619E+02  0.18303071705E+02 -0.61723960640E+01  0.47787270700E+02  0.19999998428E+02 0.  0.
         12    1    1    2    0    0  0.38865439619E+02 -0.18303071705E+02  0.61723960640E+01  0.43400729300E+02  0.00000000000E+00 0. -1.
         11    1    3    3    0    0 -0.14825815253E+02  0.24063205722E+01  0.87518714836E+00  0.15045302570E+02  0.51100000000E-03 0.  1.
        -11    1    3    3    0    0 -0.25079809832E+02  0.11848089842E+02 -0.67745664942E+01  0.28552913084E+02  0.51100000000E-03 0. -1.
         12    1    3    3    0    0  0.10401854661E+01  0.40486612907E+01 -0.27301671822E+00  0.41890550461E+01  0.00000000000E+00 0. -1.
</event>
<event>
 7    1  0.2599124E-010  0.4778727E+02  0.7816164E-02  0.1312668E+00
        -11   -1    0    0    0    0  0.00000000000E+00  0.00000000000E+00  0.45593999997E+02  0.45594000000E+02  0.51100000000E-03 0. -1.
         11   -1    0    0    0    0 -0.00000000000E+00 -0.00000000000E+00 -0.45593999997E+02  0.45594000000E+02  0.51100000000E-03 0.  1.
    9900012    2    1    2    0    0  0.29701090892E+01 -0.35777003844E+02 -0.24388685831E+02  0.47787267880E+02  0.19999985570E+02 0.  0.
         12    1    1    2    0    0 -0.29701090892E+01  0.35777003844E+02  0.24388685831E+02  0.43400732120E+02  0.00000000000E+00 0. -1.
         11    1    3    3    0    0  0.15414344369E+00 -0.28354132430E+00 -0.34240603805E+01  0.34392361993E+01  0.51100000000E-03 0. -1.
        -11    1    3    3    0    0  0.92737581017E+01 -0.17825913591E+02 -0.87292515357E+01  0.21908117613E+02  0.51100000000E-03 0.  1.
        -12    1    3    3    0    0 -0.64577924562E+01 -0.17667548928E+02 -0.12235373915E+02  0.22439914068E+02  0.00000000000E+00 0.  1.
</event>
<event>
 7    1  0.2599124E-010  0.4778730E+02  0.7816164E-02  0.1312668E+00
        -11   -1    0    0    0    0  0.00000000000E+00  0.00000000000E+00  0.45593999997E+02  0.45594000000E+02  0.51100000000E-03 0.  1.
         11   -1    0    0    0    0 -0.00000000000E+00 -0.00000000000E+00 -0.45593999997E+02  0.45594000000E+02  0.51100000000E-03 0. -1.
    9900012    2    1    2    0    0 -0.35508999157E+02  0.24934925074E+02 -0.99079342159E+00  0.47787295154E+02  0.20000109924E+02 0.  0.
         12    1    1    2    0    0  0.35508999157E+02 -0.24934925074E+02  0.99079342159E+00  0.43400704846E+02  0.00000000000E+00 0. -1.
         11    1    3    3    0    0 -0.99742708912E+01  0.11131868145E+02 -0.35265204203E+01  0.15357112839E+02  0.51100000000E-03 0. -1.
        -11    1    3    3    0    0 -0.26873026462E+02  0.13778676451E+02  0.76337264021E+00  0.30209174336E+02  0.51100000000E-03 0.  1.
        -12    1    3    3    0    0  0.13382981969E+01  0.24380477223E-01  0.17723543585E+01  0.22210079792E+01  0.00000000000E+00 0.  1.
</event>
<event>
 7    1  0.2599124E-010  0.4778727E+02  0.7816164E-02  0.1312668E+00
        -11   -1    0    0    0    0  0.00000000000E+00  0.00000000000E+00  0.45593999997E+02  0.45594000000E+02  0.51100000000E-03 0.  1.
         11   -1    0    0    0    0 -0.00000000000E+00 -0.00000000000E+00 -0.45593999997E+02  0.45594000000E+02  0.51100000000E-03 0. -1.
    9900012    2    1    2    0    0 -0.29141531062E+02 -0.21003869170E+01  0.32093344919E+02  0.47787271366E+02  0.20000001466E+02 0.  0.
         12    1    1    2    0    0  0.29141531062E+02  0.21003869170E+01 -0.32093344919E+02  0.43400728634E+02  0.00000000000E+00 0. -1.
         11    1    3    3    0    0 -0.34786605170E+01  0.49233063542E+01  0.11338481106E+02  0.12841385381E+02  0.51100000000E-03 0. -1.
        -11    1    3    3    0    0 -0.11815583949E+02  0.14087597906E+01  0.90343845537E+01  0.14940305644E+02  0.51100000000E-03 0.  1.
        -12    1    3    3    0    0 -0.13847286596E+02 -0.84324530618E+01  0.11720479260E+02  0.20005580341E+02  0.00000000000E+00 0.  1.
</event>
<event>
 7    1  0.2599124E-010  0.4778726E+02  0.7816164E-02  0.1312668E+00
        -11   -1    0    0    0    0  0.00000000000E+00  0.00000000000E+00  0.45593999997E+02  0.45594000000E+02  0.51100000000E-03 0. -1.
         11   -1    0    0    0    0 -0.00000000000E+00 -0.00000000000E+00 -0.45593999997E+02  0.45594000000E+02  0.51100000000E-03 0.  1.
    9900012    2    1    2    0    0 -0.21946476136E+02 -0.36756021235E+02 -0.71393911222E+01  0.47787264782E+02  0.19999971448E+02 0.  0.
         12    1    1    2    0    0  0.21946476136E+02  0.36756021235E+02  0.71393911222E+01  0.43400735218E+02  0.00000000000E+00 0. -1.
         11    1    3    3    0    0  0.91104324467E-01 -0.17919312041E+02 -0.91081540988E+00  0.17942676194E+02  0.51100000000E-03 0. -1.
        -11    1    3    3    0    0 -0.51348863756E+01 -0.29210293765E+01 -0.48094470707E+00  0.59271223019E+01  0.51100000000E-03 0.  1.
        -12    1    3    3    0    0 -0.16902694085E+02 -0.15915679818E+02 -0.57476310053E+01  0.23917466286E+02  0.00000000000E+00 0.  1.
</event>
<event>
 7    1  0.2599124E-010  0.4778727E+02  0.7816164E-02  0.1312668E+00
        -11   -1    0    0    0    0  0.00000000000E+00  0.00000000000E+00  0.45593999997E+02  0.45594000000E+02  0.51100000000E-03 0. -1.
         11   -1    0    0    0    0 -0.00000000000E+00 -0.00000000000E+00 -0.45593999997E+02  0.45594000000E+02  0.51100000000E-03 0.  1.
    9900012    2    1    2    0    0  0.16946946261E+01 -0.41916899967E+02 -0.11123158891E+02  0.47787272398E+02  0.20000006169E+02 0.  0.
         12    1    1    2    0    0 -0.16946946261E+01  0.41916899967E+02  0.11123158891E+02  0.43400727602E+02  0.00000000000E+00 0. -1.
         11    1    3    3    0    0 -0.81468063965E-01 -0.10632891048E+02 -0.93104304450E+01  0.14133263049E+02  0.51100000000E-03 0. -1.
        -11    1    3    3    0    0 -0.18999254128E+01 -0.16345051792E+02 -0.63132629075E+01  0.17624633995E+02  0.51100000000E-03 0.  1.
         12    1    3    3    0    0  0.36760881028E+01 -0.14938957127E+02  0.45005344618E+01  0.16029375353E+02  0.00000000000E+00 0. -1.
</event>
<event>
 7    1  0.2599124E-010  0.4778728E+02  0.7816164E-02  0.1312668E+00
        -11   -1    0    0    0    0  0.00000000000E+00  0.00000000000E+00  0.45593999997E+02  0.45594000000E+02  0.51100000000E-03 0. -1.
         11   -1    0    0    0    0 -0.00000000000E+00 -0.00000000000E+00 -0.45593999997E+02  0.45594000000E+02  0.51100000000E-03 0.  1.
    9900012    2    1    2    0    0  0.16629001073E+02 -0.12198021928E+02 -0.38187792640E+02  0.47787275094E+02  0.20000018465E+02 0.  0.
         12    1    1    2    0    0 -0.16629001073E+02  0.12198021928E+02  0.38187792640E+02  0.43400724906E+02  0.00000000000E+00 0. -1.
         11    1    3    3    0    0  0.69333369657E+00  0.88444775812E-01  0.79514140579E+00  0.10586709638E+01  0.51100000000E-03 0. -1.
        -11    1    3    3    0    0 -0.12241362797E+01 -0.59475348123E+01 -0.40596110971E+01  0.73042537261E+01  0.51100000000E-03 0.  1.
        -12    1    3    3    0    0  0.17159803656E+02 -0.63389318911E+01 -0.34923322949E+02  0.39424350404E+02  0.00000000000E+00 0.  1.
</event>
<event>
 7    1  0.2599124E-010  0.4778727E+02  0.7816164E-02  0.1312668E+00
        -11   -1    0    0    0    0  0.00000000000E+00  0.00000000000E+00  0.45593999997E+02  0.45594000000E+02  0.51100000000E-03 0.  1.
         11   -1    0    0    0    0 -0.00000000000E+00 -0.00000000000E+00 -0.45593999997E+02  0.45594000000E+02  0.51100000000E-03 0. -1.
    9900012    2    1    2    0    0  0.92370552064E+01 -0.25546331169E+02  0.33847968011E+02  0.47787272315E+02  0.20000005794E+02 0.  0.
         12    1    1    2    0    0 -0.92370552064E+01  0.25546331169E+02 -0.33847968011E+02  0.43400727685E+02  0.00000000000E+00 0. -1.
         11    1    3    3    0    0  0.73814530209E+00  0.27462386976E+01  0.31324659957E+01  0.42307243997E+01  0.51100000000E-03 0. -1.
        -11    1    3    3    0    0  0.30655967566E+01 -0.35820983700E+01  0.15882133480E+01  0.49751114667E+01  0.51100000000E-03 0.  1.
        -12    1    3    3    0    0  0.54333131477E+01 -0.24710471496E+02  0.29127288668E+02  0.38581436449E+02  0.00000000000E+00 0.  1.
</event>
<event>
 7    1  0.2599124E-010  0.4778727E+02  0.7816164E-02  0.1312668E+00
        -11   -1    0    0    0    0  0.00000000000E+00  0.00000000000E+00  0.45593999997E+02  0.45594000000E+02  0.51100000000E-03 0.  1.
         11   -1    0    0    0    0 -0.00000000000E+00 -0.00000000000E+00 -0.45593999997E+02  0.45594000000E+02  0.51100000000E-03 0. -1.
    9900012    2    1    2    0    0 -0.34901702567E+02 -0.17964874142E+02  0.18513709364E+02  0.47787274437E+02  0.20000015467E+02 0.  0.
         12    1    1    2    0    0  0.34901702567E+02  0.17964874142E+02 -0.18513709364E+02  0.43400725563E+02  0.00000000000E+00 0. -1.
         11    1    3    3    0    0  0.16691545062E+01 -0.15647130908E+01  0.78533165743E+00  0.24189150244E+01  0.51100000000E-03 0. -1.
        -11    1    3    3    0    0  0.17359223165E+00  0.78921711381E+00  0.14456254325E+01  0.16561494702E+01  0.51100000000E-03 0.  1.
        -12    1    3    3    0    0 -0.36744449304E+02 -0.17189378165E+02  0.16282752274E+02  0.43712209942E+02  0.00000000000E+00 0.  1.
</event>
<event>
 7    1  0.2599124E-010  0.4778727E+02  0.7816164E-02  0.1312668E+00
        -11   -1    0    0    0    0  0.00000000000E+00  0.00000000000E+00  0.45593999997E+02  0.45594000000E+02  0.51100000000E-03 0.  1.
         11   -1    0    0    0    0 -0.00000000000E+00 -0.00000000000E+00 -0.45593999997E+02  0.45594000000E+02  0.51100000000E-03 0. -1.
    9900012    2    1    2    0    0  0.31962052009E+02 -0.26856194310E+02  0.11865723599E+02  0.47787270306E+02  0.19999996633E+02 0.  0.
         12    1    1    2    0    0 -0.31962052009E+02  0.26856194310E+02 -0.11865723599E+02  0.43400729694E+02  0.00000000000E+00 0. -1.
         11    1    3    3    0    0  0.63231108453E+01 -0.89497314511E+01 -0.14247284285E+01  0.11050306564E+02  0.51100000000E-03 0. -1.
        -11    1    3    3    0    0 -0.17034646778E+01 -0.18316213872E+01  0.13802500651E+01  0.28568722964E+01  0.51100000000E-03 0.  1.
         12    1    3    3    0    0  0.27342405842E+02 -0.16074841471E+02  0.11910201962E+02  0.33880091445E+02  0.00000000000E+00 0. -1.
</event>
<event>
 7    1  0.2599124E-010  0.4778727E+02  0.7816164E-02  0.1312668E+00
        -11   -1    0    0    0    0  0.00000000000E+00  0.00000000000E+00  0.45593999997E+02  0.45594000000E+02  0.51100000000E-03 0. -1.
         11   -1    0    0    0    0 -0.00000000000E+00 -0.00000000000E+00 -0.45593999997E+02  0.45594000000E+02  0.51100000000E-03 0.  1.
    9900012    2    1    2    0    0  0.19814659263E+01 -0.36037309109E+02 -0.24104143651E+02  0.47787267332E+02  0.19999983073E+02 0.  0.
         12    1    1    2    0    0 -0.19814659263E+01  0.36037309109E+02  0.24104143651E+02  0.43400732668E+02  0.00000000000E+00 0. -1.
         11    1    3    3    0    0 -0.21933332708E+01 -0.37741769091E+01  0.10380539276E+01  0.44869453301E+01  0.51100000000E-03 0. -1.
        -11    1    3    3    0    0 -0.53333116915E+00 -0.19863424635E+00 -0.52357375005E+01  0.52665781239E+01  0.51100000000E-03 0.  1.
        -12    1    3    3    0    0  0.47081303663E+01 -0.32064497953E+02 -0.19906460078E+02  0.38033743878E+02  0.00000000000E+00 0.  1.
</event>
<event>
 7    1  0.2599124E-010  0.4778728E+02  0.7816164E-02  0.1312668E+00
        -11   -1    0    0    0    0  0.00000000000E+00  0.00000000000E+00  0.45593999997E+02  0.45594000000E+02  0.51100000000E-03 0.  1.
         11   -1    0    0    0    0 -0.00000000000E+00 -0.00000000000E+00 -0.45593999997E+02  0.45594000000E+02  0.51100000000E-03 0. -1.
    9900012    2    1    2    0    0 -0.35258815819E+02  0.24222063570E+02 -0.73300679134E+01  0.47787281663E+02  0.20000048413E+02 0.  0.
         12    1    1    2    0    0  0.35258815819E+02 -0.24222063570E+02  0.73300679134E+01  0.43400718337E+02  0.00000000000E+00 0. -1.
         11    1    3    3    0    0 -0.77898361144E+01  0.90875490485E+01 -0.13554476777E+01  0.12045842979E+02  0.51100000000E-03 0. -1.
        -11    1    3    3    0    0 -0.59774867257E+01  0.10170471628E+02  0.25929999325E+01  0.12078596343E+02  0.51100000000E-03 0.  1.
         12    1    3    3    0    0 -0.21491492979E+02  0.49640428934E+01 -0.85676201682E+01  0.23662842341E+02  0.00000000000E+00 0. -1.
</event>
<event>
 7    1  0.2599124E-010  0.4778728E+02  0.7816164E-02  0.1312668E+00
        -11   -1    0    0    0    0  0.00000000000E+00  0.00000000000E+00  0.45593999997E+02  0.45594000000E+02  0.51100000000E-03 0.  1.
         11   -1    0    0    0    0 -0.00000000000E+00 -0.00000000000E+00 -0.45593999997E+02  0.45594000000E+02  0.51100000000E-03 0. -1.
    9900012    2    1    2    0    0 -0.32411164046E+02 -0.24380129645E+02  0.15451484569E+02  0.47787278212E+02  0.20000032681E+02 0.  0.
         12    1    1    2    0    0  0.32411164046E+02  0.24380129645E+02 -0.15451484569E+02  0.43400721788E+02  0.00000000000E+00 0. -1.
         11    1    3    3    0    0 -0.62531122532E+01 -0.47002601176E+00  0.62665868583E+01  0.88652382042E+01  0.51100000000E-03 0. -1.
        -11    1    3    3    0    0 -0.18389273400E+02 -0.13936598556E+02  0.11944732826E+02  0.25982124587E+02  0.51100000000E-03 0.  1.
         12    1    3    3    0    0 -0.77687783925E+01 -0.99735050770E+01 -0.27598351158E+01  0.12939915421E+02  0.00000000000E+00 0. -1.
</event>
<event>
 7    1  0.2860260E-010  0.4778729E+02  0.7816164E-02  0.1312668E+00
        -11   -1    0    0    0    0  0.00000000000E+00  0.00000000000E+00  0.45593999997E+02  0.45594000000E+02  0.51100000000E-03 0. -1.
         11   -1    0    0    0    0 -0.00000000000E+00 -0.00000000000E+00 -0.45593999997E+02  0.45594000000E+02  0.51100000000E-03 0.  1.
    9900012    2    1    2    0    0  0.39870756392E+02  0.14870341255E+02  0.85333259467E+01  0.47787286688E+02  0.20000071324E+02 0.  0.
         12    1    1    2    0    0 -0.39870756392E+02 -0.14870341255E+02 -0.85333259467E+01  0.43400713312E+02  0.00000000000E+00 0. -1.
         11    1    3    3    0    0  0.13131090569E+02 -0.21820081986E+01  0.12138807612E+01  0.13366383433E+02  0.51100000000E-03 0. -1.
        -11    1    3    3    0    0  0.62381273982E+01  0.57608906802E+01 -0.27725898495E+01  0.89324884327E+01  0.51100000000E-03 0.  1.
        -12    1    3    3    0    0  0.20501538425E+02  0.11291458773E+02  0.10092035035E+02  0.25488414823E+02  0.00000000000E+00 0.  1.
</event>
<event>
 7    1  0.2599124E-010  0.4778726E+02  0.7816164E-02  0.1312668E+00
        -11   -1    0    0    0    0  0.00000000000E+00  0.00000000000E+00  0.45593999997E+02  0.45594000000E+02  0.51100000000E-03 0.  1.
         11   -1    0    0    0    0 -0.00000000000E+00 -0.00000000000E+00 -0.45593999997E+02  0.45594000000E+02  0.51100000000E-03 0. -1.
    9900012    2    1    2    0    0  0.17688925127E+02 -0.36981126146E+02  0.14252096145E+02  0.47787262591E+02  0.19999961456E+02 0.  0.
         12    1    1    2    0    0 -0.17688925127E+02  0.36981126146E+02 -0.14252096145E+02  0.43400737409E+02  0.00000000000E+00 0. -1.
         11    1    3    3    0    0  0.36376472104E+01 -0.46528889026E+01  0.82565871714E+01  0.10151506506E+02  0.51100000000E-03 0. -1.
        -11    1    3    3    0    0 -0.13239474735E+01 -0.57655819550E+01  0.34277208382E+01  0.68369615033E+01  0.51100000000E-03 0.  1.
         12    1    3    3    0    0  0.15375225390E+02 -0.26562655288E+02  0.25677881350E+01  0.30798794581E+02  0.00000000000E+00 0. -1.
</event>
<event>
 7    1  0.2599124E-010  0.4778727E+02  0.7816164E-02  0.1312668E+00
        -11   -1    0    0    0    0  0.00000000000E+00  0.00000000000E+00  0.45593999997E+02  0.45594000000E+02  0.51100000000E-03 0. -1.
         11   -1    0    0    0    0 -0.00000000000E+00 -0.00000000000E+00 -0.45593999997E+02  0.45594000000E+02  0.51100000000E-03 0.  1.
    9900012    2    1    2    0    0  0.15017984244E+02 -0.25606445737E+02 -0.31660598235E+02  0.47787269653E+02  0.19999993657E+02 0.  0.
         12    1    1    2    0    0 -0.15017984244E+02  0.25606445737E+02  0.31660598235E+02  0.43400730347E+02  0.00000000000E+00 0. -1.
         11    1    3    3    0    0 -0.11645661549E+01 -0.13900777616E+02 -0.13345878632E+02  0.19305447661E+02  0.51100000000E-03 0. -1.
        -11    1    3    3    0    0  0.25239720729E+01 -0.58507034677E+01 -0.86933935983E+01  0.10778509109E+02  0.51100000000E-03 0.  1.
        -12    1    3    3    0    0  0.13658578326E+02 -0.58549646538E+01 -0.96213260046E+01  0.17703312884E+02  0.00000000000E+00 0.  1.
</event>
<event>
 7    1  0.2599124E-010  0.4778727E+02  0.7816164E-02  0.1312668E+00
        -11   -1    0    0    0    0  0.00000000000E+00  0.00000000000E+00  0.45593999997E+02  0.45594000000E+02  0.51100000000E-03 0.  1.
         11   -1    0    0    0    0 -0.00000000000E+00 -0.00000000000E+00 -0.45593999997E+02  0.45594000000E+02  0.51100000000E-03 0. -1.
    9900012    2    1    2    0    0  0.42660347690E+02  0.42706405435E+01 -0.67438696164E+01  0.47787269440E+02  0.19999992686E+02 0.  0.
         12    1    1    2    0    0 -0.42660347690E+02 -0.42706405435E+01  0.67438696164E+01  0.43400730560E+02  0.00000000000E+00 0. -1.
         11    1    3    3    0    0  0.14407271081E+02  0.20920528442E+01 -0.59128193940E+01  0.15713293053E+02  0.51100000000E-03 0. -1.
        -11    1    3    3    0    0  0.17960875840E+02 -0.49031546925E+01 -0.42997503684E+01  0.19108161617E+02  0.51100000000E-03 0.  1.
        -12    1    3    3    0    0  0.10292200769E+02  0.70817423918E+01  0.34687001460E+01  0.12965814771E+02  0.00000000000E+00 0.  1.
</event>
<event>
 7    1  0.2599124E-010  0.4778727E+02  0.7816164E-02  0.1312668E+00
        -11   -1    0    0    0    0  0.00000000000E+00  0.00000000000E+00  0.45593999997E+02  0.45594000000E+02  0.51100000000E-03 0.  1.
         11   -1    0    0    0    0 -0.00000000000E+00 -0.00000000000E+00 -0.45593999997E+02  0.45594000000E+02  0.51100000000E-03 0. -1.
    9900012    2    1    2    0    0  0.28507150521E+02 -0.15396737589E+02  0.28877437898E+02  0.47787267532E+02  0.19999983986E+02 0.  0.
         12    1    1    2    0    0 -0.28507150521E+02  0.15396737589E+02 -0.28877437898E+02  0.43400732468E+02  0.00000000000E+00 0. -1.
         11    1    3    3    0    0  0.31989782395E+01  0.96169441885E-01  0.11422112862E+02  0.11862013860E+02  0.51100000000E-03 0. -1.
        -11    1    3    3    0    0  0.12206339575E+02 -0.90822988822E+01  0.14551341048E+02  0.21052895415E+02  0.51100000000E-03 0.  1.
         12    1    3    3    0    0  0.13101832707E+02 -0.64106081490E+01  0.29039839878E+01  0.14872358257E+02  0.00000000000E+00 0. -1.
</event>
<event>
 7    1  0.2599124E-010  0.4778727E+02  0.7816164E-02  0.1312668E+00
        -11   -1    0    0    0    0  0.00000000000E+00  0.00000000000E+00  0.45593999997E+02  0.45594000000E+02  0.51100000000E-03 0.  1.
         11   -1    0    0    0    0 -0.00000000000E+00 -0.00000000000E+00 -0.45593999997E+02  0.45594000000E+02  0.51100000000E-03 0. -1.
    9900012    2    1    2    0    0 -0.10057248609E+02 -0.23297974679E+02  0.35209082512E+02  0.47787269994E+02  0.19999995211E+02 0.  0.
         12    1    1    2    0    0  0.10057248609E+02  0.23297974679E+02 -0.35209082512E+02  0.43400730006E+02  0.00000000000E+00 0. -1.
         11    1    3    3    0    0 -0.96890507986E+01 -0.38784507396E+01  0.68750277882E+01  0.12497443453E+02  0.51100000000E-03 0. -1.
        -11    1    3    3    0    0 -0.15806650042E+01 -0.39887217987E+01  0.19773394562E+01  0.47242221612E+01  0.51100000000E-03 0.  1.
        -12    1    3    3    0    0  0.12124671936E+01 -0.15430802141E+02  0.26356715267E+02  0.30565604380E+02  0.00000000000E+00 0.  1.
</event>
<event>
 7    1  0.2599124E-010  0.4778727E+02  0.7816164E-02  0.1312668E+00
        -11   -1    0    0    0    0  0.00000000000E+00  0.00000000000E+00  0.45593999997E+02  0.45594000000E+02  0.51100000000E-03 0.  1.
         11   -1    0    0    0    0 -0.00000000000E+00 -0.00000000000E+00 -0.45593999997E+02  0.45594000000E+02  0.51100000000E-03 0. -1.
    9900012    2    1    2    0    0  0.36453096703E+02 -0.22544799443E+02  0.68210742522E+01  0.47787270800E+02  0.19999998885E+02 0.  0.
         12    1    1    2    0    0 -0.36453096703E+02  0.22544799443E+02 -0.68210742522E+01  0.43400729200E+02  0.00000000000E+00 0. -1.
         11    1    3    3    0    0  0.14747073231E+02 -0.45717061403E+01  0.74317317463E+01  0.17134973094E+02  0.51100000000E-03 0. -1.
        -11    1    3    3    0    0  0.78458640583E+01 -0.34723751012E+01  0.48595270506E+01  0.98605261057E+01  0.51100000000E-03 0.  1.
         12    1    3    3    0    0  0.13860159414E+02 -0.14500718201E+02 -0.54701845447E+01  0.20791771600E+02  0.00000000000E+00 0. -1.
</event>
<event>
 7    1  0.2599124E-010  0.4778727E+02  0.7816164E-02  0.1312668E+00
        -11   -1    0    0    0    0  0.00000000000E+00  0.00000000000E+00  0.45593999997E+02  0.45594000000E+02  0.51100000000E-03 0. -1.
         11   -1    0    0    0    0 -0.00000000000E+00 -0.00000000000E+00 -0.45593999997E+02  0.45594000000E+02  0.51100000000E-03 0.  1.
    9900012    2    1    2    0    0 -0.30208449645E+01 -0.14482739509E+02 -0.40801322377E+02  0.47787272406E+02  0.20000006209E+02 0.  0.
         12    1    1    2    0    0  0.30208449645E+01  0.14482739509E+02  0.40801322377E+02  0.43400727594E+02  0.00000000000E+00 0. -1.
         11    1    3    3    0    0  0.24991923698E+01 -0.58639729106E+01 -0.16655556039E+01  0.65883394363E+01  0.51100000000E-03 0. -1.
        -11    1    3    3    0    0  0.17269033564E+01 -0.96383113045E+00 -0.10499924411E+02  0.10684548589E+02  0.51100000000E-03 0.  1.
        -12    1    3    3    0    0 -0.72469406907E+01 -0.76549354675E+01 -0.28635842362E+02  0.30514384381E+02  0.00000000000E+00 0.  1.
</event>
<event>
 7    1  0.2599124E-010  0.4778727E+02  0.7816164E-02  0.1312668E+00
        -11   -1    0    0    0    0  0.00000000000E+00  0.00000000000E+00  0.45593999997E+02  0.45594000000E+02  0.51100000000E-03 0.  1.
         11   -1    0    0    0    0 -0.00000000000E+00 -0.00000000000E+00 -0.45593999997E+02  0.45594000000E+02  0.51100000000E-03 0. -1.
    9900012    2    1    2    0    0  0.20580369310E+02  0.13247516198E+01  0.38187910067E+02  0.47787273703E+02  0.20000012123E+02 0.  0.
         12    1    1    2    0    0 -0.20580369310E+02 -0.13247516198E+01 -0.38187910067E+02  0.43400726297E+02  0.00000000000E+00 0. -1.
         11    1    3    3    0    0 -0.56989624396E+00 -0.33626284793E+01  0.77554725097E+01  0.84722727841E+01  0.51100000000E-03 0. -1.
        -11    1    3    3    0    0  0.19719378586E+02  0.78419296870E+01  0.24217605156E+02  0.32200033428E+02  0.51100000000E-03 0.  1.
        -12    1    3    3    0    0  0.14308869679E+01 -0.31545495878E+01  0.62148324017E+01  0.71149674911E+01  0.00000000000E+00 0.  1.
</event>
<event>
 7    1  0.2599124E-010  0.4778727E+02  0.7816164E-02  0.1312668E+00
        -11   -1    0    0    0    0  0.00000000000E+00  0.00000000000E+00  0.45593999997E+02  0.45594000000E+02  0.51100000000E-03 0.  1.
         11   -1    0    0    0    0 -0.00000000000E+00 -0.00000000000E+00 -0.45593999997E+02  0.45594000000E+02  0.51100000000E-03 0. -1.
    9900012    2    1    2    0    0 -0.62374755587E+01  0.60214979958E+01  0.42525978506E+02  0.47787269737E+02  0.19999994041E+02 0.  0.
         12    1    1    2    0    0  0.62374755587E+01 -0.60214979958E+01 -0.42525978506E+02  0.43400730263E+02  0.00000000000E+00 0. -1.
         11    1    3    3    0    0 -0.20462592931E+01 -0.36834111641E+01  0.54172538080E+01  0.68630411612E+01  0.51100000000E-03 0. -1.
        -11    1    3    3    0    0  0.37308210474E+01 -0.10380449688E+01  0.94655372108E+01  0.10227069864E+02  0.51100000000E-03 0.  1.
         12    1    3    3    0    0 -0.79220373130E+01  0.10742954129E+02  0.27643187487E+02  0.30697158713E+02  0.00000000000E+00 0. -1.
</event>
<event>
 7    1  0.2599124E-010  0.4778727E+02  0.7816164E-02  0.1312668E+00
        -11   -1    0    0    0    0  0.00000000000E+00  0.00000000000E+00  0.45593999997E+02  0.45594000000E+02  0.51100000000E-03 0.  1.
         11   -1    0    0    0    0 -0.00000000000E+00 -0.00000000000E+00 -0.45593999997E+02  0.45594000000E+02  0.51100000000E-03 0. -1.
    9900012    2    1    2    0    0 -0.29546143385E+02 -0.19079158727E+02  0.25429005541E+02  0.47787271787E+02  0.20000003384E+02 0.  0.
         12    1    1    2    0    0  0.29546143385E+02  0.19079158727E+02 -0.25429005541E+02  0.43400728213E+02  0.00000000000E+00 0. -1.
         11    1    3    3    0    0 -0.16573297421E-01 -0.21337139609E+01 -0.22282603847E+00  0.21453814686E+01  0.51100000000E-03 0. -1.
        -11    1    3    3    0    0 -0.37570042821E+01 -0.86394809286E+01  0.12178536066E+02  0.15397157298E+02  0.51100000000E-03 0.  1.
         12    1    3    3    0    0 -0.25772565805E+02 -0.83059638375E+01  0.13473295513E+02  0.30244733020E+02  0.00000000000E+00 0. -1.
</event>
<event>
 7    1  0.2599124E-010  0.4778728E+02  0.7816164E-02  0.1312668E+00
        -11   -1    0    0    0    0  0.00000000000E+00  0.00000000000E+00  0.45593999997E+02  0.45594000000E+02  0.51100000000E-03 0. -1.
         11   -1    0    0    0    0 -0.00000000000E+00 -0.00000000000E+00 -0.45593999997E+02  0.45594000000E+02  0.51100000000E-03 0.  1.
    9900012    2    1    2    0    0  0.42487877659E+02  0.78501225876E+01 -0.40961772554E+01  0.47787276034E+02  0.20000022751E+02 0.  0.
         12    1    1    2    0    0 -0.42487877659E+02 -0.78501225876E+01  0.40961772554E+01  0.43400723966E+02  0.00000000000E+00 0. -1.
         11    1    3    3    0    0  0.31187489320E+01  0.51473190693E+01 -0.51087388451E+01  0.78943461636E+01  0.51100000000E-03 0. -1.
        -11    1    3    3    0    0  0.16634010940E+01 -0.55351213746E+00  0.10565160117E+01  0.20468280900E+01  0.51100000000E-03 0.  1.
        -12    1    3    3    0    0  0.37705727633E+02  0.32563156558E+01 -0.43954422032E-01  0.37846101781E+02  0.00000000000E+00 0.  1.
</event>
<event>
 7    1  0.2599124E-010  0.4778727E+02  0.7816164E-02  0.1312668E+00
        -11   -1    0    0    0    0  0.00000000000E+00  0.00000000000E+00  0.45593999997E+02  0.45594000000E+02  0.51100000000E-03 0.  1.
         11   -1    0    0    0    0 -0.00000000000E+00 -0.00000000000E+00 -0.45593999997E+02  0.45594000000E+02  0.51100000000E-03 0. -1.
    9900012    2    1    2    0    0 -0.18046231368E+02 -0.32704107646E+02 -0.22099728779E+02  0.47787272637E+02  0.20000007263E+02 0.  0.
         12    1    1    2    0    0  0.18046231368E+02  0.32704107646E+02  0.22099728779E+02  0.43400727363E+02  0.00000000000E+00 0. -1.
         11    1    3    3    0    0 -0.11556191839E+02 -0.91510094290E+01 -0.12475186023E+02  0.19311054087E+02  0.51100000000E-03 0. -1.
        -11    1    3    3    0    0 -0.15479889769E+01 -0.87409570810E+01 -0.93020803745E+01  0.12858044179E+02  0.51100000000E-03 0.  1.
         12    1    3    3    0    0 -0.49420505518E+01 -0.14812141136E+02 -0.32246238149E+00  0.15618174371E+02  0.00000000000E+00 0. -1.
</event>
<event>
 7    1  0.2599124E-010  0.4778727E+02  0.7816164E-02  0.1312668E+00
        -11   -1    0    0    0    0  0.00000000000E+00  0.00000000000E+00  0.45593999997E+02  0.45594000000E+02  0.51100000000E-03 0.  1.
         11   -1    0    0    0    0 -0.00000000000E+00 -0.00000000000E+00 -0.45593999997E+02  0.45594000000E+02  0.51100000000E-03 0. -1.
    9900012    2    1    2    0    0 -0.25493923356E+02  0.23845777459E+02  0.25788794198E+02  0.47787272623E+02  0.20000007196E+02 0.  0.
         12    1    1    2    0    0  0.25493923356E+02 -0.23845777459E+02 -0.25788794198E+02  0.43400727377E+02  0.00000000000E+00 0. -1.
         11    1    3    3    0    0 -0.16283941731E+02  0.11326496013E+02  0.99543375861E+01  0.22193357277E+02  0.51100000000E-03 0. -1.
        -11    1    3    3    0    0 -0.58372663357E+01  0.85706511462E+01  0.16645243016E+01  0.10502398810E+02  0.51100000000E-03 0.  1.
         12    1    3    3    0    0 -0.33727152898E+01  0.39486303004E+01  0.14169932310E+02  0.15091516536E+02  0.00000000000E+00 0. -1.
</event>
<event>
 7    1  0.2599124E-010  0.4778727E+02  0.7816164E-02  0.1312668E+00
        -11   -1    0    0    0    0  0.00000000000E+00  0.00000000000E+00  0.45593999997E+02  0.45594000000E+02  0.51100000000E-03 0.  1.
         11   -1    0    0    0    0 -0.00000000000E+00 -0.00000000000E+00 -0.45593999997E+02  0.45594000000E+02  0.51100000000E-03 0. -1.
    9900012    2    1    2    0    0  0.22138699368E+02 -0.35943068493E+02 -0.10079545086E+02  0.47787269458E+02  0.19999992768E+02 0.  0.
         12    1    1    2    0    0 -0.22138699368E+02  0.35943068493E+02  0.10079545086E+02  0.43400730542E+02  0.00000000000E+00 0. -1.
         11    1    3    3    0    0  0.10205976779E+02 -0.20889948661E+02 -0.13449118416E+02  0.26859462085E+02  0.51100000000E-03 0. -1.
        -11    1    3    3    0    0 -0.35578929403E+00  0.19762744813E+00 -0.80526450817E+00  0.90227147757E+00  0.51100000000E-03 0.  1.
        -12    1    3    3    0    0  0.12288511884E+02 -0.15250747280E+02  0.41748378384E+01  0.20025535896E+02  0.00000000000E+00 0.  1.
</event>
<event>
 7    1  0.3268388E-010  0.4778727E+02  0.7816164E-02  0.1312668E+00
        -11   -1    0    0    0    0  0.00000000000E+00  0.00000000000E+00  0.45593999997E+02  0.45594000000E+02  0.51100000000E-03 0. -1.
         11   -1    0    0    0    0 -0.00000000000E+00 -0.00000000000E+00 -0.45593999997E+02  0.45594000000E+02  0.51100000000E-03 0.  1.
    9900012    2    1    2    0    0  0.16478463244E+02 -0.40150512724E+02 -0.14049153940E+00  0.47787272347E+02  0.20000005939E+02 0.  0.
         12    1    1    2    0    0 -0.16478463244E+02  0.40150512724E+02  0.14049153940E+00  0.43400727653E+02  0.00000000000E+00 0. -1.
         11    1    3    3    0    0  0.10550045577E+01 -0.11307126436E+02  0.52467893565E+01  0.12509713893E+02  0.51100000000E-03 0. -1.
        -11    1    3    3    0    0  0.14836900027E+01  0.10892643506E+01 -0.16880068688E+00  0.18483308099E+01  0.51100000000E-03 0.  1.
        -12    1    3    3    0    0  0.13939768684E+02 -0.29932650639E+02 -0.52184802090E+01  0.33429227645E+02  0.00000000000E+00 0.  1.
</event>
<event>
 7    1  0.2599124E-010  0.4778726E+02  0.7816164E-02  0.1312668E+00
        -11   -1    0    0    0    0  0.00000000000E+00  0.00000000000E+00  0.45593999997E+02  0.45594000000E+02  0.51100000000E-03 0. -1.
         11   -1    0    0    0    0 -0.00000000000E+00 -0.00000000000E+00 -0.45593999997E+02  0.45594000000E+02  0.51100000000E-03 0.  1.
    9900012    2    1    2    0    0 -0.21630365904E+02  0.36555176268E+02 -0.89146097430E+01  0.47787263739E+02  0.19999966690E+02 0.  0.
         12    1    1    2    0    0  0.21630365904E+02 -0.36555176268E+02  0.89146097430E+01  0.43400736261E+02  0.00000000000E+00 0. -1.
         11    1    3    3    0    0 -0.23295920699E+01  0.58626331522E+01 -0.34775429423E+01  0.72035249612E+01  0.51100000000E-03 0.  1.
        -11    1    3    3    0    0 -0.14916587323E+02  0.10061251203E+02  0.22540828861E+01  0.18133235868E+02  0.51100000000E-03 0. -1.
         12    1    3    3    0    0 -0.43841865114E+01  0.20631291913E+02 -0.76911496869E+01  0.22450502909E+02  0.00000000000E+00 0. -1.
</event>
<event>
 7    1  0.2599124E-010  0.4778727E+02  0.7816164E-02  0.1312668E+00
        -11   -1    0    0    0    0  0.00000000000E+00  0.00000000000E+00  0.45593999997E+02  0.45594000000E+02  0.51100000000E-03 0.  1.
         11   -1    0    0    0    0 -0.00000000000E+00 -0.00000000000E+00 -0.45593999997E+02  0.45594000000E+02  0.51100000000E-03 0. -1.
    9900012    2    1    2    0    0  0.11130306967E+02 -0.31903149952E+02  0.27238365919E+02  0.47787270881E+02  0.19999999257E+02 0.  0.
         12    1    1    2    0    0 -0.11130306967E+02  0.31903149952E+02 -0.27238365919E+02  0.43400729119E+02  0.00000000000E+00 0. -1.
         11    1    3    3    0    0  0.31829136511E+00  0.88982399438E+00 -0.27864068455E+00  0.98525987754E+00  0.51100000000E-03 0. -1.
        -11    1    3    3    0    0 -0.15346729558E+01 -0.15749946275E+02  0.17172052819E+02  0.23351561555E+02  0.51100000000E-03 0.  1.
        -12    1    3    3    0    0  0.12346688558E+02 -0.17043027672E+02  0.10344953784E+02  0.23450449449E+02  0.00000000000E+00 0.  1.
</event>
<event>
 7    1  0.2599124E-010  0.4778727E+02  0.7816164E-02  0.1312668E+00
        -11   -1    0    0    0    0  0.00000000000E+00  0.00000000000E+00  0.45593999997E+02  0.45594000000E+02  0.51100000000E-03 0. -1.
         11   -1    0    0    0    0 -0.00000000000E+00 -0.00000000000E+00 -0.45593999997E+02  0.45594000000E+02  0.51100000000E-03 0.  1.
    9900012    2    1    2    0    0 -0.28471574430E+02  0.27542728821E+02  0.17731061725E+02  0.47787274069E+02  0.20000013792E+02 0.  0.
         12    1    1    2    0    0  0.28471574430E+02 -0.27542728821E+02 -0.17731061725E+02  0.43400725931E+02  0.00000000000E+00 0. -1.
         11    1    3    3    0    0 -0.12048305789E+02  0.16557699748E+02  0.12651505489E+02  0.24070307117E+02  0.51100000000E-03 0. -1.
        -11    1    3    3    0    0 -0.17046333693E+02  0.64571339227E+01  0.57132030930E+01  0.19102689881E+02  0.51100000000E-03 0.  1.
         12    1    3    3    0    0  0.62306505129E+00  0.45278951498E+01 -0.63364685684E+00  0.46142770707E+01  0.00000000000E+00 0. -1.
</event>
<event>
 7    1  0.2599124E-010  0.4778728E+02  0.7816164E-02  0.1312668E+00
        -11   -1    0    0    0    0  0.00000000000E+00  0.00000000000E+00  0.45593999997E+02  0.45594000000E+02  0.51100000000E-03 0.  1.
         11   -1    0    0    0    0 -0.00000000000E+00 -0.00000000000E+00 -0.45593999997E+02  0.45594000000E+02  0.51100000000E-03 0. -1.
    9900012    2    1    2    0    0 -0.10690133777E+02  0.22344082814E+02  0.35638264240E+02  0.47787275640E+02  0.20000020954E+02 0.  0.
         12    1    1    2    0    0  0.10690133777E+02 -0.22344082814E+02 -0.35638264240E+02  0.43400724360E+02  0.00000000000E+00 0. -1.
         11    1    3    3    0    0 -0.16536549887E+01  0.48804881142E+01 -0.11615764879E+01  0.52823289611E+01  0.51100000000E-03 0. -1.
        -11    1    3    3    0    0  0.11830861834E+01  0.39207894913E+01  0.97432899548E+01  0.10569010481E+02  0.51100000000E-03 0.  1.
        -12    1    3    3    0    0 -0.10219564971E+02  0.13542805208E+02  0.27056550773E+02  0.31935936198E+02  0.00000000000E+00 0.  1.
</event>
<event>
 7    1  0.2599124E-010  0.4778727E+02  0.7816164E-02  0.1312668E+00
        -11   -1    0    0    0    0  0.00000000000E+00  0.00000000000E+00  0.45593999997E+02  0.45594000000E+02  0.51100000000E-03 0.  1.
         11   -1    0    0    0    0 -0.00000000000E+00 -0.00000000000E+00 -0.45593999997E+02  0.45594000000E+02  0.51100000000E-03 0. -1.
    9900012    2    1    2    0    0 -0.52160929070E+01 -0.39373331580E+02  0.17497322771E+02  0.47787272252E+02  0.20000005504E+02 0.  0.
         12    1    1    2    0    0  0.52160929070E+01  0.39373331580E+02 -0.17497322771E+02  0.43400727748E+02  0.00000000000E+00 0. -1.
         11    1    3    3    0    0 -0.35369831678E+01 -0.60451101770E+01 -0.14835448933E+01  0.71592257048E+01  0.51100000000E-03 0. -1.
        -11    1    3    3    0    0 -0.55573862537E+00 -0.29118944019E+01  0.75571669670E+01  0.81178043371E+01  0.51100000000E-03 0.  1.
        -12    1    3    3    0    0 -0.11233711138E+01 -0.30416327001E+02  0.11423700697E+02  0.32510242210E+02  0.00000000000E+00 0.  1.
</event>
<event>
 7    1  0.2599124E-010  0.4778727E+02  0.7816164E-02  0.1312668E+00
        -11   -1    0    0    0    0  0.00000000000E+00  0.00000000000E+00  0.45593999997E+02  0.45594000000E+02  0.51100000000E-03 0.  1.
         11   -1    0    0    0    0 -0.00000000000E+00 -0.00000000000E+00 -0.45593999997E+02  0.45594000000E+02  0.51100000000E-03 0. -1.
    9900012    2    1    2    0    0 -0.22048016115E+02 -0.27681977558E+02  0.25124018704E+02  0.47787271758E+02  0.20000003253E+02 0.  0.
         12    1    1    2    0    0  0.22048016115E+02  0.27681977558E+02 -0.25124018704E+02  0.43400728242E+02  0.00000000000E+00 0. -1.
         11    1    3    3    0    0 -0.28158802160E+01 -0.20786572088E+00  0.61230086546E+01  0.67426719328E+01  0.51100000000E-03 0. -1.
        -11    1    3    3    0    0 -0.12603235318E+02 -0.20622594843E+02  0.20117653487E+02  0.31446032192E+02  0.51100000000E-03 0.  1.
         12    1    3    3    0    0 -0.66289005815E+01 -0.68515169943E+01 -0.11166434381E+01  0.95985676333E+01  0.00000000000E+00 0. -1.
</event>
<event>
 7    1  0.2599124E-010  0.4778727E+02  0.7816164E-02  0.1312668E+00
        -11   -1    0    0    0    0  0.00000000000E+00  0.00000000000E+00  0.45593999997E+02  0.45594000000E+02  0.51100000000E-03 0.  1.
         11   -1    0    0    0    0 -0.00000000000E+00 -0.00000000000E+00 -0.45593999997E+02  0.45594000000E+02  0.51100000000E-03 0. -1.
    9900012    2    1    2    0    0  0.21634077402E+02 -0.13605712214E+02  0.35078119002E+02  0.47787272557E+02  0.20000006895E+02 0.  0.
         12    1    1    2    0    0 -0.21634077402E+02  0.13605712214E+02 -0.35078119002E+02  0.43400727443E+02  0.00000000000E+00 0. -1.
         11    1    3    3    0    0  0.20167774742E+02 -0.69356004590E+01  0.20353539325E+02  0.29480642040E+02  0.51100000000E-03 0.  1.
        -11    1    3    3    0    0  0.25197440939E+00  0.14294291349E+01 -0.69778197884E-02  0.14514846557E+01  0.51100000000E-03 0. -1.
        -12    1    3    3    0    0  0.12143282513E+01 -0.80995408897E+01  0.14731557497E+02  0.16855145861E+02  0.00000000000E+00 0.  1.
</event>
<event>
 7    1  0.2599124E-010  0.4778727E+02  0.7816164E-02  0.1312668E+00
        -11   -1    0    0    0    0  0.00000000000E+00  0.00000000000E+00  0.45593999997E+02  0.45594000000E+02  0.51100000000E-03 0.  1.
         11   -1    0    0    0    0 -0.00000000000E+00 -0.00000000000E+00 -0.45593999997E+02  0.45594000000E+02  0.51100000000E-03 0. -1.
    9900012    2    1    2    0    0  0.56228360191E+01 -0.68796648025E+01  0.42481492559E+02  0.47787270942E+02  0.19999999534E+02 0.  0.
         12    1    1    2    0    0 -0.56228360191E+01  0.68796648025E+01 -0.42481492559E+02  0.43400729058E+02  0.00000000000E+00 0. -1.
         11    1    3    3    0    0  0.21276567882E+00 -0.48055938030E+01  0.19339213800E+02  0.19928476904E+02  0.51100000000E-03 0. -1.
        -11    1    3    3    0    0  0.61504424933E+00 -0.45002342443E+01  0.21869577129E+02  0.22336266289E+02  0.51100000000E-03 0.  1.
         12    1    3    3    0    0  0.47950260909E+01  0.24261632448E+01  0.12727016304E+01  0.55225277494E+01  0.00000000000E+00 0. -1.
</event>
<event>
 7    1  0.2599124E-010  0.4778727E+02  0.7816164E-02  0.1312668E+00
        -11   -1    0    0    0    0  0.00000000000E+00  0.00000000000E+00  0.45593999997E+02  0.45594000000E+02  0.51100000000E-03 0. -1.
         11   -1    0    0    0    0 -0.00000000000E+00 -0.00000000000E+00 -0.45593999997E+02  0.45594000000E+02  0.51100000000E-03 0.  1.
    9900012    2    1    2    0    0  0.26517410378E+02 -0.13800776558E+02 -0.31464089105E+02  0.47787269707E+02  0.19999993902E+02 0.  0.
         12    1    1    2    0    0 -0.26517410378E+02  0.13800776558E+02  0.31464089105E+02  0.43400730293E+02  0.00000000000E+00 0. -1.
         11    1    3    3    0    0 -0.15176030706E+01 -0.68972706366E+00  0.89630965590E+00  0.18926737074E+01  0.51100000000E-03 0.  1.
        -11    1    3    3    0    0  0.75962566612E+01  0.89965652703E+00 -0.93312077715E+01  0.12065816834E+02  0.51100000000E-03 0. -1.
        -12    1    3    3    0    0  0.20438756787E+02 -0.14010706021E+02 -0.23029190990E+02  0.33828779166E+02  0.00000000000E+00 0.  1.
</event>
<event>
 7    1  0.2599124E-010  0.4778727E+02  0.7816164E-02  0.1312668E+00
        -11   -1    0    0    0    0  0.00000000000E+00  0.00000000000E+00  0.45593999997E+02  0.45594000000E+02  0.51100000000E-03 0. -1.
         11   -1    0    0    0    0 -0.00000000000E+00 -0.00000000000E+00 -0.45593999997E+02  0.45594000000E+02  0.51100000000E-03 0.  1.
    9900012    2    1    2    0    0 -0.78055375401E+01 -0.33612021026E+02 -0.26323541744E+02  0.47787271622E+02  0.20000002634E+02 0.  0.
         12    1    1    2    0    0  0.78055375401E+01  0.33612021026E+02  0.26323541744E+02  0.43400728378E+02  0.00000000000E+00 0. -1.
         11    1    3    3    0    0 -0.12218614036E+01 -0.58082480208E+01 -0.10598635568E+02  0.12147418102E+02  0.51100000000E-03 0. -1.
        -11    1    3    3    0    0 -0.84576388334E+01 -0.98008411063E+01 -0.10859215286E+02  0.16897061813E+02  0.51100000000E-03 0.  1.
         12    1    3    3    0    0  0.18739626970E+01 -0.18002931899E+02 -0.48656908904E+01  0.18742791708E+02  0.00000000000E+00 0. -1.
</event>
<event>
 7    1  0.2805450E-010  0.4778727E+02  0.7816164E-02  0.1312668E+00
        -11   -1    0    0    0    0  0.00000000000E+00  0.00000000000E+00  0.45593999997E+02  0.45594000000E+02  0.51100000000E-03 0. -1.
         11   -1    0    0    0    0 -0.00000000000E+00 -0.00000000000E+00 -0.45593999997E+02  0.45594000000E+02  0.51100000000E-03 0.  1.
    9900012    2    1    2    0    0  0.20032723717E+02 -0.37724297994E+02 -0.76935355054E+01  0.47787272273E+02  0.20000005600E+02 0.  0.
         12    1    1    2    0    0 -0.20032723717E+02  0.37724297994E+02  0.76935355054E+01  0.43400727727E+02  0.00000000000E+00 0. -1.
         11    1    3    3    0    0  0.98298256736E+00  0.12934572755E+01  0.69379265222E+00  0.17665319008E+01  0.51100000000E-03 0. -1.
        -11    1    3    3    0    0 -0.47408967919E+00 -0.65356160727E+01  0.17649979742E+01  0.67863286528E+01  0.51100000000E-03 0.  1.
        -12    1    3    3    0    0  0.19523830829E+02 -0.32482139197E+02 -0.10152326132E+02  0.39234411719E+02  0.00000000000E+00 0.  1.
</event>
<event>
 7    1  0.2599124E-010  0.4778727E+02  0.7816164E-02  0.1312668E+00
        -11   -1    0    0    0    0  0.00000000000E+00  0.00000000000E+00  0.45593999997E+02  0.45594000000E+02  0.51100000000E-03 0.  1.
         11   -1    0    0    0    0 -0.00000000000E+00 -0.00000000000E+00 -0.45593999997E+02  0.45594000000E+02  0.51100000000E-03 0. -1.
    9900012    2    1    2    0    0  0.15380021685E+01  0.33000433330E+02  0.28146565805E+02  0.47787271697E+02  0.20000002975E+02 0.  0.
         12    1    1    2    0    0 -0.15380021685E+01 -0.33000433330E+02 -0.28146565805E+02  0.43400728303E+02  0.00000000000E+00 0. -1.
         11    1    3    3    0    0 -0.35255688572E+01  0.13048861876E+02  0.13160263955E+02  0.18865179025E+02  0.51100000000E-03 0. -1.
        -11    1    3    3    0    0  0.89334865521E+00  0.15079876364E+02  0.16460891568E+02  0.22341926830E+02  0.51100000000E-03 0.  1.
         12    1    3    3    0    0  0.41702223705E+01  0.48716950895E+01 -0.14745897189E+01  0.65801658417E+01  0.00000000000E+00 0. -1.
</event>
<event>
 7    1  0.2599124E-010  0.4778726E+02  0.7816164E-02  0.1312668E+00
        -11   -1    0    0    0    0  0.00000000000E+00  0.00000000000E+00  0.45593999997E+02  0.45594000000E+02  0.51100000000E-03 0. -1.
         11   -1    0    0    0    0 -0.00000000000E+00 -0.00000000000E+00 -0.45593999997E+02  0.45594000000E+02  0.51100000000E-03 0.  1.
    9900012    2    1    2    0    0 -0.16672360231E+02  0.29091271924E+02 -0.27556382304E+02  0.47787263790E+02  0.19999966926E+02 0.  0.
         12    1    1    2    0    0  0.16672360231E+02 -0.29091271924E+02  0.27556382304E+02  0.43400736210E+02  0.00000000000E+00 0. -1.
         11    1    3    3    0    0 -0.77180409401E+01  0.65623919825E+01 -0.18798446855E+01  0.10303735283E+02  0.51100000000E-03 0. -1.
        -11    1    3    3    0    0 -0.85331424359E+01  0.87463619492E+01 -0.64317823615E+01  0.13808736068E+02  0.51100000000E-03 0.  1.
        -12    1    3    3    0    0 -0.42117685548E+00  0.13782517992E+02 -0.19244755257E+02  0.23674792440E+02  0.00000000000E+00 0.  1.
</event>
<event>
 7    1  0.2599124E-010  0.4778727E+02  0.7816164E-02  0.1312668E+00
        -11   -1    0    0    0    0  0.00000000000E+00  0.00000000000E+00  0.45593999997E+02  0.45594000000E+02  0.51100000000E-03 0.  1.
         11   -1    0    0    0    0 -0.00000000000E+00 -0.00000000000E+00 -0.45593999997E+02  0.45594000000E+02  0.51100000000E-03 0. -1.
    9900012    2    1    2    0    0  0.27963491316E+01 -0.16497599508E+02  0.40045386592E+02  0.47787270222E+02  0.19999996248E+02 0.  0.
         12    1    1    2    0    0 -0.27963491316E+01  0.16497599508E+02 -0.40045386592E+02  0.43400729778E+02  0.00000000000E+00 0. -1.
         11    1    3    3    0    0  0.48153120117E+01 -0.98766422609E+01  0.19887458396E+02  0.22721053977E+02  0.51100000000E-03 0. -1.
        -11    1    3    3    0    0 -0.15891536092E+01 -0.40302144999E+01  0.21627307758E+02  0.22056937213E+02  0.51100000000E-03 0.  1.
         12    1    3    3    0    0 -0.42980927092E+00 -0.25907427474E+01 -0.14693795617E+01  0.30092790315E+01  0.00000000000E+00 0. -1.
</event>
<event>
 7    1  0.2599124E-010  0.4778727E+02  0.7816164E-02  0.1312668E+00
        -11   -1    0    0    0    0  0.00000000000E+00  0.00000000000E+00  0.45593999997E+02  0.45594000000E+02  0.51100000000E-03 0.  1.
         11   -1    0    0    0    0 -0.00000000000E+00 -0.00000000000E+00 -0.45593999997E+02  0.45594000000E+02  0.51100000000E-03 0. -1.
    9900012    2    1    2    0    0  0.24336343944E+02 -0.15102422253E+02  0.32608013184E+02  0.47787270533E+02  0.19999997667E+02 0.  0.
         12    1    1    2    0    0 -0.24336343944E+02  0.15102422253E+02 -0.32608013184E+02  0.43400729467E+02  0.00000000000E+00 0. -1.
         11    1    3    3    0    0  0.95288264472E+01 -0.10184417917E+02  0.80231586755E+01  0.16090120483E+02  0.51100000000E-03 0.  1.
        -11    1    3    3    0    0  0.56924993434E+01 -0.77477958567E+01  0.16901342036E+02  0.19444491567E+02  0.51100000000E-03 0. -1.
         12    1    3    3    0    0  0.91150181534E+01  0.28297915201E+01  0.76835124726E+01  0.12252658483E+02  0.00000000000E+00 0. -1.
</event>
<event>
 7    1  0.2599124E-010  0.4778727E+02  0.7816164E-02  0.1312668E+00
        -11   -1    0    0    0    0  0.00000000000E+00  0.00000000000E+00  0.45593999997E+02  0.45594000000E+02  0.51100000000E-03 0.  1.
         11   -1    0    0    0    0 -0.00000000000E+00 -0.00000000000E+00 -0.45593999997E+02  0.45594000000E+02  0.51100000000E-03 0. -1.
    9900012    2    1    2    0    0  0.32180030398E+02 -0.28247320175E+02  0.70822123375E+01  0.47787272068E+02  0.20000004666E+02 0.  0.
         12    1    1    2    0    0 -0.32180030398E+02  0.28247320175E+02 -0.70822123375E+01  0.43400727932E+02  0.00000000000E+00 0. -1.
         11    1    3    3    0    0  0.10192272612E+02 -0.10622388307E+02 -0.22354569090E+01  0.14890091410E+02  0.51100000000E-03 0. -1.
        -11    1    3    3    0    0  0.15407174070E+02 -0.49574901817E+01  0.65245085739E+00  0.16198253427E+02  0.51100000000E-03 0.  1.
        -12    1    3    3    0    0  0.65805837157E+01 -0.12667441686E+02  0.86652183891E+01  0.16698927230E+02  0.00000000000E+00 0.  1.
</event>
<event>
 7    1  0.2599124E-010  0.4778729E+02  0.7816164E-02  0.1312668E+00
        -11   -1    0    0    0    0  0.00000000000E+00  0.00000000000E+00  0.45593999997E+02  0.45594000000E+02  0.51100000000E-03 0.  1.
         11   -1    0    0    0    0 -0.00000000000E+00 -0.00000000000E+00 -0.45593999997E+02  0.45594000000E+02  0.51100000000E-03 0. -1.
    9900012    2    1    2    0    0 -0.10473429040E+02 -0.88941289224E-01  0.42117940276E+02  0.47787291256E+02  0.20000092151E+02 0.  0.
         12    1    1    2    0    0  0.10473429040E+02  0.88941289224E-01 -0.42117940276E+02  0.43400708744E+02  0.00000000000E+00 0. -1.
         11    1    3    3    0    0 -0.48565104026E+01 -0.19066475284E+01  0.39171108663E+01  0.65241670647E+01  0.51100000000E-03 0. -1.
        -11    1    3    3    0    0  0.83413572782E+00 -0.54880870347E+01  0.17954251888E+02  0.18792818916E+02  0.51100000000E-03 0.  1.
        -12    1    3    3    0    0 -0.64510543654E+01  0.73057932739E+01  0.20246577522E+02  0.22470305275E+02  0.00000000000E+00 0.  1.
</event>
<event>
 7    1  0.2599124E-010  0.4778727E+02  0.7816164E-02  0.1312668E+00
        -11   -1    0    0    0    0  0.00000000000E+00  0.00000000000E+00  0.45593999997E+02  0.45594000000E+02  0.51100000000E-03 0.  1.
         11   -1    0    0    0    0 -0.00000000000E+00 -0.00000000000E+00 -0.45593999997E+02  0.45594000000E+02  0.51100000000E-03 0. -1.
    9900012    2    1    2    0    0  0.20196815694E+02 -0.20601963383E+02  0.32423309631E+02  0.47787271126E+02  0.20000000371E+02 0.  0.
         12    1    1    2    0    0 -0.20196815694E+02  0.20601963383E+02 -0.32423309631E+02  0.43400728874E+02  0.00000000000E+00 0. -1.
         11    1    3    3    0    0 -0.72519055279E+00 -0.27657039104E+01 -0.60529208287E+00  0.29225670607E+01  0.51100000000E-03 0. -1.
        -11    1    3    3    0    0 -0.12394953631E+01  0.10714917557E+00  0.18830172699E-01  0.12442606389E+01  0.51100000000E-03 0.  1.
        -12    1    3    3    0    0  0.22161501610E+02 -0.17943408648E+02  0.33009771541E+02  0.43620443426E+02  0.00000000000E+00 0.  1.
</event>
<event>
 7    1  0.2599124E-010  0.4778727E+02  0.7816164E-02  0.1312668E+00
        -11   -1    0    0    0    0  0.00000000000E+00  0.00000000000E+00  0.45593999997E+02  0.45594000000E+02  0.51100000000E-03 0. -1.
         11   -1    0    0    0    0 -0.00000000000E+00 -0.00000000000E+00 -0.45593999997E+02  0.45594000000E+02  0.51100000000E-03 0.  1.
    9900012    2    1    2    0    0 -0.64857650478E+01  0.34647405979E+02 -0.25320264754E+02  0.47787266175E+02  0.19999977798E+02 0.  0.
         12    1    1    2    0    0  0.64857650478E+01 -0.34647405979E+02  0.25320264754E+02  0.43400733825E+02  0.00000000000E+00 0. -1.
         11    1    3    3    0    0 -0.32886508699E+01  0.58005358941E+01 -0.11236888915E+02  0.13066335138E+02  0.51100000000E-03 0.  1.
        -11    1    3    3    0    0 -0.74910126837E+01  0.11281257212E+02 -0.74783534116E+01  0.15469576766E+02  0.51100000000E-03 0. -1.
         12    1    3    3    0    0  0.42938985057E+01  0.17565612873E+02 -0.66050224280E+01  0.19251354271E+02  0.00000000000E+00 0. -1.
</event>
<event>
 7    1  0.2599124E-010  0.4778728E+02  0.7816164E-02  0.1312668E+00
        -11   -1    0    0    0    0  0.00000000000E+00  0.00000000000E+00  0.45593999997E+02  0.45594000000E+02  0.51100000000E-03 0. -1.
         11   -1    0    0    0    0 -0.00000000000E+00 -0.00000000000E+00 -0.45593999997E+02  0.45594000000E+02  0.51100000000E-03 0.  1.
    9900012    2    1    2    0    0 -0.51715972580E+01  0.39887445914E+02 -0.16305491458E+02  0.47787276372E+02  0.20000024292E+02 0.  0.
         12    1    1    2    0    0  0.51715972580E+01 -0.39887445914E+02  0.16305491458E+02  0.43400723628E+02  0.00000000000E+00 0. -1.
         11    1    3    3    0    0  0.11221992268E+01  0.15022268669E+01  0.12247844009E+01  0.22396682241E+01  0.51100000000E-03 0. -1.
        -11    1    3    3    0    0 -0.48653973890E+01  0.19409554256E+02 -0.50914328106E+00  0.20016546038E+02  0.51100000000E-03 0.  1.
         12    1    3    3    0    0 -0.14283990958E+01  0.18975664791E+02 -0.17021132578E+02  0.25531062110E+02  0.00000000000E+00 0. -1.
</event>
<event>
 7    1  0.2599124E-010  0.4778728E+02  0.7816164E-02  0.1312668E+00
        -11   -1    0    0    0    0  0.00000000000E+00  0.00000000000E+00  0.45593999997E+02  0.45594000000E+02  0.51100000000E-03 0. -1.
         11   -1    0    0    0    0 -0.00000000000E+00 -0.00000000000E+00 -0.45593999997E+02  0.45594000000E+02  0.51100000000E-03 0.  1.
    9900012    2    1    2    0    0 -0.15631127746E+01  0.42937149562E+02  0.61302593591E+01  0.47787283256E+02  0.20000055679E+02 0.  0.
         12    1    1    2    0    0  0.15631127746E+01 -0.42937149562E+02 -0.61302593591E+01  0.43400716744E+02  0.00000000000E+00 0. -1.
         11    1    3    3    0    0  0.13600246017E+01  0.17576151703E+00  0.34457499109E+00  0.14139629464E+01  0.51100000000E-03 0. -1.
        -11    1    3    3    0    0 -0.72272462482E+01  0.74711019983E+01  0.23406799048E+01  0.10655009905E+02  0.51100000000E-03 0.  1.
         12    1    3    3    0    0  0.43041088719E+01  0.35290286047E+02  0.34450044632E+01  0.35718310405E+02  0.00000000000E+00 0. -1.
</event>
<event>
 7    1  0.2599124E-010  0.4778722E+02  0.7816164E-02  0.1312668E+00
        -11   -1    0    0    0    0  0.00000000000E+00  0.00000000000E+00  0.45593999997E+02  0.45594000000E+02  0.51100000000E-03 0. -1.
         11   -1    0    0    0    0 -0.00000000000E+00 -0.00000000000E+00 -0.45593999997E+02  0.45594000000E+02  0.51100000000E-03 0.  1.
    9900012    2    1    2    0    0  0.41325565109E+02 -0.13025835912E+02  0.24805039532E+01  0.47787220829E+02  0.19999771046E+02 0.  0.
         12    1    1    2    0    0 -0.41325565109E+02  0.13025835912E+02 -0.24805039532E+01  0.43400779171E+02  0.00000000000E+00 0. -1.
         11    1    3    3    0    0  0.23975146986E+02 -0.94208185139E+01  0.17275997155E+00  0.25760227886E+02  0.51100000000E-03 0. -1.
        -11    1    3    3    0    0  0.15734965983E+02 -0.75317962952E+01  0.61380467316E+00  0.17455482415E+02  0.51100000000E-03 0.  1.
         12    1    3    3    0    0  0.16154521403E+01  0.39267788968E+01  0.16939393085E+01  0.45715105275E+01  0.00000000000E+00 0. -1.
</event>
<event>
 7    1  0.2599124E-010  0.4778728E+02  0.7816164E-02  0.1312668E+00
        -11   -1    0    0    0    0  0.00000000000E+00  0.00000000000E+00  0.45593999997E+02  0.45594000000E+02  0.51100000000E-03 0.  1.
         11   -1    0    0    0    0 -0.00000000000E+00 -0.00000000000E+00 -0.45593999997E+02  0.45594000000E+02  0.51100000000E-03 0. -1.
    9900012    2    1    2    0    0  0.32780028643E+02 -0.23997632480E+02  0.15271085051E+02  0.47787277874E+02  0.20000031139E+02 0.  0.
         12    1    1    2    0    0 -0.32780028643E+02  0.23997632480E+02 -0.15271085051E+02  0.43400722126E+02  0.00000000000E+00 0. -1.
         11    1    3    3    0    0  0.11223169977E+02 -0.31954239480E+01 -0.31067169197E+01  0.12075676744E+02  0.51100000000E-03 0. -1.
        -11    1    3    3    0    0  0.15539187311E+02 -0.12130169362E+02  0.93319660430E+01  0.21810386093E+02  0.51100000000E-03 0.  1.
        -12    1    3    3    0    0  0.60176713545E+01 -0.86720391693E+01  0.90458359274E+01  0.13901215037E+02  0.00000000000E+00 0.  1.
</event>
<event>
 7    1  0.2599124E-010  0.4778727E+02  0.7816164E-02  0.1312668E+00
        -11   -1    0    0    0    0  0.00000000000E+00  0.00000000000E+00  0.45593999997E+02  0.45594000000E+02  0.51100000000E-03 0. -1.
         11   -1    0    0    0    0 -0.00000000000E+00 -0.00000000000E+00 -0.45593999997E+02  0.45594000000E+02  0.51100000000E-03 0.  1.
    9900012    2    1    2    0    0  0.25630608038E+02 -0.78393804571E+01 -0.34135598636E+02  0.47787273640E+02  0.20000011835E+02 0.  0.
         12    1    1    2    0    0 -0.25630608038E+02  0.78393804571E+01  0.34135598636E+02  0.43400726360E+02  0.00000000000E+00 0. -1.
         11    1    3    3    0    0 -0.10906385181E+00  0.39394726277E+01 -0.52840508752E+01  0.65918535649E+01  0.51100000000E-03 0. -1.
        -11    1    3    3    0    0  0.99315899352E+01 -0.31168182365E+01 -0.15880360069E+02  0.18987808476E+02  0.51100000000E-03 0.  1.
         12    1    3    3    0    0  0.15808081955E+02 -0.86620348482E+01 -0.12971187692E+02  0.22207611599E+02  0.00000000000E+00 0. -1.
</event>
<event>
 7    1  0.2599124E-010  0.4778727E+02  0.7816164E-02  0.1312668E+00
        -11   -1    0    0    0    0  0.00000000000E+00  0.00000000000E+00  0.45593999997E+02  0.45594000000E+02  0.51100000000E-03 0.  1.
         11   -1    0    0    0    0 -0.00000000000E+00 -0.00000000000E+00 -0.45593999997E+02  0.45594000000E+02  0.51100000000E-03 0. -1.
    9900012    2    1    2    0    0  0.33012582353E+02  0.27994090857E+02  0.31817977048E+01  0.47787267827E+02  0.19999985331E+02 0.  0.
         12    1    1    2    0    0 -0.33012582353E+02 -0.27994090857E+02 -0.31817977048E+01  0.43400732173E+02  0.00000000000E+00 0. -1.
         11    1    3    3    0    0  0.46786735445E+00  0.25671708486E+01  0.41101625644E+01  0.48685421426E+01  0.51100000000E-03 0. -1.
        -11    1    3    3    0    0  0.13117284009E+02  0.62955083820E+01  0.42660688432E+01  0.15162318728E+02  0.51100000000E-03 0.  1.
         12    1    3    3    0    0  0.19427430989E+02  0.19131411626E+02 -0.51944337028E+01  0.27756406957E+02  0.00000000000E+00 0. -1.
</event>
<event>
 7    1  0.2599124E-010  0.4778727E+02  0.7816164E-02  0.1312668E+00
        -11   -1    0    0    0    0  0.00000000000E+00  0.00000000000E+00  0.45593999997E+02  0.45594000000E+02  0.51100000000E-03 0. -1.
         11   -1    0    0    0    0 -0.00000000000E+00 -0.00000000000E+00 -0.45593999997E+02  0.45594000000E+02  0.51100000000E-03 0.  1.
    9900012    2    1    2    0    0 -0.20691057743E+02 -0.34539730707E+02 -0.16202174052E+02  0.47787270608E+02  0.19999998008E+02 0.  0.
         12    1    1    2    0    0  0.20691057743E+02  0.34539730707E+02  0.16202174052E+02  0.43400729392E+02  0.00000000000E+00 0. -1.
         11    1    3    3    0    0 -0.13860130337E+02 -0.25012996805E+02 -0.10648064248E+02  0.30514496466E+02  0.51100000000E-03 0. -1.
        -11    1    3    3    0    0 -0.17718227039E+01 -0.86925634113E+01 -0.76687129690E+01  0.11726430540E+02  0.51100000000E-03 0.  1.
         12    1    3    3    0    0 -0.50591047018E+01 -0.83417049059E+00  0.21146031653E+01  0.55463436008E+01  0.00000000000E+00 0. -1.
</event>
<event>
 7    1  0.2599124E-010  0.4778727E+02  0.7816164E-02  0.1312668E+00
        -11   -1    0    0    0    0  0.00000000000E+00  0.00000000000E+00  0.45593999997E+02  0.45594000000E+02  0.51100000000E-03 0.  1.
         11   -1    0    0    0    0 -0.00000000000E+00 -0.00000000000E+00 -0.45593999997E+02  0.45594000000E+02  0.51100000000E-03 0. -1.
    9900012    2    1    2    0    0 -0.17627175643E+02 -0.33466969267E+02  0.21280689026E+02  0.47787273295E+02  0.20000010263E+02 0.  0.
         12    1    1    2    0    0  0.17627175643E+02  0.33466969267E+02 -0.21280689026E+02  0.43400726705E+02  0.00000000000E+00 0. -1.
         11    1    3    3    0    0 -0.12951107069E+02 -0.13392528499E+02  0.13525249749E+02  0.23022236532E+02  0.51100000000E-03 0. -1.
        -11    1    3    3    0    0  0.87513552939E+00 -0.53755770093E+01  0.72198662119E+01  0.90437358850E+01  0.51100000000E-03 0.  1.
        -12    1    3    3    0    0 -0.55512041038E+01 -0.14698863759E+02  0.53557306530E+00  0.15721300879E+02  0.00000000000E+00 0.  1.
</event>
<event>
 7    1  0.2599124E-010  0.4778727E+02  0.7816164E-02  0.1312668E+00
        -11   -1    0    0    0    0  0.00000000000E+00  0.00000000000E+00  0.45593999997E+02  0.45594000000E+02  0.51100000000E-03 0.  1.
         11   -1    0    0    0    0 -0.00000000000E+00 -0.00000000000E+00 -0.45593999997E+02  0.45594000000E+02  0.51100000000E-03 0. -1.
    9900012    2    1    2    0    0 -0.41887726067E+01  0.43053866235E+02 -0.35273690617E+01  0.47787267907E+02  0.19999985693E+02 0.  0.
         12    1    1    2    0    0  0.41887726067E+01 -0.43053866235E+02  0.35273690617E+01  0.43400732093E+02  0.00000000000E+00 0. -1.
         11    1    3    3    0    0 -0.37334739748E+01  0.10707993738E+02 -0.52689281332E+01  0.12504461674E+02  0.51100000000E-03 0. -1.
        -11    1    3    3    0    0 -0.29768501789E+01  0.20671215188E+02 -0.51273252833E+01  0.21504656220E+02  0.51100000000E-03 0.  1.
         12    1    3    3    0    0  0.25215515469E+01  0.11674657310E+02  0.68688843548E+01  0.13778150013E+02  0.00000000000E+00 0. -1.
</event>
<event>
 7    1  0.2599124E-010  0.4778727E+02  0.7816164E-02  0.1312668E+00
        -11   -1    0    0    0    0  0.00000000000E+00  0.00000000000E+00  0.45593999997E+02  0.45594000000E+02  0.51100000000E-03 0.  1.
         11   -1    0    0    0    0 -0.00000000000E+00 -0.00000000000E+00 -0.45593999997E+02  0.45594000000E+02  0.51100000000E-03 0. -1.
    9900012    2    1    2    0    0 -0.22993126641E+02 -0.35379026788E+02  0.10161881844E+02  0.47787271299E+02  0.20000001160E+02 0.  0.
         12    1    1    2    0    0  0.22993126641E+02  0.35379026788E+02 -0.10161881844E+02  0.43400728701E+02  0.00000000000E+00 0. -1.
         11    1    3    3    0    0 -0.10623344570E+01 -0.15069736720E+02  0.81697549766E+01  0.17174702790E+02  0.51100000000E-03 0. -1.
        -11    1    3    3    0    0 -0.28202121081E+01 -0.38331092045E+00  0.88803353399E+00  0.29814639718E+01  0.51100000000E-03 0.  1.
        -12    1    3    3    0    0 -0.19110580076E+02 -0.19925979148E+02  0.11040933335E+01  0.27631104537E+02  0.00000000000E+00 0.  1.
</event>
<event>
 7    1  0.2599124E-010  0.4778727E+02  0.7816164E-02  0.1312668E+00
        -11   -1    0    0    0    0  0.00000000000E+00  0.00000000000E+00  0.45593999997E+02  0.45594000000E+02  0.51100000000E-03 0.  1.
         11   -1    0    0    0    0 -0.00000000000E+00 -0.00000000000E+00 -0.45593999997E+02  0.45594000000E+02  0.51100000000E-03 0. -1.
    9900012    2    1    2    0    0 -0.42631914925E+02 -0.59814970394E+01 -0.55104194022E+01  0.47787271907E+02  0.20000003931E+02 0.  0.
         12    1    1    2    0    0  0.42631914925E+02  0.59814970394E+01  0.55104194022E+01  0.43400728093E+02  0.00000000000E+00 0. -1.
         11    1    3    3    0    0 -0.13247428856E+01  0.23586790493E+01 -0.46132099797E+01  0.53478983862E+01  0.51100000000E-03 0. -1.
        -11    1    3    3    0    0 -0.95858100950E+01 -0.11900200281E+01  0.17420406697E+01  0.98152233189E+01  0.51100000000E-03 0.  1.
         12    1    3    3    0    0 -0.31721361945E+02 -0.71501560607E+01 -0.26392500922E+01  0.32624150202E+02  0.00000000000E+00 0. -1.
</event>
<event>
 7    1  0.2599124E-010  0.4778727E+02  0.7816164E-02  0.1312668E+00
        -11   -1    0    0    0    0  0.00000000000E+00  0.00000000000E+00  0.45593999997E+02  0.45594000000E+02  0.51100000000E-03 0.  1.
         11   -1    0    0    0    0 -0.00000000000E+00 -0.00000000000E+00 -0.45593999997E+02  0.45594000000E+02  0.51100000000E-03 0. -1.
    9900012    2    1    2    0    0 -0.33523048446E+02  0.27447181452E+02  0.25457291923E+01  0.47787270929E+02  0.19999999473E+02 0.  0.
         12    1    1    2    0    0  0.33523048446E+02 -0.27447181452E+02 -0.25457291923E+01  0.43400729071E+02  0.00000000000E+00 0. -1.
         11    1    3    3    0    0 -0.83574643446E+01  0.10123380170E+01  0.30627971170E+01  0.89583907580E+01  0.51100000000E-03 0. -1.
        -11    1    3    3    0    0 -0.36681670249E+01 -0.61369547128E+00 -0.20448926767E+01  0.42442499661E+01  0.51100000000E-03 0.  1.
        -12    1    3    3    0    0 -0.21497417077E+02  0.27048538906E+02  0.15278247520E+01  0.34584630205E+02  0.00000000000E+00 0.  1.
</event>
<event>
 7    1  0.2599124E-010  0.4778727E+02  0.7816164E-02  0.1312668E+00
        -11   -1    0    0    0    0  0.00000000000E+00  0.00000000000E+00  0.45593999997E+02  0.45594000000E+02  0.51100000000E-03 0.  1.
         11   -1    0    0    0    0 -0.00000000000E+00 -0.00000000000E+00 -0.45593999997E+02  0.45594000000E+02  0.51100000000E-03 0. -1.
    9900012    2    1    2    0    0  0.30382856004E+02  0.30510911339E+01  0.30841473489E+02  0.47787267483E+02  0.19999983760E+02 0.  0.
         12    1    1    2    0    0 -0.30382856004E+02 -0.30510911339E+01 -0.30841473489E+02  0.43400732517E+02  0.00000000000E+00 0. -1.
         11    1    3    3    0    0  0.89887876894E+01  0.74989891940E+01  0.69697539900E+01  0.13623898634E+02  0.51100000000E-03 0. -1.
        -11    1    3    3    0    0  0.16982254663E+02  0.12983294100E+01  0.14879804288E+02  0.22616171396E+02  0.51100000000E-03 0.  1.
         12    1    3    3    0    0  0.44118136510E+01 -0.57462274701E+01  0.89919152110E+01  0.11547197452E+02  0.00000000000E+00 0. -1.
</event>
<event>
 7    1  0.2599124E-010  0.4778727E+02  0.7816164E-02  0.1312668E+00
        -11   -1    0    0    0    0  0.00000000000E+00  0.00000000000E+00  0.45593999997E+02  0.45594000000E+02  0.51100000000E-03 0.  1.
         11   -1    0    0    0    0 -0.00000000000E+00 -0.00000000000E+00 -0.45593999997E+02  0.45594000000E+02  0.51100000000E-03 0. -1.
    9900012    2    1    2    0    0  0.26167505057E+01  0.20678928959E+02  0.38067811893E+02  0.47787265116E+02  0.19999972972E+02 0.  0.
         12    1    1    2    0    0 -0.26167505057E+01 -0.20678928959E+02 -0.38067811893E+02  0.43400734884E+02  0.00000000000E+00 0. -1.
         11    1    3    3    0    0  0.51724300653E+01  0.15464984012E+01  0.81392572167E+01  0.97669441683E+01  0.51100000000E-03 0. -1.
        -11    1    3    3    0    0  0.19485928921E+01  0.16048279284E+02  0.27804589115E+02  0.32162702907E+02  0.51100000000E-03 0.  1.
         12    1    3    3    0    0 -0.45042724518E+01  0.30841512739E+01  0.21239655622E+01  0.58576180406E+01  0.00000000000E+00 0. -1.
</event>
<event>
 7    1  0.2599124E-010  0.4778727E+02  0.7816164E-02  0.1312668E+00
        -11   -1    0    0    0    0  0.00000000000E+00  0.00000000000E+00  0.45593999997E+02  0.45594000000E+02  0.51100000000E-03 0.  1.
         11   -1    0    0    0    0 -0.00000000000E+00 -0.00000000000E+00 -0.45593999997E+02  0.45594000000E+02  0.51100000000E-03 0. -1.
    9900012    2    1    2    0    0 -0.58096266106E+01 -0.24584742480E+02  0.35291103512E+02  0.47787270614E+02  0.19999998036E+02 0.  0.
         12    1    1    2    0    0  0.58096266106E+01  0.24584742480E+02 -0.35291103512E+02  0.43400729386E+02  0.00000000000E+00 0. -1.
         11    1    3    3    0    0 -0.25281838141E+01 -0.50832906766E+01 -0.28007207088E+00  0.56841884317E+01  0.51100000000E-03 0. -1.
        -11    1    3    3    0    0 -0.17903911359E+01 -0.14473113393E+02  0.15187838708E+02  0.21055805769E+02  0.51100000000E-03 0.  1.
        -12    1    3    3    0    0 -0.14910516605E+01 -0.50283384096E+01  0.20383336875E+02  0.21047276413E+02  0.00000000000E+00 0.  1.
</event>
<event>
 7    1  0.2599124E-010  0.4778728E+02  0.7816164E-02  0.1312668E+00
        -11   -1    0    0    0    0  0.00000000000E+00  0.00000000000E+00  0.45593999997E+02  0.45594000000E+02  0.51100000000E-03 0.  1.
         11   -1    0    0    0    0 -0.00000000000E+00 -0.00000000000E+00 -0.45593999997E+02  0.45594000000E+02  0.51100000000E-03 0. -1.
    9900012    2    1    2    0    0 -0.40685901540E+01  0.38646560234E+02  0.19326480209E+02  0.47787275570E+02  0.20000020635E+02 0.  0.
         12    1    1    2    0    0  0.40685901540E+01 -0.38646560234E+02 -0.19326480209E+02  0.43400724430E+02  0.00000000000E+00 0. -1.
         11    1    3    3    0    0 -0.95292434041E+00  0.39682668040E+01 -0.23708408750E+01  0.47197556020E+01  0.51100000000E-03 0. -1.
        -11    1    3    3    0    0 -0.33028139821E+01  0.37629013709E+01  0.75717219979E+01  0.90773884571E+01  0.51100000000E-03 0.  1.
        -12    1    3    3    0    0  0.18714816855E+00  0.30915392059E+02  0.14125599086E+02  0.33990131511E+02  0.00000000000E+00 0.  1.
</event>
<event>
 7    1  0.2599124E-010  0.4778727E+02  0.7816164E-02  0.1312668E+00
        -11   -1    0    0    0    0  0.00000000000E+00  0.00000000000E+00  0.45593999997E+02  0.45594000000E+02  0.51100000000E-03 0. -1.
         11   -1    0    0    0    0 -0.00000000000E+00 -0.00000000000E+00 -0.45593999997E+02  0.45594000000E+02  0.51100000000E-03 0.  1.
    9900012    2    1    2    0    0 -0.20576075532E+02  0.38073833968E+02  0.32605914025E+01  0.47787272200E+02  0.20000005268E+02 0.  0.
         12    1    1    2    0    0  0.20576075532E+02 -0.38073833968E+02 -0.32605914025E+01  0.43400727800E+02  0.00000000000E+00 0. -1.
         11    1    3    3    0    0 -0.92352224407E+01  0.13188555069E+02 -0.43728691849E+01  0.16683803629E+02  0.51100000000E-03 0. -1.
        -11    1    3    3    0    0 -0.97492040877E+01  0.19765650928E+02  0.32783428956E+00  0.22041674450E+02  0.51100000000E-03 0.  1.
         12    1    3    3    0    0 -0.15916490035E+01  0.51196279701E+01  0.73056262978E+01  0.90617941218E+01  0.00000000000E+00 0. -1.
</event>
<event>
 7    1  0.2599124E-010  0.4778727E+02  0.7816164E-02  0.1312668E+00
        -11   -1    0    0    0    0  0.00000000000E+00  0.00000000000E+00  0.45593999997E+02  0.45594000000E+02  0.51100000000E-03 0.  1.
         11   -1    0    0    0    0 -0.00000000000E+00 -0.00000000000E+00 -0.45593999997E+02  0.45594000000E+02  0.51100000000E-03 0. -1.
    9900012    2    1    2    0    0  0.31118506741E+02 -0.34701713443E+01  0.30053615318E+02  0.47787270229E+02  0.19999996283E+02 0.  0.
         12    1    1    2    0    0 -0.31118506741E+02  0.34701713443E+01 -0.30053615318E+02  0.43400729771E+02  0.00000000000E+00 0. -1.
         11    1    3    3    0    0  0.12792552262E+02  0.38341661692E+01  0.42133577924E+01  0.14003664082E+02  0.51100000000E-03 0. -1.
        -11    1    3    3    0    0  0.58540154970E+01  0.13599859438E+01  0.41419351965E+01  0.72989510644E+01  0.51100000000E-03 0.  1.
        -12    1    3    3    0    0  0.12471938983E+02 -0.86643234574E+01  0.21698322329E+02  0.26484655083E+02  0.00000000000E+00 0.  1.
</event>
<event>
 7    1  0.2599124E-010  0.4778733E+02  0.7816164E-02  0.1312668E+00
        -11   -1    0    0    0    0  0.00000000000E+00  0.00000000000E+00  0.45593999997E+02  0.45594000000E+02  0.51100000000E-03 0.  1.
         11   -1    0    0    0    0 -0.00000000000E+00 -0.00000000000E+00 -0.45593999997E+02  0.45594000000E+02  0.51100000000E-03 0. -1.
    9900012    2    1    2    0    0 -0.13925332320E+01 -0.27969715028E+02  0.33156816023E+02  0.47787325393E+02  0.20000247796E+02 0.  0.
         12    1    1    2    0    0  0.13925332320E+01  0.27969715028E+02 -0.33156816023E+02  0.43400674607E+02  0.00000000000E+00 0. -1.
         11    1    3    3    0    0 -0.38447037840E+01 -0.28983315152E+01  0.21566037956E+01  0.52757002332E+01  0.51100000000E-03 0. -1.
        -11    1    3    3    0    0 -0.34557930565E+01 -0.99388370042E+01  0.20854323762E+02  0.23358634517E+02  0.51100000000E-03 0.  1.
        -12    1    3    3    0    0  0.59079636084E+01 -0.15132546508E+02  0.10145888466E+02  0.19152990643E+02  0.00000000000E+00 0.  1.
</event>
<event>
 7    1  0.2599124E-010  0.4778727E+02  0.7816164E-02  0.1312668E+00
        -11   -1    0    0    0    0  0.00000000000E+00  0.00000000000E+00  0.45593999997E+02  0.45594000000E+02  0.51100000000E-03 0.  1.
         11   -1    0    0    0    0 -0.00000000000E+00 -0.00000000000E+00 -0.45593999997E+02  0.45594000000E+02  0.51100000000E-03 0. -1.
    9900012    2    1    2    0    0 -0.10254046599E+01 -0.69088311552E+00  0.43383112900E+02  0.47787271215E+02  0.20000000777E+02 0.  0.
         12    1    1    2    0    0  0.10254046599E+01  0.69088311552E+00 -0.43383112900E+02  0.43400728785E+02  0.00000000000E+00 0. -1.
         11    1    3    3    0    0 -0.58069505953E-01 -0.22139111768E+01  0.26034264781E+02  0.26128293433E+02  0.51100000000E-03 0. -1.
        -11    1    3    3    0    0  0.43142661205E+01 -0.34779577652E+01  0.91638677997E+01  0.10709134217E+02  0.51100000000E-03 0.  1.
         12    1    3    3    0    0 -0.52816012745E+01  0.50009858264E+01  0.81849803190E+01  0.10949843564E+02  0.00000000000E+00 0. -1.
</event>
<event>
 7    1  0.2599124E-010  0.4778727E+02  0.7816164E-02  0.1312668E+00
        -11   -1    0    0    0    0  0.00000000000E+00  0.00000000000E+00  0.45593999997E+02  0.45594000000E+02  0.51100000000E-03 0.  1.
         11   -1    0    0    0    0 -0.00000000000E+00 -0.00000000000E+00 -0.45593999997E+02  0.45594000000E+02  0.51100000000E-03 0. -1.
    9900012    2    1    2    0    0  0.33641475561E+02 -0.89391926931E+01  0.25922288520E+02  0.47787273209E+02  0.20000009868E+02 0.  0.
         12    1    1    2    0    0 -0.33641475561E+02  0.89391926931E+01 -0.25922288520E+02  0.43400726791E+02  0.00000000000E+00 0. -1.
         11    1    3    3    0    0  0.12530176017E+02 -0.66490384842E+01  0.17912356140E+02  0.22848797048E+02  0.51100000000E-03 0. -1.
        -11    1    3    3    0    0  0.14231006091E+02 -0.35892828195E+01  0.98785772877E+01  0.17691545297E+02  0.51100000000E-03 0.  1.
         12    1    3    3    0    0  0.68802934532E+01  0.12991286106E+01 -0.18686449082E+01  0.72469308636E+01  0.00000000000E+00 0. -1.
</event>
<event>
 7    1  0.2599124E-010  0.4778726E+02  0.7816164E-02  0.1312668E+00
        -11   -1    0    0    0    0  0.00000000000E+00  0.00000000000E+00  0.45593999997E+02  0.45594000000E+02  0.51100000000E-03 0.  1.
         11   -1    0    0    0    0 -0.00000000000E+00 -0.00000000000E+00 -0.45593999997E+02  0.45594000000E+02  0.51100000000E-03 0. -1.
    9900012    2    1    2    0    0 -0.27548496605E+02 -0.33524327420E+02 -0.90758347858E+00  0.47787263809E+02  0.19999967011E+02 0.  0.
         12    1    1    2    0    0  0.27548496605E+02  0.33524327420E+02  0.90758347858E+00  0.43400736191E+02  0.00000000000E+00 0. -1.
         11    1    3    3    0    0 -0.21297024595E+02 -0.32053949713E+02  0.69108876048E+00  0.38490213727E+02  0.51100000000E-03 0.  1.
        -11    1    3    3    0    0  0.91619124325E+00 -0.16936863028E+01  0.97374451634E-01  0.19280720244E+01  0.51100000000E-03 0. -1.
        -12    1    3    3    0    0 -0.71676632529E+01  0.22330859621E+00 -0.16960466907E+01  0.73689780576E+01  0.00000000000E+00 0.  1.
</event>
<event>
 7    1  0.2599124E-010  0.4778727E+02  0.7816164E-02  0.1312668E+00
        -11   -1    0    0    0    0  0.00000000000E+00  0.00000000000E+00  0.45593999997E+02  0.45594000000E+02  0.51100000000E-03 0.  1.
         11   -1    0    0    0    0 -0.00000000000E+00 -0.00000000000E+00 -0.45593999997E+02  0.45594000000E+02  0.51100000000E-03 0. -1.
    9900012    2    1    2    0    0 -0.50157469910E+01 -0.29246681757E+02  0.31671705622E+02  0.47787273639E+02  0.20000011831E+02 0.  0.
         12    1    1    2    0    0  0.50157469910E+01  0.29246681757E+02 -0.31671705622E+02  0.43400726361E+02  0.00000000000E+00 0. -1.
         11    1    3    3    0    0  0.15735248537E+01 -0.14447233361E+02  0.11598385601E+02  0.18593576339E+02  0.51100000000E-03 0. -1.
        -11    1    3    3    0    0 -0.74272602999E+01 -0.11008561512E+02  0.59596144006E+01  0.14555742035E+02  0.51100000000E-03 0.  1.
         12    1    3    3    0    0  0.83798845528E+00 -0.37908868831E+01  0.14113705620E+02  0.14637955265E+02  0.00000000000E+00 0. -1.
</event>
<event>
 7    1  0.2599124E-010  0.4778723E+02  0.7816164E-02  0.1312668E+00
        -11   -1    0    0    0    0  0.00000000000E+00  0.00000000000E+00  0.45593999997E+02  0.45594000000E+02  0.51100000000E-03 0.  1.
         11   -1    0    0    0    0 -0.00000000000E+00 -0.00000000000E+00 -0.45593999997E+02  0.45594000000E+02  0.51100000000E-03 0. -1.
    9900012    2    1    2    0    0 -0.38697432531E+02 -0.10827805254E+02  0.16397999567E+02  0.47787227647E+02  0.19999802131E+02 0.  0.
         12    1    1    2    0    0  0.38697432531E+02  0.10827805254E+02 -0.16397999567E+02  0.43400772353E+02  0.00000000000E+00 0. -1.
         11    1    3    3    0    0 -0.32773698202E+02 -0.88490372345E+01  0.51408107394E+01  0.34334366007E+02  0.51100000000E-03 0.  1.
        -11    1    3    3    0    0 -0.25493498657E+01  0.98497148182E+00  0.30360068871E+01  0.40849347164E+01  0.51100000000E-03 0. -1.
        -12    1    3    3    0    0 -0.33743844631E+01 -0.29637395010E+01  0.82211819403E+01  0.93679269227E+01  0.00000000000E+00 0.  1.
</event>
<event>
 7    1  0.2599124E-010  0.4778728E+02  0.7816164E-02  0.1312668E+00
        -11   -1    0    0    0    0  0.00000000000E+00  0.00000000000E+00  0.45593999997E+02  0.45594000000E+02  0.51100000000E-03 0.  1.
         11   -1    0    0    0    0 -0.00000000000E+00 -0.00000000000E+00 -0.45593999997E+02  0.45594000000E+02  0.51100000000E-03 0. -1.
    9900012    2    1    2    0    0  0.59712683541E+01  0.13941563056E+02  0.40664474416E+02  0.47787277590E+02  0.20000029844E+02 0.  0.
         12    1    1    2    0    0 -0.59712683541E+01 -0.13941563056E+02 -0.40664474416E+02  0.43400722410E+02  0.00000000000E+00 0. -1.
         11    1    3    3    0    0 -0.62472074776E+00  0.76768663090E+01  0.15682849418E+02  0.17472158380E+02  0.51100000000E-03 0. -1.
        -11    1    3    3    0    0  0.78322996052E+01  0.10307552309E+02  0.18805184837E+02  0.22830364183E+02  0.51100000000E-03 0.  1.
         12    1    3    3    0    0 -0.12363105034E+01 -0.40428555616E+01  0.61764401613E+01  0.74847550273E+01  0.00000000000E+00 0. -1.
</event>
<event>
 7    1  0.2599124E-010  0.4778727E+02  0.7816164E-02  0.1312668E+00
        -11   -1    0    0    0    0  0.00000000000E+00  0.00000000000E+00  0.45593999997E+02  0.45594000000E+02  0.51100000000E-03 0.  1.
         11   -1    0    0    0    0 -0.00000000000E+00 -0.00000000000E+00 -0.45593999997E+02  0.45594000000E+02  0.51100000000E-03 0. -1.
    9900012    2    1    2    0    0  0.38812629037E+02 -0.18788867477E+02  0.49174709738E+01  0.47787271497E+02  0.20000002063E+02 0.  0.
         12    1    1    2    0    0 -0.38812629037E+02  0.18788867477E+02 -0.49174709738E+01  0.43400728503E+02  0.00000000000E+00 0. -1.
         11    1    3    3    0    0  0.67836966769E+01  0.12808971873E+01  0.19518832471E+01  0.71741958908E+01  0.51100000000E-03 0. -1.
        -11    1    3    3    0    0  0.14154222402E+02 -0.55770861207E+01  0.78038820464E+01  0.17098142492E+02  0.51100000000E-03 0.  1.
         12    1    3    3    0    0  0.17874709958E+02 -0.14492678544E+02 -0.48382943197E+01  0.23514933115E+02  0.00000000000E+00 0. -1.
</event>
<event>
 7    1  0.2599124E-010  0.4778727E+02  0.7816164E-02  0.1312668E+00
        -11   -1    0    0    0    0  0.00000000000E+00  0.00000000000E+00  0.45593999997E+02  0.45594000000E+02  0.51100000000E-03 0. -1.
         11   -1    0    0    0    0 -0.00000000000E+00 -0.00000000000E+00 -0.45593999997E+02  0.45594000000E+02  0.51100000000E-03 0.  1.
    9900012    2    1    2    0    0  0.15740749812E+02 -0.36415751369E+02  0.17599571606E+02  0.47787273357E+02  0.20000010543E+02 0.  0.
         12    1    1    2    0    0 -0.15740749812E+02  0.36415751369E+02 -0.17599571606E+02  0.43400726643E+02  0.00000000000E+00 0. -1.
         11    1    3    3    0    0  0.21659520013E+01  0.96658926080E+00 -0.35925232456E-01  0.23721158813E+01  0.51100000000E-03 0. -1.
        -11    1    3    3    0    0  0.69515398960E+01 -0.30186600219E+02  0.87180931835E+01  0.32180116356E+02  0.51100000000E-03 0.  1.
        -12    1    3    3    0    0  0.66232579152E+01 -0.71957404111E+01  0.89174036552E+01  0.13235041119E+02  0.00000000000E+00 0.  1.
</event>
<event>
 7    1  0.2599124E-010  0.4778727E+02  0.7816164E-02  0.1312668E+00
        -11   -1    0    0    0    0  0.00000000000E+00  0.00000000000E+00  0.45593999997E+02  0.45594000000E+02  0.51100000000E-03 0.  1.
         11   -1    0    0    0    0 -0.00000000000E+00 -0.00000000000E+00 -0.45593999997E+02  0.45594000000E+02  0.51100000000E-03 0. -1.
    9900012    2    1    2    0    0  0.40398116917E+01  0.42261468532E+02  0.90150679031E+01  0.47787271316E+02  0.20000001238E+02 0.  0.
         12    1    1    2    0    0 -0.40398116917E+01 -0.42261468532E+02 -0.90150679031E+01  0.43400728684E+02  0.00000000000E+00 0. -1.
         11    1    3    3    0    0 -0.21601027453E+01  0.52256791303E+00  0.21887947217E+01  0.31192857658E+01  0.51100000000E-03 0. -1.
        -11    1    3    3    0    0 -0.38144132927E+01  0.94971827566E+01  0.31441948449E+01  0.10706642357E+02  0.51100000000E-03 0.  1.
        -12    1    3    3    0    0  0.10014327730E+02  0.32241717863E+02  0.36820783365E+01  0.33961343193E+02  0.00000000000E+00 0.  1.
</event>
<event>
 7    1  0.2599124E-010  0.4778727E+02  0.7816164E-02  0.1312668E+00
        -11   -1    0    0    0    0  0.00000000000E+00  0.00000000000E+00  0.45593999997E+02  0.45594000000E+02  0.51100000000E-03 0. -1.
         11   -1    0    0    0    0 -0.00000000000E+00 -0.00000000000E+00 -0.45593999997E+02  0.45594000000E+02  0.51100000000E-03 0.  1.
    9900012    2    1    2    0    0  0.28023308011E+02  0.58513953198E+01 -0.32620226493E+02  0.47787265034E+02  0.19999972598E+02 0.  0.
         12    1    1    2    0    0 -0.28023308011E+02 -0.58513953198E+01  0.32620226493E+02  0.43400734966E+02  0.00000000000E+00 0. -1.
         11    1    3    3    0    0  0.54889497319E+01 -0.40019930939E+01 -0.76630909202E+01  0.10240482440E+02  0.51100000000E-03 0. -1.
        -11    1    3    3    0    0 -0.18372488656E+01  0.36244186130E+00 -0.12921158598E+01  0.22751727744E+01  0.51100000000E-03 0.  1.
        -12    1    3    3    0    0  0.24371607145E+02  0.94909465524E+01 -0.23665019713E+02  0.35271609820E+02  0.00000000000E+00 0.  1.
</event>
<event>
 7    1  0.2599124E-010  0.4778727E+02  0.7816164E-02  0.1312668E+00
        -11   -1    0    0    0    0  0.00000000000E+00  0.00000000000E+00  0.45593999997E+02  0.45594000000E+02  0.51100000000E-03 0.  1.
         11   -1    0    0    0    0 -0.00000000000E+00 -0.00000000000E+00 -0.45593999997E+02  0.45594000000E+02  0.51100000000E-03 0. -1.
    9900012    2    1    2    0    0 -0.63914942573E+01 -0.16248568969E+02  0.39733569495E+02  0.47787265707E+02  0.19999975664E+02 0.  0.
         12    1    1    2    0    0  0.63914942573E+01  0.16248568969E+02 -0.39733569495E+02  0.43400734293E+02  0.00000000000E+00 0. -1.
         11    1    3    3    0    0  0.87970519051E+00  0.82655788701E+00  0.97683252007E+01  0.98426244798E+01  0.51100000000E-03 0. -1.
        -11    1    3    3    0    0  0.24360333463E+01 -0.54139287445E-01  0.39046856364E+00  0.24677227330E+01  0.51100000000E-03 0.  1.
        -12    1    3    3    0    0 -0.97072327941E+01 -0.17020987568E+02  0.29574775731E+02  0.35476918494E+02  0.00000000000E+00 0.  1.
</event>
<event>
 7    1  0.2599124E-010  0.4778727E+02  0.7816164E-02  0.1312668E+00
        -11   -1    0    0    0    0  0.00000000000E+00  0.00000000000E+00  0.45593999997E+02  0.45594000000E+02  0.51100000000E-03 0.  1.
         11   -1    0    0    0    0 -0.00000000000E+00 -0.00000000000E+00 -0.45593999997E+02  0.45594000000E+02  0.51100000000E-03 0. -1.
    9900012    2    1    2    0    0 -0.32093679372E+02  0.21935780121E+02  0.19298732289E+02  0.47787265293E+02  0.19999973776E+02 0.  0.
         12    1    1    2    0    0  0.32093679372E+02 -0.21935780121E+02 -0.19298732289E+02  0.43400734707E+02  0.00000000000E+00 0. -1.
         11    1    3    3    0    0 -0.70758825807E+01  0.47837359809E+01  0.55082385637E+01  0.10163313267E+02  0.51100000000E-03 0. -1.
        -11    1    3    3    0    0 -0.25102957915E+02  0.87239064831E+01  0.10332599199E+02  0.28513639664E+02  0.51100000000E-03 0.  1.
         12    1    3    3    0    0  0.85161123297E-01  0.84281376566E+01  0.34578945264E+01  0.91103123619E+01  0.00000000000E+00 0. -1.
</event>
<event>
 7    1  0.2599124E-010  0.4778727E+02  0.7816164E-02  0.1312668E+00
        -11   -1    0    0    0    0  0.00000000000E+00  0.00000000000E+00  0.45593999997E+02  0.45594000000E+02  0.51100000000E-03 0. -1.
         11   -1    0    0    0    0 -0.00000000000E+00 -0.00000000000E+00 -0.45593999997E+02  0.45594000000E+02  0.51100000000E-03 0.  1.
    9900012    2    1    2    0    0  0.22322129079E+02  0.28567830158E+02 -0.23858435232E+02  0.47787270763E+02  0.19999998717E+02 0.  0.
         12    1    1    2    0    0 -0.22322129079E+02 -0.28567830158E+02  0.23858435232E+02  0.43400729237E+02  0.00000000000E+00 0. -1.
         11    1    3    3    0    0 -0.16492667758E+01  0.53269821792E+01 -0.23566256388E+01  0.60539660304E+01  0.51100000000E-03 0. -1.
        -11    1    3    3    0    0  0.33071683096E+00  0.43832214884E+01 -0.68281380066E+01  0.81206818148E+01  0.51100000000E-03 0.  1.
        -12    1    3    3    0    0  0.23640679024E+02  0.18857626491E+02 -0.14673671587E+02  0.33612622918E+02  0.00000000000E+00 0.  1.
</event>
<event>
 7    1  0.2599124E-010  0.4778727E+02  0.7816164E-02  0.1312668E+00
        -11   -1    0    0    0    0  0.00000000000E+00  0.00000000000E+00  0.45593999997E+02  0.45594000000E+02  0.51100000000E-03 0.  1.
         11   -1    0    0    0    0 -0.00000000000E+00 -0.00000000000E+00 -0.45593999997E+02  0.45594000000E+02  0.51100000000E-03 0. -1.
    9900012    2    1    2    0    0  0.18902748038E+02 -0.19283900580E+02  0.33977063937E+02  0.47787267532E+02  0.19999983987E+02 0.  0.
         12    1    1    2    0    0 -0.18902748038E+02  0.19283900580E+02 -0.33977063937E+02  0.43400732468E+02  0.00000000000E+00 0. -1.
         11    1    3    3    0    0  0.24689414299E+01 -0.18405087611E+00  0.10774537409E+01  0.27000839495E+01  0.51100000000E-03 0. -1.
        -11    1    3    3    0    0  0.15051739298E+02 -0.19167328897E+02  0.34953361698E+02  0.42610783227E+02  0.51100000000E-03 0.  1.
        -12    1    3    3    0    0  0.13820673102E+01  0.67479193195E-01 -0.20537515022E+01  0.24764003562E+01  0.00000000000E+00 0.  1.
</event>
<event>
 7    1  0.2599124E-010  0.4778728E+02  0.7816164E-02  0.1312668E+00
        -11   -1    0    0    0    0  0.00000000000E+00  0.00000000000E+00  0.45593999997E+02  0.45594000000E+02  0.51100000000E-03 0.  1.
         11   -1    0    0    0    0 -0.00000000000E+00 -0.00000000000E+00 -0.45593999997E+02  0.45594000000E+02  0.51100000000E-03 0. -1.
    9900012    2    1    2    0    0  0.99949141793E+01 -0.30005035696E+02  0.29722419353E+02  0.47787277785E+02  0.20000030734E+02 0.  0.
         12    1    1    2    0    0 -0.99949141793E+01  0.30005035696E+02 -0.29722419353E+02  0.43400722215E+02  0.00000000000E+00 0. -1.
         11    1    3    3    0    0  0.40261298936E+01 -0.12818677896E+02  0.74671298305E+01  0.15371605417E+02  0.51100000000E-03 0.  1.
        -11    1    3    3    0    0 -0.25229225638E+01 -0.10417528526E+01 -0.95780691170E+00  0.28927118091E+01  0.51100000000E-03 0. -1.
         12    1    3    3    0    0  0.84917068496E+01 -0.16144604948E+02  0.23213096434E+02  0.29522960560E+02  0.00000000000E+00 0. -1.
</event>
<event>
 7    1  0.2599124E-010  0.4778727E+02  0.7816164E-02  0.1312668E+00
        -11   -1    0    0    0    0  0.00000000000E+00  0.00000000000E+00  0.45593999997E+02  0.45594000000E+02  0.51100000000E-03 0.  1.
         11   -1    0    0    0    0 -0.00000000000E+00 -0.00000000000E+00 -0.45593999997E+02  0.45594000000E+02  0.51100000000E-03 0. -1.
    9900012    2    1    2    0    0 -0.79764697448E+01 -0.37206138879E+01  0.42498893525E+02  0.47787274336E+02  0.20000015008E+02 0.  0.
         12    1    1    2    0    0  0.79764697448E+01  0.37206138879E+01 -0.42498893525E+02  0.43400725664E+02  0.00000000000E+00 0. -1.
         11    1    3    3    0    0  0.21652268814E+01  0.95356423542E+00  0.32084383974E+01  0.39864231349E+01  0.51100000000E-03 0. -1.
        -11    1    3    3    0    0 -0.76753578412E+01 -0.34617206048E+01  0.40069281263E+02  0.40944376033E+02  0.51100000000E-03 0.  1.
         12    1    3    3    0    0 -0.24663387850E+01 -0.12124575185E+01 -0.77882613551E+00  0.28564751681E+01  0.00000000000E+00 0. -1.
</event>
<event>
 7    1  0.2599124E-010  0.4778727E+02  0.7816164E-02  0.1312668E+00
        -11   -1    0    0    0    0  0.00000000000E+00  0.00000000000E+00  0.45593999997E+02  0.45594000000E+02  0.51100000000E-03 0.  1.
         11   -1    0    0    0    0 -0.00000000000E+00 -0.00000000000E+00 -0.45593999997E+02  0.45594000000E+02  0.51100000000E-03 0. -1.
    9900012    2    1    2    0    0 -0.18760040779E+02 -0.11439452331E+02  0.37427572660E+02  0.47787269650E+02  0.19999993642E+02 0.  0.
         12    1    1    2    0    0  0.18760040779E+02  0.11439452331E+02 -0.37427572660E+02  0.43400730350E+02  0.00000000000E+00 0. -1.
         11    1    3    3    0    0  0.21479147973E+01 -0.62756147304E+01  0.84553946374E+01  0.10746654221E+02  0.51100000000E-03 0. -1.
        -11    1    3    3    0    0 -0.10741804792E+02 -0.47085574435E+01  0.21228741487E+02  0.24253171932E+02  0.51100000000E-03 0.  1.
        -12    1    3    3    0    0 -0.10166150784E+02 -0.45528015685E+00  0.77434365365E+01  0.12787443497E+02  0.00000000000E+00 0.  1.
</event>
<event>
 7    1  0.2599124E-010  0.4778726E+02  0.7816164E-02  0.1312668E+00
        -11   -1    0    0    0    0  0.00000000000E+00  0.00000000000E+00  0.45593999997E+02  0.45594000000E+02  0.51100000000E-03 0. -1.
         11   -1    0    0    0    0 -0.00000000000E+00 -0.00000000000E+00 -0.45593999997E+02  0.45594000000E+02  0.51100000000E-03 0.  1.
    9900012    2    1    2    0    0 -0.29099957895E+02  0.31907412455E+02 -0.43282732783E+01  0.47787257280E+02  0.19999937243E+02 0.  0.
         12    1    1    2    0    0  0.29099957895E+02 -0.31907412455E+02  0.43282732783E+01  0.43400742720E+02  0.00000000000E+00 0. -1.
         11    1    3    3    0    0 -0.48371120473E+01  0.40679865030E+01  0.11415656470E+01  0.64225648719E+01  0.51100000000E-03 0. -1.
        -11    1    3    3    0    0 -0.20392460712E+02  0.26553842711E+02 -0.10313033429E+02  0.35033094002E+02  0.51100000000E-03 0.  1.
        -12    1    3    3    0    0 -0.38703851358E+01  0.12855832410E+01  0.48431945039E+01  0.63315984057E+01  0.00000000000E+00 0.  1.
</event>
<event>
 7    1  0.2599124E-010  0.4778728E+02  0.7816164E-02  0.1312668E+00
        -11   -1    0    0    0    0  0.00000000000E+00  0.00000000000E+00  0.45593999997E+02  0.45594000000E+02  0.51100000000E-03 0.  1.
         11   -1    0    0    0    0 -0.00000000000E+00 -0.00000000000E+00 -0.45593999997E+02  0.45594000000E+02  0.51100000000E-03 0. -1.
    9900012    2    1    2    0    0  0.38165987914E+01  0.42675819046E+02 -0.69159757387E+01  0.47787277909E+02  0.20000031297E+02 0.  0.
         12    1    1    2    0    0 -0.38165987914E+01 -0.42675819046E+02  0.69159757387E+01  0.43400722091E+02  0.00000000000E+00 0. -1.
         11    1    3    3    0    0 -0.15763588654E+01  0.67665722625E+01 -0.29893998957E+01  0.75635917033E+01  0.51100000000E-03 0. -1.
        -11    1    3    3    0    0  0.10779948133E+02  0.17433189449E+02 -0.44365398781E+01  0.20971558417E+02  0.51100000000E-03 0.  1.
        -12    1    3    3    0    0 -0.53869904763E+01  0.18476057335E+02  0.50996403514E+00  0.19252127788E+02  0.00000000000E+00 0.  1.
</event>
<event>
 7    1  0.2599124E-010  0.4778727E+02  0.7816164E-02  0.1312668E+00
        -11   -1    0    0    0    0  0.00000000000E+00  0.00000000000E+00  0.45593999997E+02  0.45594000000E+02  0.51100000000E-03 0.  1.
         11   -1    0    0    0    0 -0.00000000000E+00 -0.00000000000E+00 -0.45593999997E+02  0.45594000000E+02  0.51100000000E-03 0. -1.
    9900012    2    1    2    0    0  0.10660910495E+02 -0.70921269251E+00  0.42065009549E+02  0.47787273928E+02  0.20000013148E+02 0.  0.
         12    1    1    2    0    0 -0.10660910495E+02  0.70921269251E+00 -0.42065009549E+02  0.43400726072E+02  0.00000000000E+00 0. -1.
         11    1    3    3    0    0  0.10258711132E+02  0.56457900902E+01  0.16625950358E+02  0.20335641750E+02  0.51100000000E-03 0. -1.
        -11    1    3    3    0    0  0.41551775852E+01 -0.28058125707E+01  0.10297300983E+02  0.11453056044E+02  0.51100000000E-03 0.  1.
        -12    1    3    3    0    0 -0.37529782221E+01 -0.35491902121E+01  0.15141758208E+02  0.15998576134E+02  0.00000000000E+00 0.  1.
</event>
<event>
 7    1  0.2599124E-010  0.4778727E+02  0.7816164E-02  0.1312668E+00
        -11   -1    0    0    0    0  0.00000000000E+00  0.00000000000E+00  0.45593999997E+02  0.45594000000E+02  0.51100000000E-03 0.  1.
         11   -1    0    0    0    0 -0.00000000000E+00 -0.00000000000E+00 -0.45593999997E+02  0.45594000000E+02  0.51100000000E-03 0. -1.
    9900012    2    1    2    0    0  0.40130657223E+02  0.99365672709E+01  0.13206748631E+02  0.47787271577E+02  0.20000002426E+02 0.  0.
         12    1    1    2    0    0 -0.40130657223E+02 -0.99365672709E+01 -0.13206748631E+02  0.43400728423E+02  0.00000000000E+00 0. -1.
         11    1    3    3    0    0  0.51871183417E+01  0.56213763151E+01  0.10959992228E+01  0.77270487849E+01  0.51100000000E-03 0. -1.
        -11    1    3    3    0    0  0.90773088824E+01  0.73213005619E+01  0.86046343703E+00  0.11693561307E+02  0.51100000000E-03 0.  1.
         12    1    3    3    0    0  0.25866229999E+02 -0.30061096061E+01  0.11250285971E+02  0.28366661484E+02  0.00000000000E+00 0. -1.
</event>
<event>
 7    1  0.2599124E-010  0.4778726E+02  0.7816164E-02  0.1312668E+00
        -11   -1    0    0    0    0  0.00000000000E+00  0.00000000000E+00  0.45593999997E+02  0.45594000000E+02  0.51100000000E-03 0. -1.
         11   -1    0    0    0    0 -0.00000000000E+00 -0.00000000000E+00 -0.45593999997E+02  0.45594000000E+02  0.51100000000E-03 0.  1.
    9900012    2    1    2    0    0  0.26983584019E+02  0.23958397006E+02 -0.24114427609E+02  0.47787260231E+02  0.19999950696E+02 0.  0.
         12    1    1    2    0    0 -0.26983584019E+02 -0.23958397006E+02  0.24114427609E+02  0.43400739769E+02  0.00000000000E+00 0. -1.
         11    1    3    3    0    0  0.12778595011E+02 -0.47895496531E+00 -0.78653443879E+01  0.15012845530E+02  0.51100000000E-03 0. -1.
        -11    1    3    3    0    0  0.57565826374E+01  0.74924908638E+01 -0.42669697062E+01  0.10367386061E+02  0.51100000000E-03 0.  1.
         12    1    3    3    0    0  0.84484063708E+01  0.16944861108E+02 -0.11982113514E+02  0.22407028639E+02  0.00000000000E+00 0. -1.
</event>
<event>
 7    1  0.2599124E-010  0.4778726E+02  0.7816164E-02  0.1312668E+00
        -11   -1    0    0    0    0  0.00000000000E+00  0.00000000000E+00  0.45593999997E+02  0.45594000000E+02  0.51100000000E-03 0. -1.
         11   -1    0    0    0    0 -0.00000000000E+00 -0.00000000000E+00 -0.45593999997E+02  0.45594000000E+02  0.51100000000E-03 0.  1.
    9900012    2    1    2    0    0  0.10907529892E+02  0.21310323914E+02 -0.36201103786E+02  0.47787262345E+02  0.19999960335E+02 0.  0.
         12    1    1    2    0    0 -0.10907529892E+02 -0.21310323914E+02  0.36201103786E+02  0.43400737655E+02  0.00000000000E+00 0. -1.
         11    1    3    3    0    0  0.22728842996E+01 -0.24546288719E+01 -0.52390152874E+01  0.62159864367E+01  0.51100000000E-03 0. -1.
        -11    1    3    3    0    0  0.74465668821E+01  0.54521989079E+01 -0.12523463870E+02  0.15556830617E+02  0.51100000000E-03 0.  1.
        -12    1    3    3    0    0  0.11880787099E+01  0.18312753878E+02 -0.18438624629E+02  0.26014445291E+02  0.00000000000E+00 0.  1.
</event>
<event>
 7    1  0.2599124E-010  0.4778725E+02  0.7816164E-02  0.1312668E+00
        -11   -1    0    0    0    0  0.00000000000E+00  0.00000000000E+00  0.45593999997E+02  0.45594000000E+02  0.51100000000E-03 0.  1.
         11   -1    0    0    0    0 -0.00000000000E+00 -0.00000000000E+00 -0.45593999997E+02  0.45594000000E+02  0.51100000000E-03 0. -1.
    9900012    2    1    2    0    0  0.68028799878E-01 -0.12676846134E+02  0.41508051150E+02  0.47787246941E+02  0.19999890101E+02 0.  0.
         12    1    1    2    0    0 -0.68028799878E-01  0.12676846134E+02 -0.41508051150E+02  0.43400753059E+02  0.00000000000E+00 0. -1.
         11    1    3    3    0    0 -0.19523229656E+01 -0.20571256225E+01  0.11557104498E+01  0.30625149295E+01  0.51100000000E-03 0. -1.
        -11    1    3    3    0    0  0.73781112319E+01 -0.11171198327E+02  0.23661422258E+02  0.27186303554E+02  0.51100000000E-03 0.  1.
        -12    1    3    3    0    0 -0.53577594664E+01  0.55147781589E+00  0.16690918442E+02  0.17538428457E+02  0.00000000000E+00 0.  1.
</event>
<event>
 7    1  0.2599124E-010  0.4778727E+02  0.7816164E-02  0.1312668E+00
        -11   -1    0    0    0    0  0.00000000000E+00  0.00000000000E+00  0.45593999997E+02  0.45594000000E+02  0.51100000000E-03 0.  1.
         11   -1    0    0    0    0 -0.00000000000E+00 -0.00000000000E+00 -0.45593999997E+02  0.45594000000E+02  0.51100000000E-03 0. -1.
    9900012    2    1    2    0    0 -0.18534808307E+02 -0.11526252647E+02  0.37513058114E+02  0.47787272493E+02  0.20000006605E+02 0.  0.
         12    1    1    2    0    0  0.18534808307E+02  0.11526252647E+02 -0.37513058114E+02  0.43400727507E+02  0.00000000000E+00 0. -1.
         11    1    3    3    0    0 -0.26469251935E+01  0.12738154564E+01  0.14973736043E+02  0.15259147753E+02  0.51100000000E-03 0. -1.
        -11    1    3    3    0    0  0.77628538314E+00  0.10595598148E+01  0.80101866882E-01  0.13159417037E+01  0.51100000000E-03 0.  1.
         12    1    3    3    0    0 -0.16664168496E+02 -0.13859627918E+02  0.22459220204E+02  0.31212183036E+02  0.00000000000E+00 0. -1.
</event>
<event>
 7    1  0.2599124E-010  0.4778727E+02  0.7816164E-02  0.1312668E+00
        -11   -1    0    0    0    0  0.00000000000E+00  0.00000000000E+00  0.45593999997E+02  0.45594000000E+02  0.51100000000E-03 0. -1.
         11   -1    0    0    0    0 -0.00000000000E+00 -0.00000000000E+00 -0.45593999997E+02  0.45594000000E+02  0.51100000000E-03 0.  1.
    9900012    2    1    2    0    0 -0.17704920041E+02  0.13441183351E+02 -0.37275911305E+02  0.47787272274E+02  0.20000005606E+02 0.  0.
         12    1    1    2    0    0  0.17704920041E+02 -0.13441183351E+02  0.37275911305E+02  0.43400727726E+02  0.00000000000E+00 0. -1.
         11    1    3    3    0    0 -0.62679135139E+01 -0.80736452349E+00 -0.11778269716E+02  0.13366608210E+02  0.51100000000E-03 0. -1.
        -11    1    3    3    0    0 -0.73718872757E+01  0.44591543844E+00 -0.14631736798E+02  0.16389975125E+02  0.51100000000E-03 0.  1.
        -12    1    3    3    0    0 -0.40651192513E+01  0.13802632436E+02 -0.10865904791E+02  0.18030688939E+02  0.00000000000E+00 0.  1.
</event>
<event>
 7    1  0.2599124E-010  0.4778727E+02  0.7816164E-02  0.1312668E+00
        -11   -1    0    0    0    0  0.00000000000E+00  0.00000000000E+00  0.45593999997E+02  0.45594000000E+02  0.51100000000E-03 0.  1.
         11   -1    0    0    0    0 -0.00000000000E+00 -0.00000000000E+00 -0.45593999997E+02  0.45594000000E+02  0.51100000000E-03 0. -1.
    9900012    2    1    2    0    0 -0.77115242369E+01 -0.20545675143E+02  0.37443702508E+02  0.47787271542E+02  0.20000002270E+02 0.  0.
         12    1    1    2    0    0  0.77115242369E+01  0.20545675143E+02 -0.37443702508E+02  0.43400728458E+02  0.00000000000E+00 0. -1.
         11    1    3    3    0    0 -0.69810798707E+01 -0.37622887691E+01  0.86821106201E+01  0.11758798324E+02  0.51100000000E-03 0. -1.
        -11    1    3    3    0    0 -0.61390906318E+01 -0.13572141408E+02  0.16377598216E+02  0.22138590285E+02  0.51100000000E-03 0.  1.
         12    1    3    3    0    0  0.54086462656E+01 -0.32112449657E+01  0.12383993671E+02  0.13889882934E+02  0.00000000000E+00 0. -1.
</event>
<event>
 7    1  0.2599124E-010  0.4778727E+02  0.7816164E-02  0.1312668E+00
        -11   -1    0    0    0    0  0.00000000000E+00  0.00000000000E+00  0.45593999997E+02  0.45594000000E+02  0.51100000000E-03 0.  1.
         11   -1    0    0    0    0 -0.00000000000E+00 -0.00000000000E+00 -0.45593999997E+02  0.45594000000E+02  0.51100000000E-03 0. -1.
    9900012    2    1    2    0    0 -0.74367036223E+01  0.35258804054E+02 -0.24189579985E+02  0.47787267243E+02  0.19999982666E+02 0.  0.
         12    1    1    2    0    0  0.74367036223E+01 -0.35258804054E+02  0.24189579985E+02  0.43400732757E+02  0.00000000000E+00 0. -1.
         11    1    3    3    0    0 -0.68148929867E+01  0.58945993772E+01 -0.10682965519E+02  0.13975507890E+02  0.51100000000E-03 0. -1.
        -11    1    3    3    0    0 -0.30642311718E+01  0.19452716487E+02 -0.12989308077E+02  0.23590672224E+02  0.51100000000E-03 0.  1.
         12    1    3    3    0    0  0.24424205362E+01  0.99114881889E+01 -0.51730638933E+00  0.10221087129E+02  0.00000000000E+00 0. -1.
</event>
<event>
 7    1  0.2599124E-010  0.4778727E+02  0.7816164E-02  0.1312668E+00
        -11   -1    0    0    0    0  0.00000000000E+00  0.00000000000E+00  0.45593999997E+02  0.45594000000E+02  0.51100000000E-03 0. -1.
         11   -1    0    0    0    0 -0.00000000000E+00 -0.00000000000E+00 -0.45593999997E+02  0.45594000000E+02  0.51100000000E-03 0.  1.
    9900012    2    1    2    0    0 -0.35869167556E+02  0.22844664531E+02 -0.86687518579E+01  0.47787272616E+02  0.20000007166E+02 0.  0.
         12    1    1    2    0    0  0.35869167556E+02 -0.22844664531E+02  0.86687518579E+01  0.43400727384E+02  0.00000000000E+00 0. -1.
         11    1    3    3    0    0  0.23537816687E+01  0.58544024859E+00  0.62955374367E+00  0.25058664382E+01  0.51100000000E-03 0. -1.
        -11    1    3    3    0    0 -0.59827186363E+01  0.38256156764E+01 -0.52158215859E+00  0.71204147207E+01  0.51100000000E-03 0.  1.
         12    1    3    3    0    0 -0.32240230588E+02  0.18433608606E+02 -0.87767234430E+01  0.38160991457E+02  0.00000000000E+00 0. -1.
</event>
<event>
 7    1  0.2599124E-010  0.4778727E+02  0.7816164E-02  0.1312668E+00
        -11   -1    0    0    0    0  0.00000000000E+00  0.00000000000E+00  0.45593999997E+02  0.45594000000E+02  0.51100000000E-03 0. -1.
         11   -1    0    0    0    0 -0.00000000000E+00 -0.00000000000E+00 -0.45593999997E+02  0.45594000000E+02  0.51100000000E-03 0.  1.
    9900012    2    1    2    0    0  0.10909575961E+02  0.41884273403E+02 -0.32112466162E+01  0.47787270617E+02  0.19999998052E+02 0.  0.
         12    1    1    2    0    0 -0.10909575961E+02 -0.41884273403E+02  0.32112466162E+01  0.43400729383E+02  0.00000000000E+00 0. -1.
         11    1    3    3    0    0  0.41117561084E+01  0.63523429463E+01 -0.41057095200E+01  0.86090446698E+01  0.51100000000E-03 0. -1.
        -11    1    3    3    0    0  0.10070314976E+02  0.16942193654E+02 -0.29108022835E+01  0.19922899882E+02  0.51100000000E-03 0.  1.
         12    1    3    3    0    0 -0.32724951239E+01  0.18589736803E+02  0.38052651874E+01  0.19255326065E+02  0.00000000000E+00 0. -1.
</event>
<event>
 7    1  0.2599124E-010  0.4778727E+02  0.7816164E-02  0.1312668E+00
        -11   -1    0    0    0    0  0.00000000000E+00  0.00000000000E+00  0.45593999997E+02  0.45594000000E+02  0.51100000000E-03 0. -1.
         11   -1    0    0    0    0 -0.00000000000E+00 -0.00000000000E+00 -0.45593999997E+02  0.45594000000E+02  0.51100000000E-03 0.  1.
    9900012    2    1    2    0    0  0.49844997961E+01  0.32355235162E+02 -0.28494151717E+02  0.47787272326E+02  0.20000005843E+02 0.  0.
         12    1    1    2    0    0 -0.49844997961E+01 -0.32355235162E+02  0.28494151717E+02  0.43400727674E+02  0.00000000000E+00 0. -1.
         11    1    3    3    0    0  0.18271934644E+01  0.20259059900E+01 -0.57707051385E+00  0.27885375514E+01  0.51100000000E-03 0. -1.
        -11    1    3    3    0    0  0.32978242167E+01  0.24405539699E+02 -0.29912658970E+02  0.38746266652E+02  0.51100000000E-03 0.  1.
        -12    1    3    3    0    0 -0.14051788501E+00  0.59237894729E+01  0.19955777673E+01  0.62524681223E+01  0.00000000000E+00 0.  1.
</event>
<event>
 7    1  0.2599124E-010  0.4778727E+02  0.7816164E-02  0.1312668E+00
        -11   -1    0    0    0    0  0.00000000000E+00  0.00000000000E+00  0.45593999997E+02  0.45594000000E+02  0.51100000000E-03 0.  1.
         11   -1    0    0    0    0 -0.00000000000E+00 -0.00000000000E+00 -0.45593999997E+02  0.45594000000E+02  0.51100000000E-03 0. -1.
    9900012    2    1    2    0    0  0.21046201874E+02 -0.32559784005E+02  0.19507461810E+02  0.47787271734E+02  0.20000003143E+02 0.  0.
         12    1    1    2    0    0 -0.21046201874E+02  0.32559784005E+02 -0.19507461810E+02  0.43400728266E+02  0.00000000000E+00 0. -1.
         11    1    3    3    0    0  0.48727910137E+01 -0.96492200081E+01  0.12385582804E+02  0.16439409986E+02  0.51100000000E-03 0. -1.
        -11    1    3    3    0    0  0.95649661545E+01 -0.90458957235E+01  0.88927826749E+01  0.15887051046E+02  0.51100000000E-03 0.  1.
         12    1    3    3    0    0  0.66084447056E+01 -0.13864668273E+02 -0.17709036688E+01  0.15460810702E+02  0.00000000000E+00 0. -1.
</event>
<event>
 7    1  0.2599124E-010  0.4778727E+02  0.7816164E-02  0.1312668E+00
        -11   -1    0    0    0    0  0.00000000000E+00  0.00000000000E+00  0.45593999997E+02  0.45594000000E+02  0.51100000000E-03 0.  1.
         11   -1    0    0    0    0 -0.00000000000E+00 -0.00000000000E+00 -0.45593999997E+02  0.45594000000E+02  0.51100000000E-03 0. -1.
    9900012    2    1    2    0    0  0.90473583030E+01  0.15104088603E+02  0.39669069396E+02  0.47787271302E+02  0.20000001174E+02 0.  0.
         12    1    1    2    0    0 -0.90473583030E+01 -0.15104088603E+02 -0.39669069396E+02  0.43400728698E+02  0.00000000000E+00 0. -1.
         11    1    3    3    0    0  0.45227513080E+01  0.31542918771E+01  0.21869581547E+02  0.22554011482E+02  0.51100000000E-03 0. -1.
        -11    1    3    3    0    0 -0.24789739830E+01  0.50859746328E+00  0.86068391707E+01  0.89711573478E+01  0.51100000000E-03 0.  1.
         12    1    3    3    0    0  0.70035809779E+01  0.11441199263E+02  0.91926486780E+01  0.16262102472E+02  0.00000000000E+00 0. -1.
</event>
<event>
 7    1  0.2599124E-010  0.4778727E+02  0.7816164E-02  0.1312668E+00
        -11   -1    0    0    0    0  0.00000000000E+00  0.00000000000E+00  0.45593999997E+02  0.45594000000E+02  0.51100000000E-03 0.  1.
         11   -1    0    0    0    0 -0.00000000000E+00 -0.00000000000E+00 -0.45593999997E+02  0.45594000000E+02  0.51100000000E-03 0. -1.
    9900012    2    1    2    0    0  0.27499344242E+02 -0.16770027403E+02  0.29089098745E+02  0.47787269377E+02  0.19999992396E+02 0.  0.
         12    1    1    2    0    0 -0.27499344242E+02  0.16770027403E+02 -0.29089098745E+02  0.43400730623E+02  0.00000000000E+00 0. -1.
         11    1    3    3    0    0  0.87330505215E+01 -0.96997699001E+01  0.39700299240E+01  0.13642318182E+02  0.51100000000E-03 0. -1.
        -11    1    3    3    0    0  0.13403995099E+02 -0.90867904444E+01  0.13095044543E+02  0.20825874220E+02  0.51100000000E-03 0.  1.
         12    1    3    3    0    0  0.53622986212E+01  0.20165329412E+01  0.12024024278E+02  0.13319076974E+02  0.00000000000E+00 0. -1.
</event>
<event>
 7    1  0.2599124E-010  0.4778727E+02  0.7816164E-02  0.1312668E+00
        -11   -1    0    0    0    0  0.00000000000E+00  0.00000000000E+00  0.45593999997E+02  0.45594000000E+02  0.51100000000E-03 0. -1.
         11   -1    0    0    0    0 -0.00000000000E+00 -0.00000000000E+00 -0.45593999997E+02  0.45594000000E+02  0.51100000000E-03 0.  1.
    9900012    2    1    2    0    0  0.34017704754E+02  0.10860389074E+02 -0.24667202503E+02  0.47787272277E+02  0.20000005617E+02 0.  0.
         12    1    1    2    0    0 -0.34017704754E+02 -0.10860389074E+02  0.24667202503E+02  0.43400727723E+02  0.00000000000E+00 0. -1.
         11    1    3    3    0    0  0.11260634790E+02 -0.67925004628E-01 -0.64602268200E+01  0.12982335711E+02  0.51100000000E-03 0. -1.
        -11    1    3    3    0    0  0.21632881072E+02  0.14417551731E+02 -0.15961931836E+02  0.30506238863E+02  0.51100000000E-03 0.  1.
        -12    1    3    3    0    0  0.11241888919E+01 -0.34892376522E+01 -0.22450438476E+01  0.42986977023E+01  0.00000000000E+00 0.  1.
</event>
<event>
 7    1  0.2599124E-010  0.4778727E+02  0.7816164E-02  0.1312668E+00
        -11   -1    0    0    0    0  0.00000000000E+00  0.00000000000E+00  0.45593999997E+02  0.45594000000E+02  0.51100000000E-03 0.  1.
         11   -1    0    0    0    0 -0.00000000000E+00 -0.00000000000E+00 -0.45593999997E+02  0.45594000000E+02  0.51100000000E-03 0. -1.
    9900012    2    1    2    0    0 -0.70049905500E+01 -0.24388594148E+02  0.35210081279E+02  0.47787271425E+02  0.20000001737E+02 0.  0.
         12    1    1    2    0    0  0.70049905500E+01  0.24388594148E+02 -0.35210081279E+02  0.43400728575E+02  0.00000000000E+00 0. -1.
         11    1    3    3    0    0  0.69606892025E+00 -0.43001562123E+01  0.64193403543E+01  0.77578209722E+01  0.51100000000E-03 0. -1.
        -11    1    3    3    0    0  0.28491193639E+01  0.11792316530E+01  0.54429112243E+00  0.31311853232E+01  0.51100000000E-03 0.  1.
        -12    1    3    3    0    0 -0.10550178834E+02 -0.21267669589E+02  0.28246449802E+02  0.36898265130E+02  0.00000000000E+00 0.  1.
</event>
<event>
 7    1  0.2599124E-010  0.4778727E+02  0.7816164E-02  0.1312668E+00
        -11   -1    0    0    0    0  0.00000000000E+00  0.00000000000E+00  0.45593999997E+02  0.45594000000E+02  0.51100000000E-03 0. -1.
         11   -1    0    0    0    0 -0.00000000000E+00 -0.00000000000E+00 -0.45593999997E+02  0.45594000000E+02  0.51100000000E-03 0.  1.
    9900012    2    1    2    0    0  0.91627556092E+01 -0.35600123784E+00 -0.42420993425E+02  0.47787268320E+02  0.19999987576E+02 0.  0.
         12    1    1    2    0    0 -0.91627556092E+01  0.35600123784E+00  0.42420993425E+02  0.43400731680E+02  0.00000000000E+00 0. -1.
         11    1    3    3    0    0  0.43038968452E+01 -0.19573795374E+01 -0.73729424868E+01  0.87587181644E+01  0.51100000000E-03 0. -1.
        -11    1    3    3    0    0  0.31901785582E+01 -0.56660810506E+01 -0.28079676394E+02  0.28822733048E+02  0.51100000000E-03 0.  1.
         12    1    3    3    0    0  0.16686802058E+01  0.72674593502E+01 -0.69683745439E+01  0.10205817107E+02  0.00000000000E+00 0. -1.
</event>
<event>
 7    1  0.2599124E-010  0.4778727E+02  0.7816164E-02  0.1312668E+00
        -11   -1    0    0    0    0  0.00000000000E+00  0.00000000000E+00  0.45593999997E+02  0.45594000000E+02  0.51100000000E-03 0.  1.
         11   -1    0    0    0    0 -0.00000000000E+00 -0.00000000000E+00 -0.45593999997E+02  0.45594000000E+02  0.51100000000E-03 0. -1.
    9900012    2    1    2    0    0 -0.21733460425E+02  0.10398674331E+02  0.36099132784E+02  0.47787272844E+02  0.20000008206E+02 0.  0.
         12    1    1    2    0    0  0.21733460425E+02 -0.10398674331E+02 -0.36099132784E+02  0.43400727156E+02  0.00000000000E+00 0. -1.
         11    1    3    3    0    0  0.58289849214E+00  0.34813689079E+01  0.45037889360E+01  0.57222211742E+01  0.51100000000E-03 0. -1.
        -11    1    3    3    0    0 -0.27924321884E+01 -0.35014454432E+01  0.10824424512E+02  0.11714348638E+02  0.51100000000E-03 0.  1.
        -12    1    3    3    0    0 -0.19523926729E+02  0.10418750867E+02  0.20770919335E+02  0.30350703033E+02  0.00000000000E+00 0.  1.
</event>
<event>
 7    1  0.2599124E-010  0.4778727E+02  0.7816164E-02  0.1312668E+00
        -11   -1    0    0    0    0  0.00000000000E+00  0.00000000000E+00  0.45593999997E+02  0.45594000000E+02  0.51100000000E-03 0. -1.
         11   -1    0    0    0    0 -0.00000000000E+00 -0.00000000000E+00 -0.45593999997E+02  0.45594000000E+02  0.51100000000E-03 0.  1.
    9900012    2    1    2    0    0 -0.21995306071E+02  0.32525961188E+02 -0.18490317630E+02  0.47787268596E+02  0.19999988836E+02 0.  0.
         12    1    1    2    0    0  0.21995306071E+02 -0.32525961188E+02  0.18490317630E+02  0.43400731404E+02  0.00000000000E+00 0. -1.
         11    1    3    3    0    0  0.15144209732E+01  0.23876552423E+00 -0.92400122390E+00  0.17900442404E+01  0.51100000000E-03 0. -1.
        -11    1    3    3    0    0 -0.13215219294E+02  0.70362699846E+01 -0.87375780332E+01  0.17334831595E+02  0.51100000000E-03 0.  1.
        -12    1    3    3    0    0 -0.10294507750E+02  0.25250925680E+02 -0.88287383726E+01  0.28662392760E+02  0.00000000000E+00 0.  1.
</event>
<event>
 7    1  0.2599124E-010  0.4778727E+02  0.7816164E-02  0.1312668E+00
        -11   -1    0    0    0    0  0.00000000000E+00  0.00000000000E+00  0.45593999997E+02  0.45594000000E+02  0.51100000000E-03 0.  1.
         11   -1    0    0    0    0 -0.00000000000E+00 -0.00000000000E+00 -0.45593999997E+02  0.45594000000E+02  0.51100000000E-03 0. -1.
    9900012    2    1    2    0    0  0.47276631166E+01 -0.20645602538E+02 -0.37881808645E+02  0.47787272714E+02  0.20000007614E+02 0.  0.
         12    1    1    2    0    0 -0.47276631166E+01  0.20645602538E+02  0.37881808645E+02  0.43400727286E+02  0.00000000000E+00 0. -1.
         11    1    3    3    0    0  0.94136439209E+00 -0.19618354981E+01  0.67890832254E+00  0.22794477866E+01  0.51100000000E-03 0. -1.
        -11    1    3    3    0    0 -0.54331001374E+01 -0.10464148498E+02 -0.17804293790E+02  0.21354387337E+02  0.51100000000E-03 0.  1.
         12    1    3    3    0    0  0.92193988619E+01 -0.82196185420E+01 -0.20756423177E+02  0.24153437591E+02  0.00000000000E+00 0. -1.
</event>
<event>
 7    1  0.2599124E-010  0.4778727E+02  0.7816164E-02  0.1312668E+00
        -11   -1    0    0    0    0  0.00000000000E+00  0.00000000000E+00  0.45593999997E+02  0.45594000000E+02  0.51100000000E-03 0. -1.
         11   -1    0    0    0    0 -0.00000000000E+00 -0.00000000000E+00 -0.45593999997E+02  0.45594000000E+02  0.51100000000E-03 0.  1.
    9900012    2    1    2    0    0 -0.34463081712E+02 -0.24103610093E+02 -0.10720783958E+02  0.47787271559E+02  0.20000002346E+02 0.  0.
         12    1    1    2    0    0  0.34463081712E+02  0.24103610093E+02  0.10720783958E+02  0.43400728441E+02  0.00000000000E+00 0. -1.
         11    1    3    3    0    0  0.16545204373E+01 -0.37122049254E+00  0.19033205543E+01  0.25490923728E+01  0.51100000000E-03 0. -1.
        -11    1    3    3    0    0 -0.59374355956E+01 -0.57213201993E+01 -0.15589063377E+01  0.83914739769E+01  0.51100000000E-03 0.  1.
         12    1    3    3    0    0 -0.30180166553E+02 -0.18011069401E+02 -0.11065198174E+02  0.36846705209E+02  0.00000000000E+00 0. -1.
</event>
<event>
 7    1  0.2599124E-010  0.4778727E+02  0.7816164E-02  0.1312668E+00
        -11   -1    0    0    0    0  0.00000000000E+00  0.00000000000E+00  0.45593999997E+02  0.45594000000E+02  0.51100000000E-03 0.  1.
         11   -1    0    0    0    0 -0.00000000000E+00 -0.00000000000E+00 -0.45593999997E+02  0.45594000000E+02  0.51100000000E-03 0. -1.
    9900012    2    1    2    0    0 -0.33681766876E+02 -0.27198018772E+02  0.30707868446E+01  0.47787269858E+02  0.19999994590E+02 0.  0.
         12    1    1    2    0    0  0.33681766876E+02  0.27198018772E+02 -0.30707868446E+01  0.43400730142E+02  0.00000000000E+00 0. -1.
         11    1    3    3    0    0 -0.97779906834E+01 -0.12984736126E+02  0.33481031323E+01  0.16595850955E+02  0.51100000000E-03 0.  1.
        -11    1    3    3    0    0 -0.18306348131E+02 -0.16759804790E+02  0.12638248995E+01  0.24851774426E+02  0.51100000000E-03 0. -1.
         12    1    3    3    0    0 -0.55974280614E+01  0.25465221439E+01 -0.15411411872E+01  0.63396444767E+01  0.00000000000E+00 0. -1.
</event>
<event>
 7    1  0.2599124E-010  0.4778729E+02  0.7816164E-02  0.1312668E+00
        -11   -1    0    0    0    0  0.00000000000E+00  0.00000000000E+00  0.45593999997E+02  0.45594000000E+02  0.51100000000E-03 0. -1.
         11   -1    0    0    0    0 -0.00000000000E+00 -0.00000000000E+00 -0.45593999997E+02  0.45594000000E+02  0.51100000000E-03 0.  1.
    9900012    2    1    2    0    0  0.16052796992E+01  0.90986068214E+01 -0.42405894271E+02  0.47787292196E+02  0.20000096437E+02 0.  0.
         12    1    1    2    0    0 -0.16052796992E+01 -0.90986068214E+01  0.42405894271E+02  0.43400707804E+02  0.00000000000E+00 0. -1.
         11    1    3    3    0    0 -0.38789847381E+01 -0.30440900159E+01 -0.18012061573E+02  0.18674778954E+02  0.51100000000E-03 0. -1.
        -11    1    3    3    0    0 -0.21140783938E+01  0.51307146779E+01 -0.86780456732E+01  0.10300584329E+02  0.51100000000E-03 0.  1.
         12    1    3    3    0    0  0.75983428311E+01  0.70119821595E+01 -0.15715787025E+02  0.18811928912E+02  0.00000000000E+00 0. -1.
</event>
<event>
 7    1  0.2599124E-010  0.4778727E+02  0.7816164E-02  0.1312668E+00
        -11   -1    0    0    0    0  0.00000000000E+00  0.00000000000E+00  0.45593999997E+02  0.45594000000E+02  0.51100000000E-03 0.  1.
         11   -1    0    0    0    0 -0.00000000000E+00 -0.00000000000E+00 -0.45593999997E+02  0.45594000000E+02  0.51100000000E-03 0. -1.
    9900012    2    1    2    0    0 -0.82298393101E+01  0.17345948662E+02  0.38923144653E+02  0.47787269825E+02  0.19999994440E+02 0.  0.
         12    1    1    2    0    0  0.82298393101E+01 -0.17345948662E+02 -0.38923144653E+02  0.43400730175E+02  0.00000000000E+00 0. -1.
         11    1    3    3    0    0 -0.20821929715E+01  0.91004469269E+01  0.18611514715E+02  0.20821674815E+02  0.51100000000E-03 0. -1.
        -11    1    3    3    0    0  0.28832785171E+01  0.60965218967E+01  0.14557635686E+02  0.16043865846E+02  0.51100000000E-03 0.  1.
         12    1    3    3    0    0 -0.90309248558E+01  0.21489798382E+01  0.57539942520E+01  0.10921729165E+02  0.00000000000E+00 0. -1.
</event>
<event>
 7    1  0.2979638E-010  0.4778727E+02  0.7816164E-02  0.1312668E+00
        -11   -1    0    0    0    0  0.00000000000E+00  0.00000000000E+00  0.45593999997E+02  0.45594000000E+02  0.51100000000E-03 0. -1.
         11   -1    0    0    0    0 -0.00000000000E+00 -0.00000000000E+00 -0.45593999997E+02  0.45594000000E+02  0.51100000000E-03 0.  1.
    9900012    2    1    2    0    0  0.18142796559E+02 -0.16975091060E+02 -0.35585230923E+02  0.47787269093E+02  0.19999991102E+02 0.  0.
         12    1    1    2    0    0 -0.18142796559E+02  0.16975091060E+02  0.35585230923E+02  0.43400730907E+02  0.00000000000E+00 0. -1.
         11    1    3    3    0    0  0.87473911197E+00 -0.39429320577E+01 -0.13680886798E+00  0.40411135412E+01  0.51100000000E-03 0.  1.
        -11    1    3    3    0    0  0.81158114203E+01  0.92870381505E+00 -0.69818823883E+01  0.10745955878E+02  0.51100000000E-03 0. -1.
        -12    1    3    3    0    0  0.91522460265E+01 -0.13960862817E+02 -0.28466539666E+02  0.33000199674E+02  0.00000000000E+00 0.  1.
</event>
<event>
 7    1  0.2599124E-010  0.4778727E+02  0.7816164E-02  0.1312668E+00
        -11   -1    0    0    0    0  0.00000000000E+00  0.00000000000E+00  0.45593999997E+02  0.45594000000E+02  0.51100000000E-03 0. -1.
         11   -1    0    0    0    0 -0.00000000000E+00 -0.00000000000E+00 -0.45593999997E+02  0.45594000000E+02  0.51100000000E-03 0.  1.
    9900012    2    1    2    0    0 -0.18377190809E+02 -0.39291890583E+02 -0.14316850949E+01  0.47787268096E+02  0.19999986558E+02 0.  0.
         12    1    1    2    0    0  0.18377190809E+02  0.39291890583E+02  0.14316850949E+01  0.43400731904E+02  0.00000000000E+00 0. -1.
         11    1    3    3    0    0 -0.52798681415E+01 -0.14449808826E+02  0.10809940008E+01  0.15422144176E+02  0.51100000000E-03 0. -1.
        -11    1    3    3    0    0 -0.10945108750E+02 -0.18278321142E+02 -0.87752787542E+01  0.23041222771E+02  0.51100000000E-03 0.  1.
         12    1    3    3    0    0 -0.21522139177E+01 -0.65637606142E+01  0.62625996585E+01  0.93239011487E+01  0.00000000000E+00 0. -1.
</event>
<event>
 7    1  0.2599124E-010  0.4778728E+02  0.7816164E-02  0.1312668E+00
        -11   -1    0    0    0    0  0.00000000000E+00  0.00000000000E+00  0.45593999997E+02  0.45594000000E+02  0.51100000000E-03 0.  1.
         11   -1    0    0    0    0 -0.00000000000E+00 -0.00000000000E+00 -0.45593999997E+02  0.45594000000E+02  0.51100000000E-03 0. -1.
    9900012    2    1    2    0    0  0.23033138734E+02 -0.64612330907E+01  0.36212564145E+02  0.47787276331E+02  0.20000024105E+02 0.  0.
         12    1    1    2    0    0 -0.23033138734E+02  0.64612330907E+01 -0.36212564145E+02  0.43400723669E+02  0.00000000000E+00 0. -1.
         11    1    3    3    0    0  0.10909042238E+02 -0.94065335176E+01  0.17101870238E+02  0.22359875699E+02  0.51100000000E-03 0. -1.
        -11    1    3    3    0    0  0.94884247779E+00 -0.36140658219E+01  0.53521331705E+01  0.65274117037E+01  0.51100000000E-03 0.  1.
        -12    1    3    3    0    0  0.11175254019E+02  0.65593662488E+01  0.13758560737E+02  0.18899988929E+02  0.00000000000E+00 0.  1.
</event>
<event>
 7    1  0.2599124E-010  0.4778726E+02  0.7816164E-02  0.1312668E+00
        -11   -1    0    0    0    0  0.00000000000E+00  0.00000000000E+00  0.45593999997E+02  0.45594000000E+02  0.51100000000E-03 0.  1.
         11   -1    0    0    0    0 -0.00000000000E+00 -0.00000000000E+00 -0.45593999997E+02  0.45594000000E+02  0.51100000000E-03 0. -1.
    9900012    2    1    2    0    0  0.38195570228E+02 -0.10276223158E+02  0.17863974060E+02  0.47787263640E+02  0.19999966238E+02 0.  0.
         12    1    1    2    0    0 -0.38195570228E+02  0.10276223158E+02 -0.17863974060E+02  0.43400736360E+02  0.00000000000E+00 0. -1.
         11    1    3    3    0    0  0.99597727278E+01 -0.61332662682E+01 -0.28574722717E+01  0.12040729876E+02  0.51100000000E-03 0. -1.
        -11    1    3    3    0    0  0.16622803370E+02 -0.50797416456E+01  0.10974080231E+02  0.20556064902E+02  0.51100000000E-03 0.  1.
        -12    1    3    3    0    0  0.11612994130E+02  0.93678475539E+00  0.97473661006E+01  0.15190468862E+02  0.00000000000E+00 0.  1.
</event>
<event>
 7    1  0.2599124E-010  0.4778727E+02  0.7816164E-02  0.1312668E+00
        -11   -1    0    0    0    0  0.00000000000E+00  0.00000000000E+00  0.45593999997E+02  0.45594000000E+02  0.51100000000E-03 0.  1.
         11   -1    0    0    0    0 -0.00000000000E+00 -0.00000000000E+00 -0.45593999997E+02  0.45594000000E+02  0.51100000000E-03 0. -1.
    9900012    2    1    2    0    0 -0.11466019786E+01 -0.22492075956E+01  0.43327244193E+02  0.47787265902E+02  0.19999976552E+02 0.  0.
         12    1    1    2    0    0  0.11466019786E+01  0.22492075956E+01 -0.43327244193E+02  0.43400734098E+02  0.00000000000E+00 0. -1.
         11    1    3    3    0    0  0.10689575149E+01  0.38858966806E+01  0.82587599647E+01  0.91896670014E+01  0.51100000000E-03 0. -1.
        -11    1    3    3    0    0 -0.53198945227E+01  0.22625195486E+01  0.66971902645E+01  0.88471820452E+01  0.51100000000E-03 0.  1.
        -12    1    3    3    0    0  0.31043350292E+01 -0.83976238247E+01  0.28371293964E+02  0.29750416855E+02  0.00000000000E+00 0.  1.
</event>
<event>
 7    1  0.2599124E-010  0.4778727E+02  0.7816164E-02  0.1312668E+00
        -11   -1    0    0    0    0  0.00000000000E+00  0.00000000000E+00  0.45593999997E+02  0.45594000000E+02  0.51100000000E-03 0.  1.
         11   -1    0    0    0    0 -0.00000000000E+00 -0.00000000000E+00 -0.45593999997E+02  0.45594000000E+02  0.51100000000E-03 0. -1.
    9900012    2    1    2    0    0 -0.41217907880E+02  0.11786179781E+02 -0.67670770874E+01  0.47787270788E+02  0.19999998829E+02 0.  0.
         12    1    1    2    0    0  0.41217907880E+02 -0.11786179781E+02  0.67670770874E+01  0.43400729212E+02  0.00000000000E+00 0. -1.
         11    1    3    3    0    0 -0.77914360703E+01  0.92485755300E+00  0.32711460695E+01  0.85007196401E+01  0.51100000000E-03 0. -1.
        -11    1    3    3    0    0 -0.79503458704E+01 -0.34400500466E+01 -0.35321621824E+01  0.93551116362E+01  0.51100000000E-03 0.  1.
         12    1    3    3    0    0 -0.25476125940E+02  0.14301372274E+02 -0.65060609745E+01  0.29931439511E+02  0.00000000000E+00 0. -1.
</event>
<event>
 7    1  0.2599124E-010  0.4778725E+02  0.7816164E-02  0.1312668E+00
        -11   -1    0    0    0    0  0.00000000000E+00  0.00000000000E+00  0.45593999997E+02  0.45594000000E+02  0.51100000000E-03 0.  1.
         11   -1    0    0    0    0 -0.00000000000E+00 -0.00000000000E+00 -0.45593999997E+02  0.45594000000E+02  0.51100000000E-03 0. -1.
    9900012    2    1    2    0    0 -0.85276187923E+01  0.46023470582E+01  0.42305117178E+02  0.47787253230E+02  0.19999918778E+02 0.  0.
         12    1    1    2    0    0  0.85276187923E+01 -0.46023470582E+01 -0.42305117178E+02  0.43400746770E+02  0.00000000000E+00 0. -1.
         11    1    3    3    0    0 -0.24875541256E+01 -0.29341176800E+01  0.25823701669E+01  0.46330991817E+01  0.51100000000E-03 0. -1.
        -11    1    3    3    0    0 -0.46139676512E+01 -0.23540343016E+01  0.57351961751E+01  0.77280431163E+01  0.51100000000E-03 0.  1.
        -12    1    3    3    0    0 -0.14260970156E+01  0.98904990399E+01  0.33987550836E+02  0.35426110932E+02  0.00000000000E+00 0.  1.
</event>
<event>
 7    1  0.2599124E-010  0.4778727E+02  0.7816164E-02  0.1312668E+00
        -11   -1    0    0    0    0  0.00000000000E+00  0.00000000000E+00  0.45593999997E+02  0.45594000000E+02  0.51100000000E-03 0.  1.
         11   -1    0    0    0    0 -0.00000000000E+00 -0.00000000000E+00 -0.45593999997E+02  0.45594000000E+02  0.51100000000E-03 0. -1.
    9900012    2    1    2    0    0 -0.34408656942E+01  0.42182380804E+02  0.96140631400E+01  0.47787274002E+02  0.20000013487E+02 0.  0.
         12    1    1    2    0    0  0.34408656942E+01 -0.42182380804E+02 -0.96140631400E+01  0.43400725998E+02  0.00000000000E+00 0. -1.
         11    1    3    3    0    0  0.85434188827E-02 -0.33895818301E+00 -0.10760688792E+01  0.11282243277E+01  0.51100000000E-03 0. -1.
        -11    1    3    3    0    0 -0.57657164649E+01  0.39427964450E+02  0.13285736796E+02  0.42003793513E+02  0.51100000000E-03 0.  1.
        -12    1    3    3    0    0  0.23163073518E+01  0.30933745379E+01 -0.25956047765E+01  0.46552561621E+01  0.00000000000E+00 0.  1.
</event>
<event>
 7    1  0.2599124E-010  0.4778727E+02  0.7816164E-02  0.1312668E+00
        -11   -1    0    0    0    0  0.00000000000E+00  0.00000000000E+00  0.45593999997E+02  0.45594000000E+02  0.51100000000E-03 0. -1.
         11   -1    0    0    0    0 -0.00000000000E+00 -0.00000000000E+00 -0.45593999997E+02  0.45594000000E+02  0.51100000000E-03 0.  1.
    9900012    2    1    2    0    0 -0.24511843137E+02 -0.35279870067E+02 -0.61744043313E+01  0.47787274721E+02  0.20000016761E+02 0.  0.
         12    1    1    2    0    0  0.24511843137E+02  0.35279870067E+02  0.61744043313E+01  0.43400725279E+02  0.00000000000E+00 0. -1.
         11    1    3    3    0    0 -0.10957757202E+02 -0.12902194155E+02 -0.64697423154E+01  0.18121716883E+02  0.51100000000E-03 0. -1.
        -11    1    3    3    0    0 -0.65162981537E+01 -0.16825032605E+01 -0.33284704691E+01  0.75081072698E+01  0.51100000000E-03 0.  1.
        -12    1    3    3    0    0 -0.70377877808E+01 -0.20695172652E+02  0.36238084532E+01  0.22157450568E+02  0.00000000000E+00 0.  1.
</event>
<event>
 7    1  0.2599124E-010  0.4778727E+02  0.7816164E-02  0.1312668E+00
        -11   -1    0    0    0    0  0.00000000000E+00  0.00000000000E+00  0.45593999997E+02  0.45594000000E+02  0.51100000000E-03 0.  1.
         11   -1    0    0    0    0 -0.00000000000E+00 -0.00000000000E+00 -0.45593999997E+02  0.45594000000E+02  0.51100000000E-03 0. -1.
    9900012    2    1    2    0    0  0.13037948557E+01 -0.33785279075E+02  0.27211730480E+02  0.47787271447E+02  0.20000001836E+02 0.  0.
         12    1    1    2    0    0 -0.13037948557E+01  0.33785279075E+02 -0.27211730480E+02  0.43400728553E+02  0.00000000000E+00 0. -1.
         11    1    3    3    0    0  0.45668064163E+01 -0.11399451783E+02  0.43333170948E+01  0.13022321571E+02  0.51100000000E-03 0. -1.
        -11    1    3    3    0    0 -0.27219888039E+01 -0.10729833850E+02  0.26030090135E+01  0.11371640765E+02  0.51100000000E-03 0.  1.
        -12    1    3    3    0    0 -0.54102275673E+00 -0.11655993443E+02  0.20275404372E+02  0.23393309112E+02  0.00000000000E+00 0.  1.
</event>
<event>
 7    1  0.2599124E-010  0.4778727E+02  0.7816164E-02  0.1312668E+00
        -11   -1    0    0    0    0  0.00000000000E+00  0.00000000000E+00  0.45593999997E+02  0.45594000000E+02  0.51100000000E-03 0. -1.
         11   -1    0    0    0    0 -0.00000000000E+00 -0.00000000000E+00 -0.45593999997E+02  0.45594000000E+02  0.51100000000E-03 0.  1.
    9900012    2    1    2    0    0 -0.15934258741E+02  0.35328060082E+02 -0.19535887364E+02  0.47787270446E+02  0.19999997270E+02 0.  0.
         12    1    1    2    0    0  0.15934258741E+02 -0.35328060082E+02  0.19535887364E+02  0.43400729554E+02  0.00000000000E+00 0. -1.
         11    1    3    3    0    0 -0.21341174992E+00 -0.20937700164E+01 -0.22370021632E+01  0.30714160245E+01  0.51100000000E-03 0. -1.
        -11    1    3    3    0    0 -0.99723597053E+00  0.88437131559E+01 -0.55486849098E+01  0.10487785584E+02  0.51100000000E-03 0.  1.
        -12    1    3    3    0    0 -0.14723611020E+02  0.28578116942E+02 -0.11750200291E+02  0.34228068837E+02  0.00000000000E+00 0.  1.
</event>
<event>
 7    1  0.2599124E-010  0.4778728E+02  0.7816164E-02  0.1312668E+00
        -11   -1    0    0    0    0  0.00000000000E+00  0.00000000000E+00  0.45593999997E+02  0.45594000000E+02  0.51100000000E-03 0. -1.
         11   -1    0    0    0    0 -0.00000000000E+00 -0.00000000000E+00 -0.45593999997E+02  0.45594000000E+02  0.51100000000E-03 0.  1.
    9900012    2    1    2    0    0 -0.27349119921E+02 -0.19749292553E+02  0.27305920110E+02  0.47787283533E+02  0.20000056942E+02 0.  0.
         12    1    1    2    0    0  0.27349119921E+02  0.19749292553E+02 -0.27305920110E+02  0.43400716467E+02  0.00000000000E+00 0. -1.
         11    1    3    3    0    0 -0.71649781311E+01  0.60139834740E+00  0.92495721461E+01  0.11715510093E+02  0.51100000000E-03 0. -1.
        -11    1    3    3    0    0 -0.18577952261E+02 -0.13493862809E+02  0.17750865157E+02  0.29022712792E+02  0.51100000000E-03 0.  1.
         12    1    3    3    0    0 -0.16061895285E+01 -0.68568280918E+01  0.30548280678E+00  0.70490606485E+01  0.00000000000E+00 0. -1.
</event>
<event>
 7    1  0.2599124E-010  0.4778727E+02  0.7816164E-02  0.1312668E+00
        -11   -1    0    0    0    0  0.00000000000E+00  0.00000000000E+00  0.45593999997E+02  0.45594000000E+02  0.51100000000E-03 0. -1.
         11   -1    0    0    0    0 -0.00000000000E+00 -0.00000000000E+00 -0.45593999997E+02  0.45594000000E+02  0.51100000000E-03 0.  1.
    9900012    2    1    2    0    0 -0.34418691440E+02  0.22975994290E+02 -0.13079775379E+02  0.47787272379E+02  0.20000006087E+02 0.  0.
         12    1    1    2    0    0  0.34418691440E+02 -0.22975994290E+02  0.13079775379E+02  0.43400727621E+02  0.00000000000E+00 0. -1.
         11    1    3    3    0    0 -0.99602021601E+01  0.13823689129E+02 -0.11431670608E+02  0.20517872730E+02  0.51100000000E-03 0. -1.
        -11    1    3    3    0    0 -0.11818383104E+02  0.38050651648E+01 -0.45826575382E+01  0.13234555167E+02  0.51100000000E-03 0.  1.
         12    1    3    3    0    0 -0.12640106176E+02  0.53472399963E+01  0.29345527669E+01  0.14034844483E+02  0.00000000000E+00 0. -1.
</event>
<event>
 7    1  0.2599124E-010  0.4778727E+02  0.7816164E-02  0.1312668E+00
        -11   -1    0    0    0    0  0.00000000000E+00  0.00000000000E+00  0.45593999997E+02  0.45594000000E+02  0.51100000000E-03 0. -1.
         11   -1    0    0    0    0 -0.00000000000E+00 -0.00000000000E+00 -0.45593999997E+02  0.45594000000E+02  0.51100000000E-03 0.  1.
    9900012    2    1    2    0    0 -0.37930631599E+02  0.15087286673E+02 -0.14739890024E+02  0.47787269700E+02  0.19999993870E+02 0.  0.
         12    1    1    2    0    0  0.37930631599E+02 -0.15087286673E+02  0.14739890024E+02  0.43400730300E+02  0.00000000000E+00 0. -1.
         11    1    3    3    0    0  0.77203523943E+00 -0.10132239227E+01  0.92213459841E+00  0.15725754694E+01  0.51100000000E-03 0. -1.
        -11    1    3    3    0    0 -0.18313771749E+02  0.15387637328E+01 -0.55729872464E+01  0.19204692567E+02  0.51100000000E-03 0.  1.
         12    1    3    3    0    0 -0.20388895090E+02  0.14561746863E+02 -0.10089037376E+02  0.27010001663E+02  0.00000000000E+00 0. -1.
</event>
<event>
 7    1  0.2599124E-010  0.4778727E+02  0.7816164E-02  0.1312668E+00
        -11   -1    0    0    0    0  0.00000000000E+00  0.00000000000E+00  0.45593999997E+02  0.45594000000E+02  0.51100000000E-03 0. -1.
         11   -1    0    0    0    0 -0.00000000000E+00 -0.00000000000E+00 -0.45593999997E+02  0.45594000000E+02  0.51100000000E-03 0.  1.
    9900012    2    1    2    0    0  0.29881363071E+02 -0.31456772750E+02  0.10949583748E+01  0.47787270229E+02  0.19999996283E+02 0.  0.
         12    1    1    2    0    0 -0.29881363071E+02  0.31456772750E+02 -0.10949583748E+01  0.43400729771E+02  0.00000000000E+00 0. -1.
         11    1    3    3    0    0  0.14291475508E+01 -0.78007592937E+01  0.33931998674E+01  0.86260137886E+01  0.51100000000E-03 0. -1.
        -11    1    3    3    0    0  0.18850067615E+02 -0.18921132471E+02  0.35806339026E+01  0.26947267811E+02  0.51100000000E-03 0.  1.
        -12    1    3    3    0    0  0.96021479051E+01 -0.47348809847E+01 -0.58788753952E+01  0.12213988630E+02  0.00000000000E+00 0.  1.
</event>
<event>
 7    1  0.2599124E-010  0.4778727E+02  0.7816164E-02  0.1312668E+00
        -11   -1    0    0    0    0  0.00000000000E+00  0.00000000000E+00  0.45593999997E+02  0.45594000000E+02  0.51100000000E-03 0.  1.
         11   -1    0    0    0    0 -0.00000000000E+00 -0.00000000000E+00 -0.45593999997E+02  0.45594000000E+02  0.51100000000E-03 0. -1.
    9900012    2    1    2    0    0  0.16143457466E+02 -0.91918093029E+01  0.39224012065E+02  0.47787266139E+02  0.19999977634E+02 0.  0.
         12    1    1    2    0    0 -0.16143457466E+02  0.91918093029E+01 -0.39224012065E+02  0.43400733861E+02  0.00000000000E+00 0. -1.
         11    1    3    3    0    0 -0.63840664485E+00 -0.51341298322E+01  0.74665247525E+00  0.52272691110E+01  0.51100000000E-03 0. -1.
        -11    1    3    3    0    0  0.28835897436E+01 -0.24653779683E+01  0.12399168970E+02  0.12966594377E+02  0.51100000000E-03 0.  1.
        -12    1    3    3    0    0  0.13898274367E+02 -0.15923015024E+01  0.26078190619E+02  0.29593402651E+02  0.00000000000E+00 0.  1.
</event>
<event>
 7    1  0.2599124E-010  0.4778727E+02  0.7816164E-02  0.1312668E+00
        -11   -1    0    0    0    0  0.00000000000E+00  0.00000000000E+00  0.45593999997E+02  0.45594000000E+02  0.51100000000E-03 0.  1.
         11   -1    0    0    0    0 -0.00000000000E+00 -0.00000000000E+00 -0.45593999997E+02  0.45594000000E+02  0.51100000000E-03 0. -1.
    9900012    2    1    2    0    0 -0.30232943997E+02  0.67484466208E+01  0.30398204805E+02  0.47787270860E+02  0.19999999160E+02 0.  0.
         12    1    1    2    0    0  0.30232943997E+02 -0.67484466208E+01 -0.30398204805E+02  0.43400729140E+02  0.00000000000E+00 0. -1.
         11    1    3    3    0    0 -0.18964845520E+02 -0.42382216231E+01  0.10962059268E+02  0.22311311745E+02  0.51100000000E-03 0. -1.
        -11    1    3    3    0    0 -0.10839208282E+01 -0.42943319712E+00  0.12116989592E+01  0.16815206991E+01  0.51100000000E-03 0.  1.
         12    1    3    3    0    0 -0.10184177649E+02  0.11416101441E+02  0.18224446578E+02  0.23794438417E+02  0.00000000000E+00 0. -1.
</event>
<event>
 7    1  0.2599124E-010  0.4778723E+02  0.7816164E-02  0.1312668E+00
        -11   -1    0    0    0    0  0.00000000000E+00  0.00000000000E+00  0.45593999997E+02  0.45594000000E+02  0.51100000000E-03 0. -1.
         11   -1    0    0    0    0 -0.00000000000E+00 -0.00000000000E+00 -0.45593999997E+02  0.45594000000E+02  0.51100000000E-03 0.  1.
    9900012    2    1    2    0    0 -0.55770241576E+01  0.35677981275E+02 -0.24074999601E+02  0.47787226365E+02  0.19999796287E+02 0.  0.
         12    1    1    2    0    0  0.55770241576E+01 -0.35677981275E+02  0.24074999601E+02  0.43400773635E+02  0.00000000000E+00 0. -1.
         11    1    3    3    0    0 -0.53080015182E+01  0.86626457285E+01 -0.13514788271E+02  0.16907566750E+02  0.51100000000E-03 0. -1.
        -11    1    3    3    0    0 -0.39336042936E+01  0.62871034089E+01 -0.54921551887E+01  0.92284712109E+01  0.51100000000E-03 0.  1.
        -12    1    3    3    0    0  0.36645816542E+01  0.20728232138E+02 -0.50680561419E+01  0.21651188404E+02  0.00000000000E+00 0.  1.
</event>
<event>
 7    1  0.2599124E-010  0.4778726E+02  0.7816164E-02  0.1312668E+00
        -11   -1    0    0    0    0  0.00000000000E+00  0.00000000000E+00  0.45593999997E+02  0.45594000000E+02  0.51100000000E-03 0. -1.
         11   -1    0    0    0    0 -0.00000000000E+00 -0.00000000000E+00 -0.45593999997E+02  0.45594000000E+02  0.51100000000E-03 0.  1.
    9900012    2    1    2    0    0 -0.37445952180E+02  0.20107185076E+02 -0.87821199826E+01  0.47787264318E+02  0.19999969331E+02 0.  0.
         12    1    1    2    0    0  0.37445952180E+02 -0.20107185076E+02  0.87821199826E+01  0.43400735682E+02  0.00000000000E+00 0. -1.
         11    1    3    3    0    0  0.64599418271E+00 -0.70857838693E+00 -0.20495857808E+01  0.22627845564E+01  0.51100000000E-03 0. -1.
        -11    1    3    3    0    0 -0.47973444646E+01 -0.76915212229E+00 -0.29056159165E+01  0.56611582750E+01  0.51100000000E-03 0.  1.
        -12    1    3    3    0    0 -0.33294601898E+02  0.21584915585E+02 -0.38269182852E+01  0.39863321487E+02  0.00000000000E+00 0.  1.
</event>
<event>
 7    1  0.2599124E-010  0.4778727E+02  0.7816164E-02  0.1312668E+00
        -11   -1    0    0    0    0  0.00000000000E+00  0.00000000000E+00  0.45593999997E+02  0.45594000000E+02  0.51100000000E-03 0.  1.
         11   -1    0    0    0    0 -0.00000000000E+00 -0.00000000000E+00 -0.45593999997E+02  0.45594000000E+02  0.51100000000E-03 0. -1.
    9900012    2    1    2    0    0 -0.31409000942E+02  0.98564891414E+01  0.28283342124E+02  0.47787272356E+02  0.20000005978E+02 0.  0.
         12    1    1    2    0    0  0.31409000942E+02 -0.98564891414E+01 -0.28283342124E+02  0.43400727644E+02  0.00000000000E+00 0. -1.
         11    1    3    3    0    0 -0.45525952710E+01 -0.10043187929E+01 -0.40832492943E-01  0.46622363188E+01  0.51100000000E-03 0. -1.
        -11    1    3    3    0    0 -0.15466758606E+02 -0.14397120501E+01  0.11117117285E+02  0.19101928949E+02  0.51100000000E-03 0.  1.
         12    1    3    3    0    0 -0.11389647064E+02  0.12300519984E+02  0.17207057332E+02  0.24023107088E+02  0.00000000000E+00 0. -1.
</event>
<event>
 7    1  0.2599124E-010  0.4778727E+02  0.7816164E-02  0.1312668E+00
        -11   -1    0    0    0    0  0.00000000000E+00  0.00000000000E+00  0.45593999997E+02  0.45594000000E+02  0.51100000000E-03 0.  1.
         11   -1    0    0    0    0 -0.00000000000E+00 -0.00000000000E+00 -0.45593999997E+02  0.45594000000E+02  0.51100000000E-03 0. -1.
    9900012    2    1    2    0    0  0.36794296973E+02  0.22123513160E+02  0.63524230158E+01  0.47787269563E+02  0.19999993245E+02 0.  0.
         12    1    1    2    0    0 -0.36794296973E+02 -0.22123513160E+02 -0.63524230158E+01  0.43400730437E+02  0.00000000000E+00 0. -1.
         11    1    3    3    0    0  0.38473060925E+00 -0.12675529227E+00 -0.49931463759E+00  0.64296182954E+00  0.51100000000E-03 0. -1.
        -11    1    3    3    0    0  0.33498100791E+02  0.23499478397E+02  0.10567438377E+02  0.42261317959E+02  0.51100000000E-03 0.  1.
        -12    1    3    3    0    0  0.29114655729E+01 -0.12492099450E+01 -0.37157007232E+01  0.48829897740E+01  0.00000000000E+00 0.  1.
</event>
<event>
 7    1  0.2599124E-010  0.4778727E+02  0.7816164E-02  0.1312668E+00
        -11   -1    0    0    0    0  0.00000000000E+00  0.00000000000E+00  0.45593999997E+02  0.45594000000E+02  0.51100000000E-03 0.  1.
         11   -1    0    0    0    0 -0.00000000000E+00 -0.00000000000E+00 -0.45593999997E+02  0.45594000000E+02  0.51100000000E-03 0. -1.
    9900012    2    1    2    0    0 -0.27984076193E+02 -0.28173546672E+02  0.17514738213E+02  0.47787270662E+02  0.19999998255E+02 0.  0.
         12    1    1    2    0    0  0.27984076193E+02  0.28173546672E+02 -0.17514738213E+02  0.43400729338E+02  0.00000000000E+00 0. -1.
         11    1    3    3    0    0 -0.22824324173E+02 -0.14818386285E+02  0.77849338684E+01  0.28304408520E+02  0.51100000000E-03 0. -1.
        -11    1    3    3    0    0 -0.25854015094E+01 -0.18450365439E+01 -0.12071215491E+01  0.33978822093E+01  0.51100000000E-03 0.  1.
        -12    1    3    3    0    0 -0.25743505102E+01 -0.11510123842E+02  0.10936925894E+02  0.16084979932E+02  0.00000000000E+00 0.  1.
</event>
<event>
 7    1  0.2599124E-010  0.4778727E+02  0.7816164E-02  0.1312668E+00
        -11   -1    0    0    0    0  0.00000000000E+00  0.00000000000E+00  0.45593999997E+02  0.45594000000E+02  0.51100000000E-03 0. -1.
         11   -1    0    0    0    0 -0.00000000000E+00 -0.00000000000E+00 -0.45593999997E+02  0.45594000000E+02  0.51100000000E-03 0.  1.
    9900012    2    1    2    0    0 -0.33108868319E+02 -0.23377430721E+02 -0.15521651033E+02  0.47787273286E+02  0.20000010220E+02 0.  0.
         12    1    1    2    0    0  0.33108868319E+02  0.23377430721E+02  0.15521651033E+02  0.43400726714E+02  0.00000000000E+00 0. -1.
         11    1    3    3    0    0 -0.17864645711E+02 -0.60684844563E+01 -0.18172054153E+01  0.18954532591E+02  0.51100000000E-03 0. -1.
        -11    1    3    3    0    0 -0.22889192911E+01 -0.47508646748E+00  0.14393864614E+01  0.27453036843E+01  0.51100000000E-03 0.  1.
        -12    1    3    3    0    0 -0.12955303317E+02 -0.16833859798E+02 -0.15143832079E+02  0.26087437010E+02  0.00000000000E+00 0.  1.
</event>
<event>
 7    1  0.2599124E-010  0.4778727E+02  0.7816164E-02  0.1312668E+00
        -11   -1    0    0    0    0  0.00000000000E+00  0.00000000000E+00  0.45593999997E+02  0.45594000000E+02  0.51100000000E-03 0. -1.
         11   -1    0    0    0    0 -0.00000000000E+00 -0.00000000000E+00 -0.45593999997E+02  0.45594000000E+02  0.51100000000E-03 0.  1.
    9900012    2    1    2    0    0  0.26258711257E+02 -0.34528485094E+02  0.13736516671E+01  0.47787272833E+02  0.20000008153E+02 0.  0.
         12    1    1    2    0    0 -0.26258711257E+02  0.34528485094E+02 -0.13736516671E+01  0.43400727167E+02  0.00000000000E+00 0. -1.
         11    1    3    3    0    0  0.10737446000E+02 -0.26623178193E+01  0.28874737027E+00  0.11066348001E+02  0.51100000000E-03 0. -1.
        -11    1    3    3    0    0 -0.86872033294E+00 -0.36114579691E+01  0.16195553332E+01  0.40521924212E+01  0.51100000000E-03 0.  1.
        -12    1    3    3    0    0  0.16389985590E+02 -0.28254709306E+02 -0.53465103635E+00  0.32668732410E+02  0.00000000000E+00 0.  1.
</event>
<event>
 7    1  0.2599124E-010  0.4778727E+02  0.7816164E-02  0.1312668E+00
        -11   -1    0    0    0    0  0.00000000000E+00  0.00000000000E+00  0.45593999997E+02  0.45594000000E+02  0.51100000000E-03 0. -1.
         11   -1    0    0    0    0 -0.00000000000E+00 -0.00000000000E+00 -0.45593999997E+02  0.45594000000E+02  0.51100000000E-03 0.  1.
    9900012    2    1    2    0    0  0.35187615064E+02 -0.23223956241E+02 -0.10300638649E+02  0.47787267818E+02  0.19999985289E+02 0.  0.
         12    1    1    2    0    0 -0.35187615064E+02  0.23223956241E+02  0.10300638649E+02  0.43400732182E+02  0.00000000000E+00 0. -1.
         11    1    3    3    0    0  0.66236162009E+00  0.20068284492E+01 -0.21789828472E+01  0.30354653432E+01  0.51100000000E-03 0. -1.
        -11    1    3    3    0    0  0.11534332557E+02 -0.76319853397E+01 -0.76267578882E+01  0.15794159171E+02  0.51100000000E-03 0.  1.
         12    1    3    3    0    0  0.22990920887E+02 -0.17598799350E+02 -0.49489791395E+00  0.28957643304E+02  0.00000000000E+00 0. -1.
</event>
<event>
 7    1  0.2599124E-010  0.4778728E+02  0.7816164E-02  0.1312668E+00
        -11   -1    0    0    0    0  0.00000000000E+00  0.00000000000E+00  0.45593999997E+02  0.45594000000E+02  0.51100000000E-03 0.  1.
         11   -1    0    0    0    0 -0.00000000000E+00 -0.00000000000E+00 -0.45593999997E+02  0.45594000000E+02  0.51100000000E-03 0. -1.
    9900012    2    1    2    0    0  0.42795888870E+02 -0.31157504749E+01  0.65135848593E+01  0.47787276585E+02  0.20000025263E+02 0.  0.
         12    1    1    2    0    0 -0.42795888870E+02  0.31157504749E+01 -0.65135848593E+01  0.43400723415E+02  0.00000000000E+00 0. -1.
         11    1    3    3    0    0  0.10321436912E+02  0.17662917805E+01  0.53628603166E+01  0.11764867939E+02  0.51100000000E-03 0. -1.
        -11    1    3    3    0    0  0.11629527038E+02 -0.34001668327E+00  0.74042431128E+01  0.13790733367E+02  0.51100000000E-03 0.  1.
        -12    1    3    3    0    0  0.20844924919E+02 -0.45420255721E+01 -0.62535185701E+01  0.22231675279E+02  0.00000000000E+00 0.  1.
</event>
<event>
 7    1  0.2599124E-010  0.4778727E+02  0.7816164E-02  0.1312668E+00
        -11   -1    0    0    0    0  0.00000000000E+00  0.00000000000E+00  0.45593999997E+02  0.45594000000E+02  0.51100000000E-03 0. -1.
         11   -1    0    0    0    0 -0.00000000000E+00 -0.00000000000E+00 -0.45593999997E+02  0.45594000000E+02  0.51100000000E-03 0.  1.
    9900012    2    1    2    0    0  0.32932034487E+02  0.19126189169E+02 -0.20815693715E+02  0.47787272904E+02  0.20000008478E+02 0.  0.
         12    1    1    2    0    0 -0.32932034487E+02 -0.19126189169E+02  0.20815693715E+02  0.43400727096E+02  0.00000000000E+00 0. -1.
         11    1    3    3    0    0  0.67338513380E+01  0.22395893808E+01  0.31791305407E+01  0.77760777834E+01  0.51100000000E-03 0. -1.
        -11    1    3    3    0    0 -0.43861173453E+00  0.35818122049E-01 -0.66346653325E+00  0.79614778364E+00  0.51100000000E-03 0.  1.
        -12    1    3    3    0    0  0.26636794884E+02  0.16850781666E+02 -0.23331357723E+02  0.39215047337E+02  0.00000000000E+00 0.  1.
</event>
<event>
 7    1  0.2599124E-010  0.4778727E+02  0.7816164E-02  0.1312668E+00
        -11   -1    0    0    0    0  0.00000000000E+00  0.00000000000E+00  0.45593999997E+02  0.45594000000E+02  0.51100000000E-03 0. -1.
         11   -1    0    0    0    0 -0.00000000000E+00 -0.00000000000E+00 -0.45593999997E+02  0.45594000000E+02  0.51100000000E-03 0.  1.
    9900012    2    1    2    0    0 -0.38905706988E+02 -0.16454957695E+02 -0.99601182033E+01  0.47787267015E+02  0.19999981630E+02 0.  0.
         12    1    1    2    0    0  0.38905706988E+02  0.16454957695E+02  0.99601182033E+01  0.43400732985E+02  0.00000000000E+00 0. -1.
         11    1    3    3    0    0 -0.21972451745E+01  0.14532215702E+01  0.98197833416E+00  0.28114090771E+01  0.51100000000E-03 0. -1.
        -11    1    3    3    0    0 -0.17948752833E+00  0.11084754535E+00  0.21743746341E+01  0.21845842308E+01  0.51100000000E-03 0.  1.
        -12    1    3    3    0    0 -0.36528974285E+02 -0.18019026811E+02 -0.13116471172E+02  0.42791273707E+02  0.00000000000E+00 0.  1.
</event>
<event>
 7    1  0.2599124E-010  0.4778727E+02  0.7816164E-02  0.1312668E+00
        -11   -1    0    0    0    0  0.00000000000E+00  0.00000000000E+00  0.45593999997E+02  0.45594000000E+02  0.51100000000E-03 0.  1.
         11   -1    0    0    0    0 -0.00000000000E+00 -0.00000000000E+00 -0.45593999997E+02  0.45594000000E+02  0.51100000000E-03 0. -1.
    9900012    2    1    2    0    0  0.19013317175E+02  0.25035812297E+02  0.29921983284E+02  0.47787271769E+02  0.20000003304E+02 0.  0.
         12    1    1    2    0    0 -0.19013317175E+02 -0.25035812297E+02 -0.29921983284E+02  0.43400728231E+02  0.00000000000E+00 0. -1.
         11    1    3    3    0    0 -0.89997678152E+00  0.16008647669E+01  0.14144662260E+01  0.23180684146E+01  0.51100000000E-03 0. -1.
        -11    1    3    3    0    0  0.66290137363E+01  0.19749827217E+02  0.21745316790E+02  0.30114088078E+02  0.51100000000E-03 0.  1.
        -12    1    3    3    0    0  0.13284280220E+02  0.36851203125E+01  0.67622002679E+01  0.15355115276E+02  0.00000000000E+00 0.  1.
</event>
<event>
 7    1  0.2599124E-010  0.4778727E+02  0.7816164E-02  0.1312668E+00
        -11   -1    0    0    0    0  0.00000000000E+00  0.00000000000E+00  0.45593999997E+02  0.45594000000E+02  0.51100000000E-03 0.  1.
         11   -1    0    0    0    0 -0.00000000000E+00 -0.00000000000E+00 -0.45593999997E+02  0.45594000000E+02  0.51100000000E-03 0. -1.
    9900012    2    1    2    0    0  0.15748205105E+02  0.38825612490E+02 -0.11322055272E+02  0.47787273222E+02  0.20000009928E+02 0.  0.
         12    1    1    2    0    0 -0.15748205105E+02 -0.38825612490E+02  0.11322055272E+02  0.43400726778E+02  0.00000000000E+00 0. -1.
         11    1    3    3    0    0 -0.12629911009E+01  0.15523991777E+02 -0.29031792142E-01  0.15575310922E+02  0.51100000000E-03 0. -1.
        -11    1    3    3    0    0 -0.86694980055E+00  0.29520396146E+01 -0.12965304554E+01  0.33387319937E+01  0.51100000000E-03 0.  1.
        -12    1    3    3    0    0  0.17878146007E+02  0.20349581099E+02 -0.99964930247E+01  0.28873230306E+02  0.00000000000E+00 0.  1.
</event>
<event>
 7    1  0.2599124E-010  0.4778727E+02  0.7816164E-02  0.1312668E+00
        -11   -1    0    0    0    0  0.00000000000E+00  0.00000000000E+00  0.45593999997E+02  0.45594000000E+02  0.51100000000E-03 0. -1.
         11   -1    0    0    0    0 -0.00000000000E+00 -0.00000000000E+00 -0.45593999997E+02  0.45594000000E+02  0.51100000000E-03 0.  1.
    9900012    2    1    2    0    0  0.33505796738E+02  0.24576811128E+02  0.12528573602E+02  0.47787271702E+02  0.20000002999E+02 0.  0.
         12    1    1    2    0    0 -0.33505796738E+02 -0.24576811128E+02 -0.12528573602E+02  0.43400728298E+02  0.00000000000E+00 0. -1.
         11    1    3    3    0    0  0.12667570055E+01  0.30466906279E+01  0.39120010359E+01  0.51176898557E+01  0.51100000000E-03 0. -1.
        -11    1    3    3    0    0  0.19933325819E+02  0.15159217793E+02  0.12894088172E+02  0.28167301475E+02  0.51100000000E-03 0.  1.
        -12    1    3    3    0    0  0.12305713913E+02  0.63709027068E+01 -0.42775156064E+01  0.14502280371E+02  0.00000000000E+00 0.  1.
</event>
<event>
 7    1  0.2599124E-010  0.4778727E+02  0.7816164E-02  0.1312668E+00
        -11   -1    0    0    0    0  0.00000000000E+00  0.00000000000E+00  0.45593999997E+02  0.45594000000E+02  0.51100000000E-03 0. -1.
         11   -1    0    0    0    0 -0.00000000000E+00 -0.00000000000E+00 -0.45593999997E+02  0.45594000000E+02  0.51100000000E-03 0.  1.
    9900012    2    1    2    0    0  0.61253990926E+01  0.13226673971E+02 -0.40879795032E+02  0.47787273506E+02  0.20000011223E+02 0.  0.
         12    1    1    2    0    0 -0.61253990926E+01 -0.13226673971E+02  0.40879795032E+02  0.43400726494E+02  0.00000000000E+00 0. -1.
         11    1    3    3    0    0 -0.26849872431E+01  0.13261380241E+02 -0.14028864415E+02  0.19490572065E+02  0.51100000000E-03 0. -1.
        -11    1    3    3    0    0  0.88471479925E+00 -0.11316550322E+00 -0.43523665024E+01  0.44428168023E+01  0.51100000000E-03 0.  1.
         12    1    3    3    0    0  0.79256715364E+01  0.78459233422E-01 -0.22498564114E+02  0.23853884638E+02  0.00000000000E+00 0. -1.
</event>
<event>
 7    1  0.2599124E-010  0.4778727E+02  0.7816164E-02  0.1312668E+00
        -11   -1    0    0    0    0  0.00000000000E+00  0.00000000000E+00  0.45593999997E+02  0.45594000000E+02  0.51100000000E-03 0.  1.
         11   -1    0    0    0    0 -0.00000000000E+00 -0.00000000000E+00 -0.45593999997E+02  0.45594000000E+02  0.51100000000E-03 0. -1.
    9900012    2    1    2    0    0 -0.63128795158E+01 -0.18195096137E+02  0.38893562886E+02  0.47787271836E+02  0.20000003608E+02 0.  0.
         12    1    1    2    0    0  0.63128795158E+01  0.18195096137E+02 -0.38893562886E+02  0.43400728164E+02  0.00000000000E+00 0. -1.
         11    1    3    3    0    0  0.65896159257E+00 -0.12674854123E+01 -0.19112530124E+01  0.23861345288E+01  0.51100000000E-03 0. -1.
        -11    1    3    3    0    0 -0.35269549732E+01 -0.86232601967E+01  0.11798444991E+02  0.15033407208E+02  0.51100000000E-03 0.  1.
         12    1    3    3    0    0 -0.34448861352E+01 -0.83043505283E+01  0.29006370907E+02  0.30367730099E+02  0.00000000000E+00 0. -1.
</event>
<event>
 7    1  0.2599124E-010  0.4778727E+02  0.7816164E-02  0.1312668E+00
        -11   -1    0    0    0    0  0.00000000000E+00  0.00000000000E+00  0.45593999997E+02  0.45594000000E+02  0.51100000000E-03 0.  1.
         11   -1    0    0    0    0 -0.00000000000E+00 -0.00000000000E+00 -0.45593999997E+02  0.45594000000E+02  0.51100000000E-03 0. -1.
    9900012    2    1    2    0    0  0.18634662525E+01  0.29782169572E+02  0.31514649906E+02  0.47787270864E+02  0.19999999175E+02 0.  0.
         12    1    1    2    0    0 -0.18634662525E+01 -0.29782169572E+02 -0.31514649906E+02  0.43400729136E+02  0.00000000000E+00 0. -1.
         11    1    3    3    0    0  0.52407701811E+01  0.19418331319E+01  0.11728080799E+02  0.12991699946E+02  0.51100000000E-03 0. -1.
        -11    1    3    3    0    0  0.26415213948E+00  0.11407980205E+02  0.10819325332E+02  0.15724808095E+02  0.51100000000E-03 0.  1.
         12    1    3    3    0    0 -0.36414560681E+01  0.16432356235E+02  0.89672437749E+01  0.19070762823E+02  0.00000000000E+00 0. -1.
</event>
<event>
 7    1  0.2599124E-010  0.4778727E+02  0.7816164E-02  0.1312668E+00
        -11   -1    0    0    0    0  0.00000000000E+00  0.00000000000E+00  0.45593999997E+02  0.45594000000E+02  0.51100000000E-03 0.  1.
         11   -1    0    0    0    0 -0.00000000000E+00 -0.00000000000E+00 -0.45593999997E+02  0.45594000000E+02  0.51100000000E-03 0. -1.
    9900012    2    1    2    0    0  0.15099550879E+02 -0.14615225073E+01  0.40663137114E+02  0.47787271841E+02  0.20000003632E+02 0.  0.
         12    1    1    2    0    0 -0.15099550879E+02  0.14615225073E+01 -0.40663137114E+02  0.43400728159E+02  0.00000000000E+00 0. -1.
         11    1    3    3    0    0  0.10773859687E+02 -0.50897001351E+01  0.17553379725E+02  0.21215613120E+02  0.51100000000E-03 0. -1.
        -11    1    3    3    0    0  0.77578273969E+00 -0.40846041295E+01  0.45584879275E+01  0.61697359912E+01  0.51100000000E-03 0.  1.
         12    1    3    3    0    0  0.35499084529E+01  0.77127817573E+01  0.18551269461E+02  0.20401922730E+02  0.00000000000E+00 0. -1.
</event>
<event>
 7    1  0.2599124E-010  0.4778727E+02  0.7816164E-02  0.1312668E+00
        -11   -1    0    0    0    0  0.00000000000E+00  0.00000000000E+00  0.45593999997E+02  0.45594000000E+02  0.51100000000E-03 0.  1.
         11   -1    0    0    0    0 -0.00000000000E+00 -0.00000000000E+00 -0.45593999997E+02  0.45594000000E+02  0.51100000000E-03 0. -1.
    9900012    2    1    2    0    0  0.20753994449E+02  0.38115796796E+02 -0.28426382872E+00  0.47787273544E+02  0.20000011397E+02 0.  0.
         12    1    1    2    0    0 -0.20753994449E+02 -0.38115796796E+02  0.28426382872E+00  0.43400726456E+02  0.00000000000E+00 0. -1.
         11    1    3    3    0    0 -0.83474136895E+00  0.30990386532E+01 -0.22443419410E+01  0.39163637135E+01  0.51100000000E-03 0. -1.
        -11    1    3    3    0    0  0.93946097211E+01  0.25090005381E+02 -0.39345292155E+01  0.27078544684E+02  0.51100000000E-03 0.  1.
         12    1    3    3    0    0  0.12194126097E+02  0.99267527622E+01  0.58946073277E+01  0.16792365146E+02  0.00000000000E+00 0. -1.
</event>
<event>
 7    1  0.2758354E-010  0.4778727E+02  0.7816164E-02  0.1312668E+00
        -11   -1    0    0    0    0  0.00000000000E+00  0.00000000000E+00  0.45593999997E+02  0.45594000000E+02  0.51100000000E-03 0.  1.
         11   -1    0    0    0    0 -0.00000000000E+00 -0.00000000000E+00 -0.45593999997E+02  0.45594000000E+02  0.51100000000E-03 0. -1.
    9900012    2    1    2    0    0  0.41026966481E+02  0.13351044733E+02 -0.47075472872E+01  0.47787269873E+02  0.19999994659E+02 0.  0.
         12    1    1    2    0    0 -0.41026966481E+02 -0.13351044733E+02  0.47075472872E+01  0.43400730127E+02  0.00000000000E+00 0. -1.
         11    1    3    3    0    0 -0.60627226783E+00  0.16287127416E+01 -0.16473600383E+01  0.23945911163E+01  0.51100000000E-03 0. -1.
        -11    1    3    3    0    0  0.19710802794E+02  0.19978193635E+01 -0.71528727092E+01  0.21063490149E+02  0.51100000000E-03 0.  1.
        -12    1    3    3    0    0  0.21922435955E+02  0.97245126278E+01  0.40926854603E+01  0.24329188608E+02  0.00000000000E+00 0.  1.
</event>
<event>
 7    1  0.2599124E-010  0.4778727E+02  0.7816164E-02  0.1312668E+00
        -11   -1    0    0    0    0  0.00000000000E+00  0.00000000000E+00  0.45593999997E+02  0.45594000000E+02  0.51100000000E-03 0.  1.
         11   -1    0    0    0    0 -0.00000000000E+00 -0.00000000000E+00 -0.45593999997E+02  0.45594000000E+02  0.51100000000E-03 0. -1.
    9900012    2    1    2    0    0 -0.36340287171E+02 -0.73213924322E+01  0.22569977329E+02  0.47787272640E+02  0.20000007273E+02 0.  0.
         12    1    1    2    0    0  0.36340287171E+02  0.73213924322E+01 -0.22569977329E+02  0.43400727360E+02  0.00000000000E+00 0. -1.
         11    1    3    3    0    0 -0.10944931549E+02  0.38957758350E+01  0.34616755905E+01  0.12122367513E+02  0.51100000000E-03 0. -1.
        -11    1    3    3    0    0 -0.20777925235E+02 -0.35333090954E+01  0.12248368979E+02  0.24376812612E+02  0.51100000000E-03 0.  1.
         12    1    3    3    0    0 -0.46174303868E+01 -0.76838591719E+01  0.68599327590E+01  0.11288092514E+02  0.00000000000E+00 0. -1.
</event>
<event>
 7    1  0.2599124E-010  0.4778727E+02  0.7816164E-02  0.1312668E+00
        -11   -1    0    0    0    0  0.00000000000E+00  0.00000000000E+00  0.45593999997E+02  0.45594000000E+02  0.51100000000E-03 0.  1.
         11   -1    0    0    0    0 -0.00000000000E+00 -0.00000000000E+00 -0.45593999997E+02  0.45594000000E+02  0.51100000000E-03 0. -1.
    9900012    2    1    2    0    0 -0.24894426468E+02  0.18173930177E+02  0.30554854675E+02  0.47787270151E+02  0.19999995926E+02 0.  0.
         12    1    1    2    0    0  0.24894426468E+02 -0.18173930177E+02 -0.30554854675E+02  0.43400729849E+02  0.00000000000E+00 0. -1.
         11    1    3    3    0    0 -0.48077076701E+01  0.83101249844E+00 -0.15546348822E+01  0.51206957234E+01  0.51100000000E-03 0. -1.
        -11    1    3    3    0    0 -0.51547240708E+01  0.73321507868E+00  0.98056287356E+01  0.11102213282E+02  0.51100000000E-03 0.  1.
         12    1    3    3    0    0 -0.14931994727E+02  0.16609702600E+02  0.22303860821E+02  0.31564361145E+02  0.00000000000E+00 0. -1.
</event>
<event>
 7    1  0.2599124E-010  0.4778727E+02  0.7816164E-02  0.1312668E+00
        -11   -1    0    0    0    0  0.00000000000E+00  0.00000000000E+00  0.45593999997E+02  0.45594000000E+02  0.51100000000E-03 0.  1.
         11   -1    0    0    0    0 -0.00000000000E+00 -0.00000000000E+00 -0.45593999997E+02  0.45594000000E+02  0.51100000000E-03 0. -1.
    9900012    2    1    2    0    0 -0.17231906613E+02 -0.33345691449E+02  0.21788745359E+02  0.47787272263E+02  0.20000005558E+02 0.  0.
         12    1    1    2    0    0  0.17231906613E+02  0.33345691449E+02 -0.21788745359E+02  0.43400727737E+02  0.00000000000E+00 0. -1.
         11    1    3    3    0    0 -0.94088148667E-01 -0.22365261473E+01  0.89109759592E+01  0.91878394954E+01  0.51100000000E-03 0.  1.
        -11    1    3    3    0    0 -0.28421674869E+01 -0.10457862327E+01  0.17600516111E+01  0.35027655934E+01  0.51100000000E-03 0. -1.
        -12    1    3    3    0    0 -0.14295650977E+02 -0.30063379069E+02  0.11117717789E+02  0.35096667175E+02  0.00000000000E+00 0.  1.
</event>
<event>
 7    1  0.2599124E-010  0.4778726E+02  0.7816164E-02  0.1312668E+00
        -11   -1    0    0    0    0  0.00000000000E+00  0.00000000000E+00  0.45593999997E+02  0.45594000000E+02  0.51100000000E-03 0. -1.
         11   -1    0    0    0    0 -0.00000000000E+00 -0.00000000000E+00 -0.45593999997E+02  0.45594000000E+02  0.51100000000E-03 0.  1.
    9900012    2    1    2    0    0  0.40896387916E+02 -0.94428563285E+01 -0.11042727007E+02  0.47787263831E+02  0.19999967112E+02 0.  0.
         12    1    1    2    0    0 -0.40896387916E+02  0.94428563285E+01  0.11042727007E+02  0.43400736169E+02  0.00000000000E+00 0. -1.
         11    1    3    3    0    0 -0.40854336285E+00  0.94345305882E+00 -0.66508222167E+00  0.12244778382E+01  0.51100000000E-03 0. -1.
        -11    1    3    3    0    0  0.61906735579E+01 -0.20081474066E+01 -0.81004992820E+01  0.10391110816E+02  0.51100000000E-03 0.  1.
         12    1    3    3    0    0  0.35114257721E+02 -0.83781619807E+01 -0.22771455036E+01  0.36171675177E+02  0.00000000000E+00 0. -1.
</event>
<event>
 7    1  0.2599124E-010  0.4778727E+02  0.7816164E-02  0.1312668E+00
        -11   -1    0    0    0    0  0.00000000000E+00  0.00000000000E+00  0.45593999997E+02  0.45594000000E+02  0.51100000000E-03 0.  1.
         11   -1    0    0    0    0 -0.00000000000E+00 -0.00000000000E+00 -0.45593999997E+02  0.45594000000E+02  0.51100000000E-03 0. -1.
    9900012    2    1    2    0    0  0.10156952297E+02 -0.38606721952E+02  0.17028823089E+02  0.47787268720E+02  0.19999989402E+02 0.  0.
         12    1    1    2    0    0 -0.10156952297E+02  0.38606721952E+02 -0.17028823089E+02  0.43400731280E+02  0.00000000000E+00 0. -1.
         11    1    3    3    0    0 -0.19406424399E+01 -0.11802056897E+00 -0.14983905255E+01  0.24546275404E+01  0.51100000000E-03 0. -1.
        -11    1    3    3    0    0  0.28754156097E+01 -0.47611643710E+01 -0.39357894429E+00  0.55759847330E+01  0.51100000000E-03 0.  1.
        -12    1    3    3    0    0  0.92221791268E+01 -0.33727537012E+02  0.18920792558E+02  0.39756656447E+02  0.00000000000E+00 0.  1.
</event>
<event>
 7    1  0.2599124E-010  0.4778727E+02  0.7816164E-02  0.1312668E+00
        -11   -1    0    0    0    0  0.00000000000E+00  0.00000000000E+00  0.45593999997E+02  0.45594000000E+02  0.51100000000E-03 0.  1.
         11   -1    0    0    0    0 -0.00000000000E+00 -0.00000000000E+00 -0.45593999997E+02  0.45594000000E+02  0.51100000000E-03 0. -1.
    9900012    2    1    2    0    0  0.12958889403E+02 -0.21841403310E+02  0.35194367290E+02  0.47787271872E+02  0.20000003773E+02 0.  0.
         12    1    1    2    0    0 -0.12958889403E+02  0.21841403310E+02 -0.35194367290E+02  0.43400728128E+02  0.00000000000E+00 0. -1.
         11    1    3    3    0    0  0.86593547778E+01 -0.14540162216E+01  0.14896919822E+02  0.17292102498E+02  0.51100000000E-03 0. -1.
        -11    1    3    3    0    0  0.21515458547E+01  0.10113118043E+00  0.20959958794E+01  0.30054244406E+01  0.51100000000E-03 0.  1.
        -12    1    3    3    0    0  0.21479887704E+01 -0.20488518269E+02  0.18201451588E+02  0.27489744934E+02  0.00000000000E+00 0.  1.
</event>
<event>
 7    1  0.2599124E-010  0.4778727E+02  0.7816164E-02  0.1312668E+00
        -11   -1    0    0    0    0  0.00000000000E+00  0.00000000000E+00  0.45593999997E+02  0.45594000000E+02  0.51100000000E-03 0.  1.
         11   -1    0    0    0    0 -0.00000000000E+00 -0.00000000000E+00 -0.45593999997E+02  0.45594000000E+02  0.51100000000E-03 0. -1.
    9900012    2    1    2    0    0  0.28512633701E+02 -0.11226721358E+01  0.32701571638E+02  0.47787268890E+02  0.19999990177E+02 0.  0.
         12    1    1    2    0    0 -0.28512633701E+02  0.11226721358E+01 -0.32701571638E+02  0.43400731110E+02  0.00000000000E+00 0. -1.
         11    1    3    3    0    0  0.70062966540E+01 -0.72096542450E+01  0.82397308945E+01  0.12998479627E+02  0.51100000000E-03 0. -1.
        -11    1    3    3    0    0  0.37276370620E+01 -0.27706197438E+01  0.66357306664E+01  0.80996625589E+01  0.51100000000E-03 0.  1.
        -12    1    3    3    0    0  0.17778699985E+02  0.88576018530E+01  0.17826110077E+02  0.26689126704E+02  0.00000000000E+00 0.  1.
</event>
<event>
 7    1  0.2599124E-010  0.4778727E+02  0.7816164E-02  0.1312668E+00
        -11   -1    0    0    0    0  0.00000000000E+00  0.00000000000E+00  0.45593999997E+02  0.45594000000E+02  0.51100000000E-03 0.  1.
         11   -1    0    0    0    0 -0.00000000000E+00 -0.00000000000E+00 -0.45593999997E+02  0.45594000000E+02  0.51100000000E-03 0. -1.
    9900012    2    1    2    0    0 -0.40252376589E+02  0.32948834256E+01  0.15890663630E+02  0.47787271107E+02  0.20000000285E+02 0.  0.
         12    1    1    2    0    0  0.40252376589E+02 -0.32948834256E+01 -0.15890663630E+02  0.43400728893E+02  0.00000000000E+00 0. -1.
         11    1    3    3    0    0 -0.85043178435E+00 -0.50120305045E+00 -0.18846288891E+00  0.10049662876E+01  0.51100000000E-03 0. -1.
        -11    1    3    3    0    0 -0.34114136809E+02  0.88318463167E+01  0.84827000599E+01  0.36245441647E+02  0.51100000000E-03 0.  1.
         12    1    3    3    0    0 -0.52878079952E+01 -0.50357598407E+01  0.75964264589E+01  0.10536863172E+02  0.00000000000E+00 0. -1.
</event>
<event>
 7    1  0.2599124E-010  0.4778727E+02  0.7816164E-02  0.1312668E+00
        -11   -1    0    0    0    0  0.00000000000E+00  0.00000000000E+00  0.45593999997E+02  0.45594000000E+02  0.51100000000E-03 0.  1.
         11   -1    0    0    0    0 -0.00000000000E+00 -0.00000000000E+00 -0.45593999997E+02  0.45594000000E+02  0.51100000000E-03 0. -1.
    9900012    2    1    2    0    0 -0.16038050794E+02  0.39383493127E+02  0.86801488412E+01  0.47787267425E+02  0.19999983496E+02 0.  0.
         12    1    1    2    0    0  0.16038050794E+02 -0.39383493127E+02 -0.86801488412E+01  0.43400732575E+02  0.00000000000E+00 0. -1.
         11    1    3    3    0    0  0.20174129916E+00 -0.16575508464E+01 -0.13362490825E+00  0.16751209621E+01  0.51100000000E-03 0. -1.
        -11    1    3    3    0    0 -0.46569837317E+01  0.11665014906E+02  0.72363482190E+01  0.14495682324E+02  0.51100000000E-03 0.  1.
         12    1    3    3    0    0 -0.11582808361E+02  0.29376029067E+02  0.15774255305E+01  0.31616464138E+02  0.00000000000E+00 0. -1.
</event>
<event>
 7    1  0.2599124E-010  0.4778727E+02  0.7816164E-02  0.1312668E+00
        -11   -1    0    0    0    0  0.00000000000E+00  0.00000000000E+00  0.45593999997E+02  0.45594000000E+02  0.51100000000E-03 0.  1.
         11   -1    0    0    0    0 -0.00000000000E+00 -0.00000000000E+00 -0.45593999997E+02  0.45594000000E+02  0.51100000000E-03 0. -1.
    9900012    2    1    2    0    0  0.18879991241E+02 -0.13878709931E+02  0.36531507988E+02  0.47787265738E+02  0.19999975806E+02 0.  0.
         12    1    1    2    0    0 -0.18879991241E+02  0.13878709931E+02 -0.36531507988E+02  0.43400734262E+02  0.00000000000E+00 0. -1.
         11    1    3    3    0    0 -0.29606041029E+00 -0.33440640737E+01  0.26625233740E+01  0.42847925590E+01  0.51100000000E-03 0. -1.
        -11    1    3    3    0    0  0.92567211415E+01 -0.58714172923E+01  0.29898617727E+02  0.31844744772E+02  0.51100000000E-03 0.  1.
         12    1    3    3    0    0  0.99193305095E+01 -0.46632285654E+01  0.39703668867E+01  0.11657728408E+02  0.00000000000E+00 0. -1.
</event>
<event>
 7    1  0.2599124E-010  0.4778727E+02  0.7816164E-02  0.1312668E+00
        -11   -1    0    0    0    0  0.00000000000E+00  0.00000000000E+00  0.45593999997E+02  0.45594000000E+02  0.51100000000E-03 0. -1.
         11   -1    0    0    0    0 -0.00000000000E+00 -0.00000000000E+00 -0.45593999997E+02  0.45594000000E+02  0.51100000000E-03 0.  1.
    9900012    2    1    2    0    0  0.46617228294E+01  0.11786802534E+02 -0.41508586765E+02  0.47787272484E+02  0.20000006562E+02 0.  0.
         12    1    1    2    0    0 -0.46617228294E+01 -0.11786802534E+02  0.41508586765E+02  0.43400727516E+02  0.00000000000E+00 0. -1.
         11    1    3    3    0    0  0.24918769678E+01 -0.13634249041E-01 -0.11461906055E+02  0.11729660156E+02  0.51100000000E-03 0. -1.
        -11    1    3    3    0    0  0.15742217215E+01  0.14928544117E+02 -0.29086483025E+02  0.32731683405E+02  0.51100000000E-03 0.  1.
        -12    1    3    3    0    0  0.59562414009E+00 -0.31281073332E+01 -0.96019768497E+00  0.33259289226E+01  0.00000000000E+00 0.  1.
</event>
<event>
 7    1  0.2599124E-010  0.4778727E+02  0.7816164E-02  0.1312668E+00
        -11   -1    0    0    0    0  0.00000000000E+00  0.00000000000E+00  0.45593999997E+02  0.45594000000E+02  0.51100000000E-03 0.  1.
         11   -1    0    0    0    0 -0.00000000000E+00 -0.00000000000E+00 -0.45593999997E+02  0.45594000000E+02  0.51100000000E-03 0. -1.
    9900012    2    1    2    0    0 -0.26882816041E+02  0.10030282882E+02  0.32562721911E+02  0.47787271536E+02  0.20000002241E+02 0.  0.
         12    1    1    2    0    0  0.26882816041E+02 -0.10030282882E+02 -0.32562721911E+02  0.43400728464E+02  0.00000000000E+00 0. -1.
         11    1    3    3    0    0 -0.21640482603E+02  0.10104953237E+01  0.25124525405E+02  0.33174890583E+02  0.51100000000E-03 0.  1.
        -11    1    3    3    0    0 -0.61511208173E+01  0.44132524344E+01  0.29745607497E+01  0.81339471521E+01  0.51100000000E-03 0. -1.
        -12    1    3    3    0    0  0.90878737988E+00  0.46065351239E+01  0.44636357564E+01  0.64784338011E+01  0.00000000000E+00 0.  1.
</event>
<event>
 7    1  0.2599124E-010  0.4778728E+02  0.7816164E-02  0.1312668E+00
        -11   -1    0    0    0    0  0.00000000000E+00  0.00000000000E+00  0.45593999997E+02  0.45594000000E+02  0.51100000000E-03 0.  1.
         11   -1    0    0    0    0 -0.00000000000E+00 -0.00000000000E+00 -0.45593999997E+02  0.45594000000E+02  0.51100000000E-03 0. -1.
    9900012    2    1    2    0    0  0.55994120076E+01 -0.85995408472E+00  0.43029405330E+02  0.47787278129E+02  0.20000032301E+02 0.  0.
         12    1    1    2    0    0 -0.55994120076E+01  0.85995408472E+00 -0.43029405330E+02  0.43400721871E+02  0.00000000000E+00 0. -1.
         11    1    3    3    0    0  0.63076543301E+01 -0.75972397229E+01  0.25091899315E+02  0.26964939571E+02  0.51100000000E-03 0. -1.
        -11    1    3    3    0    0  0.22308240329E+01  0.26536837218E+01  0.14029789823E+02  0.14451768608E+02  0.51100000000E-03 0.  1.
         12    1    3    3    0    0 -0.29390663554E+01  0.40836019164E+01  0.39077161921E+01  0.63705699503E+01  0.00000000000E+00 0. -1.
</event>
<event>
 7    1  0.2599124E-010  0.4778727E+02  0.7816164E-02  0.1312668E+00
        -11   -1    0    0    0    0  0.00000000000E+00  0.00000000000E+00  0.45593999997E+02  0.45594000000E+02  0.51100000000E-03 0.  1.
         11   -1    0    0    0    0 -0.00000000000E+00 -0.00000000000E+00 -0.45593999997E+02  0.45594000000E+02  0.51100000000E-03 0. -1.
    9900012    2    1    2    0    0  0.41204082426E+02 -0.13309287042E+02 -0.29512542599E+01  0.47787269225E+02  0.19999991703E+02 0.  0.
         12    1    1    2    0    0 -0.41204082426E+02  0.13309287042E+02  0.29512542599E+01  0.43400730775E+02  0.00000000000E+00 0. -1.
         11    1    3    3    0    0  0.21495146839E+02 -0.45331481082E-01 -0.13642239242E+01  0.21538442370E+02  0.51100000000E-03 0. -1.
        -11    1    3    3    0    0  0.17777138681E+02 -0.61452336111E+01 -0.73600919372E+00  0.18823715511E+02  0.51100000000E-03 0.  1.
        -12    1    3    3    0    0  0.19317969058E+01 -0.71187219497E+01 -0.85102114204E+00  0.74251113437E+01  0.00000000000E+00 0.  1.
</event>
<event>
 7    1  0.2599124E-010  0.4778725E+02  0.7816164E-02  0.1312668E+00
        -11   -1    0    0    0    0  0.00000000000E+00  0.00000000000E+00  0.45593999997E+02  0.45594000000E+02  0.51100000000E-03 0.  1.
         11   -1    0    0    0    0 -0.00000000000E+00 -0.00000000000E+00 -0.45593999997E+02  0.45594000000E+02  0.51100000000E-03 0. -1.
    9900012    2    1    2    0    0  0.34646684757E+02  0.12845617359E+02  0.22764493504E+02  0.47787253296E+02  0.19999919077E+02 0.  0.
         12    1    1    2    0    0 -0.34646684757E+02 -0.12845617359E+02 -0.22764493504E+02  0.43400746704E+02  0.00000000000E+00 0. -1.
         11    1    3    3    0    0  0.12805014139E+01  0.63218263933E+00  0.31773551383E+01  0.34835218812E+01  0.51100000000E-03 0. -1.
        -11    1    3    3    0    0  0.33997978658E+02  0.11223270375E+02  0.21715008348E+02  0.41873212661E+02  0.51100000000E-03 0.  1.
         12    1    3    3    0    0 -0.63179531521E+00  0.99016434501E+00 -0.21278699821E+01  0.24305187535E+01  0.00000000000E+00 0. -1.
</event>
<event>
 7    1  0.2599124E-010  0.4778727E+02  0.7816164E-02  0.1312668E+00
        -11   -1    0    0    0    0  0.00000000000E+00  0.00000000000E+00  0.45593999997E+02  0.45594000000E+02  0.51100000000E-03 0. -1.
         11   -1    0    0    0    0 -0.00000000000E+00 -0.00000000000E+00 -0.45593999997E+02  0.45594000000E+02  0.51100000000E-03 0.  1.
    9900012    2    1    2    0    0 -0.29232237615E+02  0.32054351499E+02 -0.12721536530E+01  0.47787267968E+02  0.19999985972E+02 0.  0.
         12    1    1    2    0    0  0.29232237615E+02 -0.32054351499E+02  0.12721536530E+01  0.43400732032E+02  0.00000000000E+00 0. -1.
         11    1    3    3    0    0 -0.46416338093E+01 -0.18984457581E+01 -0.22672917649E+01  0.55035872778E+01  0.51100000000E-03 0. -1.
        -11    1    3    3    0    0 -0.90743758095E+01  0.91426880253E+01 -0.12099470140E+01  0.12938199747E+02  0.51100000000E-03 0.  1.
         12    1    3    3    0    0 -0.15516227996E+02  0.24810109232E+02  0.22050851259E+01  0.29345480943E+02  0.00000000000E+00 0. -1.
</event>
<event>
 7    1  0.2599124E-010  0.4778727E+02  0.7816164E-02  0.1312668E+00
        -11   -1    0    0    0    0  0.00000000000E+00  0.00000000000E+00  0.45593999997E+02  0.45594000000E+02  0.51100000000E-03 0.  1.
         11   -1    0    0    0    0 -0.00000000000E+00 -0.00000000000E+00 -0.45593999997E+02  0.45594000000E+02  0.51100000000E-03 0. -1.
    9900012    2    1    2    0    0  0.39744087932E+02  0.16954767343E+02  0.40702110916E+01  0.47787270980E+02  0.19999999705E+02 0.  0.
         12    1    1    2    0    0 -0.39744087932E+02 -0.16954767343E+02 -0.40702110916E+01  0.43400729020E+02  0.00000000000E+00 0. -1.
         11    1    3    3    0    0  0.86827512738E+01 -0.12419586561E+01 -0.23402635675E+01  0.90779658962E+01  0.51100000000E-03 0. -1.
        -11    1    3    3    0    0  0.15773845863E+01  0.17609820468E+01 -0.28534893615E+01  0.37056175868E+01  0.51100000000E-03 0.  1.
        -12    1    3    3    0    0  0.29483952071E+02  0.16435743952E+02  0.92639640206E+01  0.35003687497E+02  0.00000000000E+00 0.  1.
</event>
<event>
 7    1  0.2599124E-010  0.4778728E+02  0.7816164E-02  0.1312668E+00
        -11   -1    0    0    0    0  0.00000000000E+00  0.00000000000E+00  0.45593999997E+02  0.45594000000E+02  0.51100000000E-03 0. -1.
         11   -1    0    0    0    0 -0.00000000000E+00 -0.00000000000E+00 -0.45593999997E+02  0.45594000000E+02  0.51100000000E-03 0.  1.
    9900012    2    1    2    0    0  0.30585104728E+02  0.56119038618E+01 -0.30276729610E+02  0.47787280512E+02  0.20000043165E+02 0.  0.
         12    1    1    2    0    0 -0.30585104728E+02 -0.56119038618E+01  0.30276729610E+02  0.43400719488E+02  0.00000000000E+00 0. -1.
         11    1    3    3    0    0  0.34752803205E+01  0.34402184397E+01 -0.21347331502E+01  0.53357063358E+01  0.51100000000E-03 0. -1.
        -11    1    3    3    0    0  0.93327338969E+01 -0.40000927461E+01 -0.18971845593E+02  0.21518168822E+02  0.51100000000E-03 0.  1.
        -12    1    3    3    0    0  0.17777090511E+02  0.61717781683E+01 -0.91701508667E+01  0.20933405354E+02  0.00000000000E+00 0.  1.
</event>
<event>
 7    1  0.2599124E-010  0.4778727E+02  0.7816164E-02  0.1312668E+00
        -11   -1    0    0    0    0  0.00000000000E+00  0.00000000000E+00  0.45593999997E+02  0.45594000000E+02  0.51100000000E-03 0.  1.
         11   -1    0    0    0    0 -0.00000000000E+00 -0.00000000000E+00 -0.45593999997E+02  0.45594000000E+02  0.51100000000E-03 0. -1.
    9900012    2    1    2    0    0  0.43255486127E+02  0.34820268425E+00  0.35305703656E+01  0.47787271293E+02  0.20000001135E+02 0.  0.
         12    1    1    2    0    0 -0.43255486127E+02 -0.34820268425E+00 -0.35305703656E+01  0.43400728707E+02  0.00000000000E+00 0. -1.
         11    1    3    3    0    0 -0.38535092887E+00  0.17408089025E+01 -0.20968115969E+01  0.27523680908E+01  0.51100000000E-03 0. -1.
        -11    1    3    3    0    0  0.16261784554E+02  0.40697236226E+01  0.21230704407E+01  0.16897210291E+02  0.51100000000E-03 0.  1.
         12    1    3    3    0    0  0.27379052501E+02 -0.54623298408E+01  0.35043115218E+01  0.28137692912E+02  0.00000000000E+00 0. -1.
</event>
<event>
 7    1  0.2599124E-010  0.4778727E+02  0.7816164E-02  0.1312668E+00
        -11   -1    0    0    0    0  0.00000000000E+00  0.00000000000E+00  0.45593999997E+02  0.45594000000E+02  0.51100000000E-03 0.  1.
         11   -1    0    0    0    0 -0.00000000000E+00 -0.00000000000E+00 -0.45593999997E+02  0.45594000000E+02  0.51100000000E-03 0. -1.
    9900012    2    1    2    0    0 -0.14773200369E+02 -0.27306179186E+02  0.30327349165E+02  0.47787274450E+02  0.20000015526E+02 0.  0.
         12    1    1    2    0    0  0.14773200369E+02  0.27306179186E+02 -0.30327349165E+02  0.43400725550E+02  0.00000000000E+00 0. -1.
         11    1    3    3    0    0 -0.98374722330E+01 -0.97007095500E+01  0.22429256045E+02  0.26342952619E+02  0.51100000000E-03 0. -1.
        -11    1    3    3    0    0 -0.17426527044E+01 -0.10648377832E+02  0.85427170842E+01  0.13762369140E+02  0.51100000000E-03 0.  1.
         12    1    3    3    0    0 -0.31930754319E+01 -0.69570918041E+01 -0.64462396411E+00  0.76819526905E+01  0.00000000000E+00 0. -1.
</event>
<event>
 7    1  0.2599124E-010  0.4778727E+02  0.7816164E-02  0.1312668E+00
        -11   -1    0    0    0    0  0.00000000000E+00  0.00000000000E+00  0.45593999997E+02  0.45594000000E+02  0.51100000000E-03 0.  1.
         11   -1    0    0    0    0 -0.00000000000E+00 -0.00000000000E+00 -0.45593999997E+02  0.45594000000E+02  0.51100000000E-03 0. -1.
    9900012    2    1    2    0    0  0.69078319826E+01  0.13031277636E+01  0.42827644741E+02  0.47787269145E+02  0.19999991340E+02 0.  0.
         12    1    1    2    0    0 -0.69078319826E+01 -0.13031277636E+01 -0.42827644741E+02  0.43400730855E+02  0.00000000000E+00 0. -1.
         11    1    3    3    0    0 -0.12618872380E+01 -0.13859889367E+01  0.54493650173E+00  0.19519940538E+01  0.51100000000E-03 0. -1.
        -11    1    3    3    0    0  0.90443957831E+01 -0.47300709735E+01  0.23447692101E+02  0.25572816263E+02  0.51100000000E-03 0.  1.
         12    1    3    3    0    0 -0.87467656246E+00  0.74191876738E+01  0.18835016138E+02  0.20262458828E+02  0.00000000000E+00 0. -1.
</event>
<event>
 7    1  0.2599124E-010  0.4778727E+02  0.7816164E-02  0.1312668E+00
        -11   -1    0    0    0    0  0.00000000000E+00  0.00000000000E+00  0.45593999997E+02  0.45594000000E+02  0.51100000000E-03 0. -1.
         11   -1    0    0    0    0 -0.00000000000E+00 -0.00000000000E+00 -0.45593999997E+02  0.45594000000E+02  0.51100000000E-03 0.  1.
    9900012    2    1    2    0    0 -0.21537642268E+02  0.34616624382E+02 -0.14880955190E+02  0.47787267916E+02  0.19999985735E+02 0.  0.
         12    1    1    2    0    0  0.21537642268E+02 -0.34616624382E+02  0.14880955190E+02  0.43400732084E+02  0.00000000000E+00 0. -1.
         11    1    3    3    0    0 -0.52585371703E+00 -0.12895021200E+01 -0.15161807037E+01  0.20586748254E+01  0.51100000000E-03 0.  1.
        -11    1    3    3    0    0  0.21793118112E-01  0.60201047957E+01  0.16134512106E+01  0.62326047333E+01  0.51100000000E-03 0. -1.
         12    1    3    3    0    0 -0.21033581669E+02  0.29886021706E+02 -0.14978225697E+02  0.39495988357E+02  0.00000000000E+00 0. -1.
</event>
<event>
 7    1  0.2599124E-010  0.4778727E+02  0.7816164E-02  0.1312668E+00
        -11   -1    0    0    0    0  0.00000000000E+00  0.00000000000E+00  0.45593999997E+02  0.45594000000E+02  0.51100000000E-03 0.  1.
         11   -1    0    0    0    0 -0.00000000000E+00 -0.00000000000E+00 -0.45593999997E+02  0.45594000000E+02  0.51100000000E-03 0. -1.
    9900012    2    1    2    0    0  0.34537683945E-01  0.38534881641E+02  0.19967096435E+02  0.47787271481E+02  0.20000001992E+02 0.  0.
         12    1    1    2    0    0 -0.34537683945E-01 -0.38534881641E+02 -0.19967096435E+02  0.43400728519E+02  0.00000000000E+00 0. -1.
         11    1    3    3    0    0 -0.71194793358E+00  0.18741736772E+01 -0.75621821226E+00  0.21427232855E+01  0.51100000000E-03 0. -1.
        -11    1    3    3    0    0  0.89943117736E+01  0.23185170836E+02  0.12508426025E+02  0.27837214532E+02  0.51100000000E-03 0.  1.
         12    1    3    3    0    0 -0.82478261560E+01  0.13475537127E+02  0.82148886217E+01  0.17807333664E+02  0.00000000000E+00 0. -1.
</event>
<event>
 7    1  0.2599124E-010  0.4778727E+02  0.7816164E-02  0.1312668E+00
        -11   -1    0    0    0    0  0.00000000000E+00  0.00000000000E+00  0.45593999997E+02  0.45594000000E+02  0.51100000000E-03 0.  1.
         11   -1    0    0    0    0 -0.00000000000E+00 -0.00000000000E+00 -0.45593999997E+02  0.45594000000E+02  0.51100000000E-03 0. -1.
    9900012    2    1    2    0    0 -0.18258198007E+02  0.15078367696E+02  0.36371750242E+02  0.47787272098E+02  0.20000004802E+02 0.  0.
         12    1    1    2    0    0  0.18258198007E+02 -0.15078367696E+02 -0.36371750242E+02  0.43400727902E+02  0.00000000000E+00 0. -1.
         11    1    3    3    0    0  0.19847245223E+00 -0.22841311747E+01  0.12256555680E+02  0.12469154099E+02  0.51100000000E-03 0. -1.
        -11    1    3    3    0    0 -0.20560576443E+01  0.41478851732E+01  0.56804218999E+01  0.73279954742E+01  0.51100000000E-03 0.  1.
        -12    1    3    3    0    0 -0.16400612815E+02  0.13214613697E+02  0.18434772661E+02  0.27990122525E+02  0.00000000000E+00 0.  1.
</event>
<event>
 7    1  0.2599124E-010  0.4778727E+02  0.7816164E-02  0.1312668E+00
        -11   -1    0    0    0    0  0.00000000000E+00  0.00000000000E+00  0.45593999997E+02  0.45594000000E+02  0.51100000000E-03 0.  1.
         11   -1    0    0    0    0 -0.00000000000E+00 -0.00000000000E+00 -0.45593999997E+02  0.45594000000E+02  0.51100000000E-03 0. -1.
    9900012    2    1    2    0    0  0.39487694399E+02 -0.16634666554E+02  0.69016787863E+01  0.47787270624E+02  0.19999998083E+02 0.  0.
         12    1    1    2    0    0 -0.39487694399E+02  0.16634666554E+02 -0.69016787863E+01  0.43400729376E+02  0.00000000000E+00 0. -1.
         11    1    3    3    0    0  0.37662794117E+01 -0.70209592637E+00 -0.86841806612E+00  0.39283520076E+01  0.51100000000E-03 0. -1.
        -11    1    3    3    0    0  0.61986824281E+01 -0.69814124609E+00  0.86033570093E+01  0.10626797125E+02  0.51100000000E-03 0.  1.
         12    1    3    3    0    0  0.29522732559E+02 -0.15234429382E+02 -0.83326015681E+00  0.33232121491E+02  0.00000000000E+00 0. -1.
</event>
<event>
 7    1  0.2599124E-010  0.4778729E+02  0.7816164E-02  0.1312668E+00
        -11   -1    0    0    0    0  0.00000000000E+00  0.00000000000E+00  0.45593999997E+02  0.45594000000E+02  0.51100000000E-03 0. -1.
         11   -1    0    0    0    0 -0.00000000000E+00 -0.00000000000E+00 -0.45593999997E+02  0.45594000000E+02  0.51100000000E-03 0.  1.
    9900012    2    1    2    0    0 -0.35461502594E+02 -0.18776718835E+00 -0.25021347466E+02  0.47787294340E+02  0.20000106215E+02 0.  0.
         12    1    1    2    0    0  0.35461502594E+02  0.18776718835E+00  0.25021347466E+02  0.43400705660E+02  0.00000000000E+00 0. -1.
         11    1    3    3    0    0 -0.18376650868E+02 -0.34805250426E+01 -0.15652253387E+02  0.24388693857E+02  0.51100000000E-03 0. -1.
        -11    1    3    3    0    0 -0.17060599816E+02  0.62326982611E+01 -0.65023486619E+01  0.19292255754E+02  0.51100000000E-03 0.  1.
         12    1    3    3    0    0 -0.24251910172E-01 -0.29399404068E+01 -0.28667454170E+01  0.41063447294E+01  0.00000000000E+00 0. -1.
</event>
<event>
 7    1  0.2599124E-010  0.4778727E+02  0.7816164E-02  0.1312668E+00
        -11   -1    0    0    0    0  0.00000000000E+00  0.00000000000E+00  0.45593999997E+02  0.45594000000E+02  0.51100000000E-03 0.  1.
         11   -1    0    0    0    0 -0.00000000000E+00 -0.00000000000E+00 -0.45593999997E+02  0.45594000000E+02  0.51100000000E-03 0. -1.
    9900012    2    1    2    0    0  0.98121332522E+01 -0.27157264947E+02  0.32401057049E+02  0.47787268482E+02  0.19999988317E+02 0.  0.
         12    1    1    2    0    0 -0.98121332522E+01  0.27157264947E+02 -0.32401057049E+02  0.43400731518E+02  0.00000000000E+00 0. -1.
         11    1    3    3    0    0  0.64405177725E+01 -0.44584820190E+00  0.75560653192E+01  0.99384693573E+01  0.51100000000E-03 0. -1.
        -11    1    3    3    0    0  0.38193714075E+01 -0.41679439070E+01  0.75492110592E+01  0.94313277028E+01  0.51100000000E-03 0.  1.
        -12    1    3    3    0    0 -0.44775592768E+00 -0.22543472839E+02  0.17295780671E+02  0.28417471422E+02  0.00000000000E+00 0.  1.
</event>
<event>
 7    1  0.2599124E-010  0.4778726E+02  0.7816164E-02  0.1312668E+00
        -11   -1    0    0    0    0  0.00000000000E+00  0.00000000000E+00  0.45593999997E+02  0.45594000000E+02  0.51100000000E-03 0. -1.
         11   -1    0    0    0    0 -0.00000000000E+00 -0.00000000000E+00 -0.45593999997E+02  0.45594000000E+02  0.51100000000E-03 0.  1.
    9900012    2    1    2    0    0  0.26993712297E+02  0.27670009307E+02  0.19731548976E+02  0.47787263328E+02  0.19999964818E+02 0.  0.
         12    1    1    2    0    0 -0.26993712297E+02 -0.27670009307E+02 -0.19731548976E+02  0.43400736672E+02  0.00000000000E+00 0. -1.
         11    1    3    3    0    0  0.35305695174E+01  0.37065681012E+01  0.81876521864E+00  0.51840085793E+01  0.51100000000E-03 0. -1.
        -11    1    3    3    0    0  0.22474850171E+01  0.12983806728E+02  0.19859225888E+01  0.13325701289E+02  0.51100000000E-03 0.  1.
         12    1    3    3    0    0  0.21215657763E+02  0.10979634479E+02  0.16926861169E+02  0.29277553460E+02  0.00000000000E+00 0. -1.
</event>
<event>
 7    1  0.2599124E-010  0.4778728E+02  0.7816164E-02  0.1312668E+00
        -11   -1    0    0    0    0  0.00000000000E+00  0.00000000000E+00  0.45593999997E+02  0.45594000000E+02  0.51100000000E-03 0. -1.
         11   -1    0    0    0    0 -0.00000000000E+00 -0.00000000000E+00 -0.45593999997E+02  0.45594000000E+02  0.51100000000E-03 0.  1.
    9900012    2    1    2    0    0 -0.84391463289E+01  0.37576004175E+02 -0.20011182620E+02  0.47787277536E+02  0.20000029598E+02 0.  0.
         12    1    1    2    0    0  0.84391463289E+01 -0.37576004175E+02  0.20011182620E+02  0.43400722464E+02  0.00000000000E+00 0. -1.
         11    1    3    3    0    0 -0.15365165061E+01  0.13687771184E+02 -0.40784725037E+01  0.14364884308E+02  0.51100000000E-03 0. -1.
        -11    1    3    3    0    0 -0.22655017469E+01  0.14807827233E+02 -0.17577278890E+02  0.23094695906E+02  0.51100000000E-03 0.  1.
        -12    1    3    3    0    0 -0.46371280759E+01  0.90804057580E+01  0.16445687738E+01  0.10327697322E+02  0.00000000000E+00 0.  1.
</event>
<event>
 7    1  0.2599124E-010  0.4778727E+02  0.7816164E-02  0.1312668E+00
        -11   -1    0    0    0    0  0.00000000000E+00  0.00000000000E+00  0.45593999997E+02  0.45594000000E+02  0.51100000000E-03 0.  1.
         11   -1    0    0    0    0 -0.00000000000E+00 -0.00000000000E+00 -0.45593999997E+02  0.45594000000E+02  0.51100000000E-03 0. -1.
    9900012    2    1    2    0    0 -0.34941240136E+01 -0.14161774205E+01  0.43236662159E+02  0.47787269410E+02  0.19999992547E+02 0.  0.
         12    1    1    2    0    0  0.34941240136E+01  0.14161774205E+01 -0.43236662159E+02  0.43400730590E+02  0.00000000000E+00 0. -1.
         11    1    3    3    0    0 -0.73190921692E+01  0.39514791082E+01  0.10070234212E+02  0.13061122259E+02  0.51100000000E-03 0. -1.
        -11    1    3    3    0    0  0.26319204817E+00 -0.13273009328E+01  0.24398490049E+02  0.24435984015E+02  0.51100000000E-03 0.  1.
        -12    1    3    3    0    0  0.35617761075E+01 -0.40403555958E+01  0.87679378984E+01  0.10290163136E+02  0.00000000000E+00 0.  1.
</event>
<event>
 7    1  0.2599124E-010  0.4778727E+02  0.7816164E-02  0.1312668E+00
        -11   -1    0    0    0    0  0.00000000000E+00  0.00000000000E+00  0.45593999997E+02  0.45594000000E+02  0.51100000000E-03 0.  1.
         11   -1    0    0    0    0 -0.00000000000E+00 -0.00000000000E+00 -0.45593999997E+02  0.45594000000E+02  0.51100000000E-03 0. -1.
    9900012    2    1    2    0    0  0.13874947700E+02  0.10441472520E+01  0.41109838396E+02  0.47787271548E+02  0.20000002298E+02 0.  0.
         12    1    1    2    0    0 -0.13874947700E+02 -0.10441472520E+01 -0.41109838396E+02  0.43400728452E+02  0.00000000000E+00 0. -1.
         11    1    3    3    0    0  0.11852079920E+01  0.11782948959E+00  0.76217957120E+01  0.77142965920E+01  0.51100000000E-03 0. -1.
        -11    1    3    3    0    0  0.55564211810E+01  0.47104888788E+01  0.30665754444E+02  0.31519058008E+02  0.51100000000E-03 0.  1.
         12    1    3    3    0    0  0.71333185273E+01 -0.37841711164E+01  0.28222882400E+01  0.85539169483E+01  0.00000000000E+00 0. -1.
</event>
<event>
 7    1  0.2599124E-010  0.4778730E+02  0.7816164E-02  0.1312668E+00
        -11   -1    0    0    0    0  0.00000000000E+00  0.00000000000E+00  0.45593999997E+02  0.45594000000E+02  0.51100000000E-03 0. -1.
         11   -1    0    0    0    0 -0.00000000000E+00 -0.00000000000E+00 -0.45593999997E+02  0.45594000000E+02  0.51100000000E-03 0.  1.
    9900012    2    1    2    0    0 -0.25786429453E+02  0.30872169279E+01 -0.34772827480E+02  0.47787304346E+02  0.20000151836E+02 0.  0.
         12    1    1    2    0    0  0.25786429453E+02 -0.30872169279E+01  0.34772827480E+02  0.43400695654E+02  0.00000000000E+00 0. -1.
         11    1    3    3    0    0  0.68727222104E+00 -0.32256820500E+00 -0.12246937132E+01  0.14409261970E+01  0.51100000000E-03 0. -1.
        -11    1    3    3    0    0 -0.13612937376E+02 -0.50838590049E+00 -0.45144751082E+01  0.14350993206E+02  0.51100000000E-03 0.  1.
         12    1    3    3    0    0 -0.12860764297E+02  0.39181710334E+01 -0.29033658659E+02  0.31995384943E+02  0.00000000000E+00 0. -1.
</event>
<event>
 7    1  0.2599124E-010  0.4778728E+02  0.7816164E-02  0.1312668E+00
        -11   -1    0    0    0    0  0.00000000000E+00  0.00000000000E+00  0.45593999997E+02  0.45594000000E+02  0.51100000000E-03 0.  1.
         11   -1    0    0    0    0 -0.00000000000E+00 -0.00000000000E+00 -0.45593999997E+02  0.45594000000E+02  0.51100000000E-03 0. -1.
    9900012    2    1    2    0    0 -0.35303146942E+02  0.23681827706E+02  0.87453863420E+01  0.47787275009E+02  0.20000018074E+02 0.  0.
         12    1    1    2    0    0  0.35303146942E+02 -0.23681827706E+02 -0.87453863420E+01  0.43400724991E+02  0.00000000000E+00 0. -1.
         11    1    3    3    0    0 -0.21068118011E+02  0.18673740913E+02  0.43159909899E+01  0.28481607656E+02  0.51100000000E-03 0. -1.
        -11    1    3    3    0    0 -0.27753117114E+01  0.48916160810E+01 -0.22310839869E+01  0.60504544455E+01  0.51100000000E-03 0.  1.
        -12    1    3    3    0    0 -0.11459717220E+02  0.11647071252E+00  0.66604793390E+01  0.13255212907E+02  0.00000000000E+00 0.  1.
</event>
<event>
 7    1  0.2599124E-010  0.4778727E+02  0.7816164E-02  0.1312668E+00
        -11   -1    0    0    0    0  0.00000000000E+00  0.00000000000E+00  0.45593999997E+02  0.45594000000E+02  0.51100000000E-03 0.  1.
         11   -1    0    0    0    0 -0.00000000000E+00 -0.00000000000E+00 -0.45593999997E+02  0.45594000000E+02  0.51100000000E-03 0. -1.
    9900012    2    1    2    0    0  0.41307177578E+02  0.22207804138E+01  0.13130441991E+02  0.47787270836E+02  0.19999999049E+02 0.  0.
         12    1    1    2    0    0 -0.41307177578E+02 -0.22207804138E+01 -0.13130441991E+02  0.43400729164E+02  0.00000000000E+00 0. -1.
         11    1    3    3    0    0  0.85292940686E+01  0.42510231787E+01  0.49235960435E+01  0.10726688848E+02  0.51100000000E-03 0. -1.
        -11    1    3    3    0    0  0.55662297570E+01 -0.18976266083E+01  0.78978843716E+01  0.98468511850E+01  0.51100000000E-03 0.  1.
         12    1    3    3    0    0  0.27211653752E+02 -0.13261615661E+00  0.30896157629E+00  0.27213730803E+02  0.00000000000E+00 0. -1.
</event>
<event>
 7    1  0.2599124E-010  0.4778728E+02  0.7816164E-02  0.1312668E+00
        -11   -1    0    0    0    0  0.00000000000E+00  0.00000000000E+00  0.45593999997E+02  0.45594000000E+02  0.51100000000E-03 0. -1.
         11   -1    0    0    0    0 -0.00000000000E+00 -0.00000000000E+00 -0.45593999997E+02  0.45594000000E+02  0.51100000000E-03 0.  1.
    9900012    2    1    2    0    0  0.33684586382E+02  0.20021510608E+02  0.18657718051E+02  0.47787277776E+02  0.20000030690E+02 0.  0.
         12    1    1    2    0    0 -0.33684586382E+02 -0.20021510608E+02 -0.18657718051E+02  0.43400722224E+02  0.00000000000E+00 0. -1.
         11    1    3    3    0    0  0.72662217034E+00  0.35144136469E+01 -0.13561525252E+01  0.38364349327E+01  0.51100000000E-03 0. -1.
        -11    1    3    3    0    0  0.21002707046E+02  0.77175929731E+01  0.51764259390E+01  0.22966722237E+02  0.51100000000E-03 0.  1.
         12    1    3    3    0    0  0.11955257165E+02  0.87895039881E+01  0.14837444637E+02  0.20984120606E+02  0.00000000000E+00 0. -1.
</event>
<event>
 7    1  0.2599124E-010  0.4778728E+02  0.7816164E-02  0.1312668E+00
        -11   -1    0    0    0    0  0.00000000000E+00  0.00000000000E+00  0.45593999997E+02  0.45594000000E+02  0.51100000000E-03 0. -1.
         11   -1    0    0    0    0 -0.00000000000E+00 -0.00000000000E+00 -0.45593999997E+02  0.45594000000E+02  0.51100000000E-03 0.  1.
    9900012    2    1    2    0    0  0.17066451484E+01  0.35912528036E+02 -0.24310498690E+02  0.47787278184E+02  0.20000032553E+02 0.  0.
         12    1    1    2    0    0 -0.17066451484E+01 -0.35912528036E+02  0.24310498690E+02  0.43400721816E+02  0.00000000000E+00 0. -1.
         11    1    3    3    0    0  0.94598084967E+00  0.21844089244E+01 -0.35896657624E+01  0.43072291167E+01  0.51100000000E-03 0. -1.
        -11    1    3    3    0    0  0.77194636664E+01  0.23027101300E+02 -0.18485069658E+02  0.30521063450E+02  0.51100000000E-03 0.  1.
         12    1    3    3    0    0 -0.69587993677E+01  0.10701017811E+02 -0.22357632691E+01  0.12958985618E+02  0.00000000000E+00 0. -1.
</event>
<event>
 7    1  0.2599124E-010  0.4778726E+02  0.7816164E-02  0.1312668E+00
        -11   -1    0    0    0    0  0.00000000000E+00  0.00000000000E+00  0.45593999997E+02  0.45594000000E+02  0.51100000000E-03 0.  1.
         11   -1    0    0    0    0 -0.00000000000E+00 -0.00000000000E+00 -0.45593999997E+02  0.45594000000E+02  0.51100000000E-03 0. -1.
    9900012    2    1    2    0    0  0.22883172342E+02 -0.16589319700E+02  0.32935981184E+02  0.47787263127E+02  0.19999963901E+02 0.  0.
         12    1    1    2    0    0 -0.22883172342E+02  0.16589319700E+02 -0.32935981184E+02  0.43400736873E+02  0.00000000000E+00 0. -1.
         11    1    3    3    0    0 -0.20751128372E+01  0.11164266170E+01 -0.33258897716E+00  0.23797305240E+01  0.51100000000E-03 0. -1.
        -11    1    3    3    0    0  0.26534857543E+01 -0.23822600413E+01  0.21321769357E+01  0.41547958192E+01  0.51100000000E-03 0.  1.
        -12    1    3    3    0    0  0.22304799424E+02 -0.15323486276E+02  0.31136393226E+02  0.41252736784E+02  0.00000000000E+00 0.  1.
</event>
<event>
 7    1  0.2599124E-010  0.4778729E+02  0.7816164E-02  0.1312668E+00
        -11   -1    0    0    0    0  0.00000000000E+00  0.00000000000E+00  0.45593999997E+02  0.45594000000E+02  0.51100000000E-03 0.  1.
         11   -1    0    0    0    0 -0.00000000000E+00 -0.00000000000E+00 -0.45593999997E+02  0.45594000000E+02  0.51100000000E-03 0. -1.
    9900012    2    1    2    0    0  0.99229916161E+01 -0.17059498960E+02  0.38653973727E+02  0.47787286270E+02  0.20000069421E+02 0.  0.
         12    1    1    2    0    0 -0.99229916161E+01  0.17059498960E+02 -0.38653973727E+02  0.43400713730E+02  0.00000000000E+00 0. -1.
         11    1    3    3    0    0  0.26594226134E+00 -0.20951903722E+01  0.10664336550E+02  0.10871459069E+02  0.51100000000E-03 0. -1.
        -11    1    3    3    0    0  0.96652112488E+01 -0.11166076774E+01  0.79888031616E+01  0.12589046723E+02  0.51100000000E-03 0.  1.
        -12    1    3    3    0    0 -0.81618939932E-02 -0.13847700910E+02  0.20000834015E+02  0.24326780478E+02  0.00000000000E+00 0.  1.
</event>
<event>
 7    1  0.2599124E-010  0.4778727E+02  0.7816164E-02  0.1312668E+00
        -11   -1    0    0    0    0  0.00000000000E+00  0.00000000000E+00  0.45593999997E+02  0.45594000000E+02  0.51100000000E-03 0. -1.
         11   -1    0    0    0    0 -0.00000000000E+00 -0.00000000000E+00 -0.45593999997E+02  0.45594000000E+02  0.51100000000E-03 0.  1.
    9900012    2    1    2    0    0  0.39556825085E+02  0.17832349149E+02  0.94245017359E+00  0.47787270751E+02  0.19999998662E+02 0.  0.
         12    1    1    2    0    0 -0.39556825085E+02 -0.17832349149E+02 -0.94245017359E+00  0.43400729249E+02  0.00000000000E+00 0. -1.
         11    1    3    3    0    0  0.17908534719E+02  0.26272825391E+01 -0.76725810067E+01  0.19659265726E+02  0.51100000000E-03 0. -1.
        -11    1    3    3    0    0  0.21536826860E+01  0.73835932137E+00 -0.23562992661E+00  0.22888960926E+01  0.51100000000E-03 0.  1.
        -12    1    3    3    0    0  0.19494607680E+02  0.14466707289E+02  0.88506611069E+01  0.25839108932E+02  0.00000000000E+00 0.  1.
</event>
<event>
 7    1  0.2599124E-010  0.4778727E+02  0.7816164E-02  0.1312668E+00
        -11   -1    0    0    0    0  0.00000000000E+00  0.00000000000E+00  0.45593999997E+02  0.45594000000E+02  0.51100000000E-03 0. -1.
         11   -1    0    0    0    0 -0.00000000000E+00 -0.00000000000E+00 -0.45593999997E+02  0.45594000000E+02  0.51100000000E-03 0.  1.
    9900012    2    1    2    0    0  0.41292776001E+02 -0.10280712224E+02 -0.85344325900E+01  0.47787274968E+02  0.20000017890E+02 0.  0.
         12    1    1    2    0    0 -0.41292776001E+02  0.10280712224E+02  0.85344325900E+01  0.43400725032E+02  0.00000000000E+00 0. -1.
         11    1    3    3    0    0  0.94011162080E+01  0.12115286035E+01 -0.51277215592E+01  0.10776934451E+02  0.51100000000E-03 0. -1.
        -11    1    3    3    0    0  0.30176040223E+02 -0.12400417783E+02 -0.65884466352E+01  0.33283199878E+02  0.51100000000E-03 0.  1.
         12    1    3    3    0    0  0.17156195691E+01  0.90817695621E+00  0.31817356044E+01  0.37271406394E+01  0.00000000000E+00 0. -1.
</event>
<event>
 7    1  0.2599124E-010  0.4778727E+02  0.7816164E-02  0.1312668E+00
        -11   -1    0    0    0    0  0.00000000000E+00  0.00000000000E+00  0.45593999997E+02  0.45594000000E+02  0.51100000000E-03 0.  1.
         11   -1    0    0    0    0 -0.00000000000E+00 -0.00000000000E+00 -0.45593999997E+02  0.45594000000E+02  0.51100000000E-03 0. -1.
    9900012    2    1    2    0    0  0.35906116097E+02 -0.44300962405E+01  0.23973907774E+02  0.47787272128E+02  0.20000004941E+02 0.  0.
         12    1    1    2    0    0 -0.35906116097E+02  0.44300962405E+01 -0.23973907774E+02  0.43400727872E+02  0.00000000000E+00 0. -1.
         11    1    3    3    0    0  0.12095639706E+02  0.70685204764E+01  0.58608182043E+01  0.15186101274E+02  0.51100000000E-03 0. -1.
        -11    1    3    3    0    0  0.57711236848E+01 -0.70979864625E+00  0.21196063551E+01  0.61888944138E+01  0.51100000000E-03 0.  1.
         12    1    3    3    0    0  0.18039352706E+02 -0.10788818071E+02  0.15993483215E+02  0.26412276440E+02  0.00000000000E+00 0. -1.
</event>
<event>
 7    1  0.2599124E-010  0.4778727E+02  0.7816164E-02  0.1312668E+00
        -11   -1    0    0    0    0  0.00000000000E+00  0.00000000000E+00  0.45593999997E+02  0.45594000000E+02  0.51100000000E-03 0.  1.
         11   -1    0    0    0    0 -0.00000000000E+00 -0.00000000000E+00 -0.45593999997E+02  0.45594000000E+02  0.51100000000E-03 0. -1.
    9900012    2    1    2    0    0  0.24309525466E+02 -0.32586923341E+02 -0.15190875141E+02  0.47787270873E+02  0.19999999216E+02 0.  0.
         12    1    1    2    0    0 -0.24309525466E+02  0.32586923341E+02  0.15190875141E+02  0.43400729127E+02  0.00000000000E+00 0. -1.
         11    1    3    3    0    0  0.47160117765E+01 -0.70544345538E+01 -0.75443212114E+01  0.11354408692E+02  0.51100000000E-03 0. -1.
        -11    1    3    3    0    0  0.57373087926E+00 -0.42369639254E+01 -0.65964763471E+01  0.78609497445E+01  0.51100000000E-03 0.  1.
        -12    1    3    3    0    0  0.19019782811E+02 -0.21295524862E+02 -0.10500775830E+01  0.28571912436E+02  0.00000000000E+00 0.  1.
</event>
<event>
 7    1  0.2599124E-010  0.4778727E+02  0.7816164E-02  0.1312668E+00
        -11   -1    0    0    0    0  0.00000000000E+00  0.00000000000E+00  0.45593999997E+02  0.45594000000E+02  0.51100000000E-03 0.  1.
         11   -1    0    0    0    0 -0.00000000000E+00 -0.00000000000E+00 -0.45593999997E+02  0.45594000000E+02  0.51100000000E-03 0. -1.
    9900012    2    1    2    0    0 -0.43278646814E+02 -0.78462619300E+00  0.31569855637E+01  0.47787268829E+02  0.19999989901E+02 0.  0.
         12    1    1    2    0    0  0.43278646814E+02  0.78462619300E+00 -0.31569855637E+01  0.43400731171E+02  0.00000000000E+00 0. -1.
         11    1    3    3    0    0 -0.16444633981E+01  0.11164548726E+01  0.27957014815E+01  0.34302592300E+01  0.51100000000E-03 0. -1.
        -11    1    3    3    0    0 -0.31536485369E+02  0.52647397763E+01  0.37055966275E+00  0.31975063863E+02  0.51100000000E-03 0.  1.
         12    1    3    3    0    0 -0.10097698047E+02 -0.71658208418E+01 -0.92755805359E-02  0.12381945736E+02  0.00000000000E+00 0. -1.
</event>
<event>
 7    1  0.2599124E-010  0.4778728E+02  0.7816164E-02  0.1312668E+00
        -11   -1    0    0    0    0  0.00000000000E+00  0.00000000000E+00  0.45593999997E+02  0.45594000000E+02  0.51100000000E-03 0. -1.
         11   -1    0    0    0    0 -0.00000000000E+00 -0.00000000000E+00 -0.45593999997E+02  0.45594000000E+02  0.51100000000E-03 0.  1.
    9900012    2    1    2    0    0 -0.10493882698E+01  0.38198634279E+02 -0.20576326706E+02  0.47787284600E+02  0.20000061803E+02 0.  0.
         12    1    1    2    0    0  0.10493882698E+01 -0.38198634279E+02  0.20576326706E+02  0.43400715400E+02  0.00000000000E+00 0. -1.
         11    1    3    3    0    0  0.18708561218E+01  0.11485205567E+02 -0.31601293203E+01  0.12058045742E+02  0.51100000000E-03 0. -1.
        -11    1    3    3    0    0  0.31351649947E+01  0.76891061647E+01  0.12503708573E+01  0.83973234247E+01  0.51100000000E-03 0.  1.
         12    1    3    3    0    0 -0.60554093863E+01  0.19024322548E+02 -0.18666568243E+02  0.27331915433E+02  0.00000000000E+00 0. -1.
</event>
<event>
 7    1  0.2599124E-010  0.4778727E+02  0.7816164E-02  0.1312668E+00
        -11   -1    0    0    0    0  0.00000000000E+00  0.00000000000E+00  0.45593999997E+02  0.45594000000E+02  0.51100000000E-03 0.  1.
         11   -1    0    0    0    0 -0.00000000000E+00 -0.00000000000E+00 -0.45593999997E+02  0.45594000000E+02  0.51100000000E-03 0. -1.
    9900012    2    1    2    0    0  0.32449436992E+02  0.60917387112E+00  0.28814692986E+02  0.47787267451E+02  0.19999983615E+02 0.  0.
         12    1    1    2    0    0 -0.32449436992E+02 -0.60917387112E+00 -0.28814692986E+02  0.43400732549E+02  0.00000000000E+00 0. -1.
         11    1    3    3    0    0  0.18379720794E+00  0.17799206079E+01  0.55563726740E+01  0.58373946532E+01  0.51100000000E-03 0. -1.
        -11    1    3    3    0    0  0.11669600129E+02  0.14325123711E+01  0.16212464701E+02  0.20026873715E+02  0.51100000000E-03 0.  1.
        -12    1    3    3    0    0  0.20596039656E+02 -0.26032591079E+01  0.70458556114E+01  0.21922999082E+02  0.00000000000E+00 0.  1.
</event>
<event>
 7    1  0.2599124E-010  0.4778727E+02  0.7816164E-02  0.1312668E+00
        -11   -1    0    0    0    0  0.00000000000E+00  0.00000000000E+00  0.45593999997E+02  0.45594000000E+02  0.51100000000E-03 0.  1.
         11   -1    0    0    0    0 -0.00000000000E+00 -0.00000000000E+00 -0.45593999997E+02  0.45594000000E+02  0.51100000000E-03 0. -1.
    9900012    2    1    2    0    0  0.63192708161E+01  0.27288649380E+02  0.33151467326E+02  0.47787270116E+02  0.19999995765E+02 0.  0.
         12    1    1    2    0    0 -0.63192708161E+01 -0.27288649380E+02 -0.33151467326E+02  0.43400729884E+02  0.00000000000E+00 0. -1.
         11    1    3    3    0    0 -0.26816905390E+01 -0.47756634196E-01  0.69398631427E+01  0.74401240275E+01  0.51100000000E-03 0. -1.
        -11    1    3    3    0    0 -0.15364624980E+01  0.11211975090E+02  0.81957450318E+01  0.13972807138E+02  0.51100000000E-03 0.  1.
        -12    1    3    3    0    0  0.10537423853E+02  0.16124430924E+02  0.18015859152E+02  0.26374338950E+02  0.00000000000E+00 0.  1.
</event>
<event>
 7    1  0.2599124E-010  0.4778728E+02  0.7816164E-02  0.1312668E+00
        -11   -1    0    0    0    0  0.00000000000E+00  0.00000000000E+00  0.45593999997E+02  0.45594000000E+02  0.51100000000E-03 0.  1.
         11   -1    0    0    0    0 -0.00000000000E+00 -0.00000000000E+00 -0.45593999997E+02  0.45594000000E+02  0.51100000000E-03 0. -1.
    9900012    2    1    2    0    0  0.38020696872E+02 -0.20757111520E+02  0.26817352548E+01  0.47787276812E+02  0.20000026296E+02 0.  0.
         12    1    1    2    0    0 -0.38020696872E+02  0.20757111520E+02 -0.26817352548E+01  0.43400723188E+02  0.00000000000E+00 0. -1.
         11    1    3    3    0    0  0.17484972462E+02 -0.35218239096E+01 -0.53400374800E+01  0.18618364756E+02  0.51100000000E-03 0. -1.
        -11    1    3    3    0    0  0.95160677560E+01 -0.52030348009E+01 -0.30745536793E+00  0.10849960633E+02  0.51100000000E-03 0.  1.
         12    1    3    3    0    0  0.11019656654E+02 -0.12032252809E+02  0.83292281027E+01  0.18318951423E+02  0.00000000000E+00 0. -1.
</event>
<event>
 7    1  0.2599124E-010  0.4778727E+02  0.7816164E-02  0.1312668E+00
        -11   -1    0    0    0    0  0.00000000000E+00  0.00000000000E+00  0.45593999997E+02  0.45594000000E+02  0.51100000000E-03 0.  1.
         11   -1    0    0    0    0 -0.00000000000E+00 -0.00000000000E+00 -0.45593999997E+02  0.45594000000E+02  0.51100000000E-03 0. -1.
    9900012    2    1    2    0    0 -0.24250745367E+02 -0.12568761609E+02  0.33727598649E+02  0.47787270399E+02  0.19999997058E+02 0.  0.
         12    1    1    2    0    0  0.24250745367E+02  0.12568761609E+02 -0.33727598649E+02  0.43400729601E+02  0.00000000000E+00 0. -1.
         11    1    3    3    0    0  0.44665166999E+00  0.15389639627E+01  0.29464534362E+01  0.33540268194E+01  0.51100000000E-03 0. -1.
        -11    1    3    3    0    0 -0.54673833876E+01 -0.11151217143E+02  0.98065119548E+01  0.15824335748E+02  0.51100000000E-03 0.  1.
         12    1    3    3    0    0 -0.19230013649E+02 -0.29565084290E+01  0.20974633258E+02  0.28608907832E+02  0.00000000000E+00 0. -1.
</event>
<event>
 7    1  0.2599124E-010  0.4778727E+02  0.7816164E-02  0.1312668E+00
        -11   -1    0    0    0    0  0.00000000000E+00  0.00000000000E+00  0.45593999997E+02  0.45594000000E+02  0.51100000000E-03 0. -1.
         11   -1    0    0    0    0 -0.00000000000E+00 -0.00000000000E+00 -0.45593999997E+02  0.45594000000E+02  0.51100000000E-03 0.  1.
    9900012    2    1    2    0    0 -0.63793185834E+01  0.42717994398E+02 -0.42544958066E+01  0.47787268606E+02  0.19999988880E+02 0.  0.
         12    1    1    2    0    0  0.63793185834E+01 -0.42717994398E+02  0.42544958066E+01  0.43400731394E+02  0.00000000000E+00 0. -1.
         11    1    3    3    0    0 -0.17390387387E+01  0.29253171241E+01  0.23748417324E+01  0.41498927126E+01  0.51100000000E-03 0. -1.
        -11    1    3    3    0    0  0.85020334856E+00  0.44018895946E+01  0.42803238537E+01  0.61984393432E+01  0.51100000000E-03 0.  1.
        -12    1    3    3    0    0 -0.54904831933E+01  0.35390787680E+02 -0.10909661393E+02  0.37438936550E+02  0.00000000000E+00 0.  1.
</event>
<event>
 7    1  0.2599124E-010  0.4778723E+02  0.7816164E-02  0.1312668E+00
        -11   -1    0    0    0    0  0.00000000000E+00  0.00000000000E+00  0.45593999997E+02  0.45594000000E+02  0.51100000000E-03 0. -1.
         11   -1    0    0    0    0 -0.00000000000E+00 -0.00000000000E+00 -0.45593999997E+02  0.45594000000E+02  0.51100000000E-03 0.  1.
    9900012    2    1    2    0    0  0.95003548576E+01 -0.36944147934E+02 -0.20700231861E+02  0.47787234936E+02  0.19999835368E+02 0.  0.
         12    1    1    2    0    0 -0.95003548576E+01  0.36944147934E+02  0.20700231861E+02  0.43400765064E+02  0.00000000000E+00 0. -1.
         11    1    3    3    0    0  0.16869947390E+00  0.76273934860E+00 -0.81269579583E+00  0.11272557581E+01  0.51100000000E-03 0. -1.
        -11    1    3    3    0    0  0.13285192247E+02 -0.31095733302E+02 -0.19298911103E+02  0.38934418355E+02  0.51100000000E-03 0.  1.
        -12    1    3    3    0    0 -0.39535368633E+01 -0.66111539809E+01 -0.58862496208E+00  0.77255608233E+01  0.00000000000E+00 0.  1.
</event>
<event>
 7    1  0.2599124E-010  0.4778727E+02  0.7816164E-02  0.1312668E+00
        -11   -1    0    0    0    0  0.00000000000E+00  0.00000000000E+00  0.45593999997E+02  0.45594000000E+02  0.51100000000E-03 0. -1.
         11   -1    0    0    0    0 -0.00000000000E+00 -0.00000000000E+00 -0.45593999997E+02  0.45594000000E+02  0.51100000000E-03 0.  1.
    9900012    2    1    2    0    0  0.19753535653E+02  0.14551699218E+01 -0.38617398673E+02  0.47787272235E+02  0.20000005427E+02 0.  0.
         12    1    1    2    0    0 -0.19753535653E+02 -0.14551699218E+01  0.38617398673E+02  0.43400727765E+02  0.00000000000E+00 0. -1.
         11    1    3    3    0    0  0.53740981493E+01 -0.49074535013E+01 -0.51622428998E+01  0.89225995541E+01  0.51100000000E-03 0. -1.
        -11    1    3    3    0    0  0.25777066907E+00 -0.28865737151E+01 -0.48640517248E+01  0.56619566382E+01  0.51100000000E-03 0.  1.
        -12    1    3    3    0    0  0.14121666835E+02  0.92491971382E+01 -0.28591104048E+02  0.33202716042E+02  0.00000000000E+00 0.  1.
</event>
<event>
 7    1  0.2599124E-010  0.4778727E+02  0.7816164E-02  0.1312668E+00
        -11   -1    0    0    0    0  0.00000000000E+00  0.00000000000E+00  0.45593999997E+02  0.45594000000E+02  0.51100000000E-03 0.  1.
         11   -1    0    0    0    0 -0.00000000000E+00 -0.00000000000E+00 -0.45593999997E+02  0.45594000000E+02  0.51100000000E-03 0. -1.
    9900012    2    1    2    0    0 -0.13721168451E+02  0.24685695211E+02  0.32954047321E+02  0.47787271360E+02  0.20000001437E+02 0.  0.
         12    1    1    2    0    0  0.13721168451E+02 -0.24685695211E+02 -0.32954047321E+02  0.43400728640E+02  0.00000000000E+00 0. -1.
         11    1    3    3    0    0 -0.40737253019E+01 -0.17067994302E+01  0.13186628841E+01  0.46094765639E+01  0.51100000000E-03 0. -1.
        -11    1    3    3    0    0 -0.21243566685E+01  0.70630194751E+01  0.33459064446E+01  0.80990262104E+01  0.51100000000E-03 0.  1.
        -12    1    3    3    0    0 -0.75230864802E+01  0.19329475166E+02  0.28289477992E+02  0.35078768585E+02  0.00000000000E+00 0.  1.
</event>
<event>
 7    1  0.2599124E-010  0.4778727E+02  0.7816164E-02  0.1312668E+00
        -11   -1    0    0    0    0  0.00000000000E+00  0.00000000000E+00  0.45593999997E+02  0.45594000000E+02  0.51100000000E-03 0. -1.
         11   -1    0    0    0    0 -0.00000000000E+00 -0.00000000000E+00 -0.45593999997E+02  0.45594000000E+02  0.51100000000E-03 0.  1.
    9900012    2    1    2    0    0 -0.46416260556E+01 -0.20876942105E+02 -0.37765488495E+02  0.47787268147E+02  0.19999986789E+02 0.  0.
         12    1    1    2    0    0  0.46416260556E+01  0.20876942105E+02  0.37765488495E+02  0.43400731853E+02  0.00000000000E+00 0. -1.
         11    1    3    3    0    0 -0.71303416097E+01 -0.83756341835E+01 -0.17994717914E+02  0.21090350697E+02  0.51100000000E-03 0. -1.
        -11    1    3    3    0    0 -0.48372521977E+01 -0.30629388886E+01 -0.86579927624E+01  0.10379857533E+02  0.51100000000E-03 0.  1.
        -12    1    3    3    0    0  0.73259677518E+01 -0.94383690328E+01 -0.11112777819E+02  0.16317059918E+02  0.00000000000E+00 0.  1.
</event>
<event>
 7    1  0.2599124E-010  0.4778727E+02  0.7816164E-02  0.1312668E+00
        -11   -1    0    0    0    0  0.00000000000E+00  0.00000000000E+00  0.45593999997E+02  0.45594000000E+02  0.51100000000E-03 0. -1.
         11   -1    0    0    0    0 -0.00000000000E+00 -0.00000000000E+00 -0.45593999997E+02  0.45594000000E+02  0.51100000000E-03 0.  1.
    9900012    2    1    2    0    0 -0.47573288265E+01 -0.37326003259E+02 -0.21627774910E+02  0.47787270232E+02  0.19999996295E+02 0.  0.
         12    1    1    2    0    0  0.47573288265E+01  0.37326003259E+02  0.21627774910E+02  0.43400729768E+02  0.00000000000E+00 0. -1.
         11    1    3    3    0    0 -0.79917105279E+01 -0.75632722630E+01 -0.48486621014E+01  0.12024144415E+02  0.51100000000E-03 0. -1.
        -11    1    3    3    0    0 -0.35785433249E+01 -0.13026105346E+02 -0.69050703788E+01  0.15171202655E+02  0.51100000000E-03 0.  1.
        -12    1    3    3    0    0  0.68129250263E+01 -0.16736625650E+02 -0.98740424301E+01  0.20591923161E+02  0.00000000000E+00 0.  1.
</event>
<event>
 7    1  0.2599124E-010  0.4778727E+02  0.7816164E-02  0.1312668E+00
        -11   -1    0    0    0    0  0.00000000000E+00  0.00000000000E+00  0.45593999997E+02  0.45594000000E+02  0.51100000000E-03 0. -1.
         11   -1    0    0    0    0 -0.00000000000E+00 -0.00000000000E+00 -0.45593999997E+02  0.45594000000E+02  0.51100000000E-03 0.  1.
    9900012    2    1    2    0    0 -0.25015164076E+02  0.35278411567E+02  0.36466795068E+01  0.47787273879E+02  0.20000012922E+02 0.  0.
         12    1    1    2    0    0  0.25015164076E+02 -0.35278411567E+02 -0.36466795068E+01  0.43400726121E+02  0.00000000000E+00 0. -1.
         11    1    3    3    0    0 -0.11061163903E+01  0.98464150434E+01  0.14672568509E+01  0.10016397836E+02  0.51100000000E-03 0. -1.
        -11    1    3    3    0    0  0.77084190333E+00  0.41237478639E+01 -0.24186568433E+01  0.48424575240E+01  0.51100000000E-03 0.  1.
        -12    1    3    3    0    0 -0.24679889589E+02  0.21308248660E+02  0.45980794993E+01  0.32928418519E+02  0.00000000000E+00 0.  1.
</event>
<event>
 7    1  0.2599124E-010  0.4778727E+02  0.7816164E-02  0.1312668E+00
        -11   -1    0    0    0    0  0.00000000000E+00  0.00000000000E+00  0.45593999997E+02  0.45594000000E+02  0.51100000000E-03 0. -1.
         11   -1    0    0    0    0 -0.00000000000E+00 -0.00000000000E+00 -0.45593999997E+02  0.45594000000E+02  0.51100000000E-03 0.  1.
    9900012    2    1    2    0    0  0.84573657501E+01  0.37982335149E+02 -0.19220795459E+02  0.47787265019E+02  0.19999972529E+02 0.  0.
         12    1    1    2    0    0 -0.84573657501E+01 -0.37982335149E+02  0.19220795459E+02  0.43400734981E+02  0.00000000000E+00 0. -1.
         11    1    3    3    0    0  0.38768080808E+01  0.10093406454E+02 -0.65933078938E+01  0.12664051641E+02  0.51100000000E-03 0.  1.
        -11    1    3    3    0    0  0.66199460236E+01  0.80405172043E+01 -0.10930933077E+02  0.15098307867E+02  0.51100000000E-03 0. -1.
         12    1    3    3    0    0 -0.20393883543E+01  0.19848411491E+02 -0.16965544887E+01  0.20024905511E+02  0.00000000000E+00 0. -1.
</event>
<event>
 7    1  0.2599124E-010  0.4778727E+02  0.7816164E-02  0.1312668E+00
        -11   -1    0    0    0    0  0.00000000000E+00  0.00000000000E+00  0.45593999997E+02  0.45594000000E+02  0.51100000000E-03 0.  1.
         11   -1    0    0    0    0 -0.00000000000E+00 -0.00000000000E+00 -0.45593999997E+02  0.45594000000E+02  0.51100000000E-03 0. -1.
    9900012    2    1    2    0    0 -0.18383452906E+02 -0.17787205564E+02  0.35061190187E+02  0.47787273280E+02  0.20000010191E+02 0.  0.
         12    1    1    2    0    0  0.18383452906E+02  0.17787205564E+02 -0.35061190187E+02  0.43400726720E+02  0.00000000000E+00 0. -1.
         11    1    3    3    0    0 -0.87301965807E+01 -0.14333632607E+02  0.29011795084E+02  0.33516467748E+02  0.51100000000E-03 0. -1.
        -11    1    3    3    0    0 -0.70629924032E+01 -0.27000470176E+01  0.79493480411E+01  0.10971246516E+02  0.51100000000E-03 0.  1.
         12    1    3    3    0    0 -0.25902639220E+01 -0.75352593980E+00 -0.18999529381E+01  0.32995590152E+01  0.00000000000E+00 0. -1.
</event>
<event>
 7    1  0.2599124E-010  0.4778727E+02  0.7816164E-02  0.1312668E+00
        -11   -1    0    0    0    0  0.00000000000E+00  0.00000000000E+00  0.45593999997E+02  0.45594000000E+02  0.51100000000E-03 0.  1.
         11   -1    0    0    0    0 -0.00000000000E+00 -0.00000000000E+00 -0.45593999997E+02  0.45594000000E+02  0.51100000000E-03 0. -1.
    9900012    2    1    2    0    0 -0.30909479288E+02  0.28821264335E+02  0.98773741319E+01  0.47787266049E+02  0.19999977225E+02 0.  0.
         12    1    1    2    0    0  0.30909479288E+02 -0.28821264335E+02 -0.98773741319E+01  0.43400733951E+02  0.00000000000E+00 0. -1.
         11    1    3    3    0    0 -0.28820751993E+01  0.45768170818E+01  0.26092436703E+01  0.60051448647E+01  0.51100000000E-03 0. -1.
        -11    1    3    3    0    0 -0.15471419489E+02  0.81450104589E+01  0.11505291778E+02  0.20930307106E+02  0.51100000000E-03 0.  1.
         12    1    3    3    0    0 -0.12555984600E+02  0.16099436794E+02 -0.42371613162E+01  0.20851814079E+02  0.00000000000E+00 0. -1.
</event>
<event>
 7    1  0.2599124E-010  0.4778727E+02  0.7816164E-02  0.1312668E+00
        -11   -1    0    0    0    0  0.00000000000E+00  0.00000000000E+00  0.45593999997E+02  0.45594000000E+02  0.51100000000E-03 0. -1.
         11   -1    0    0    0    0 -0.00000000000E+00 -0.00000000000E+00 -0.45593999997E+02  0.45594000000E+02  0.51100000000E-03 0.  1.
    9900012    2    1    2    0    0 -0.21792852547E+02 -0.25839214230E+00 -0.37531696588E+02  0.47787269161E+02  0.19999991411E+02 0.  0.
         12    1    1    2    0    0  0.21792852547E+02  0.25839214230E+00  0.37531696588E+02  0.43400730839E+02  0.00000000000E+00 0. -1.
         11    1    3    3    0    0 -0.10477566968E+02  0.12196858254E+01 -0.21564550662E+02  0.24006184382E+02  0.51100000000E-03 0.  1.
        -11    1    3    3    0    0 -0.14224166217E+02 -0.21195747454E+01 -0.11509528824E+02  0.18419792498E+02  0.51100000000E-03 0. -1.
         12    1    3    3    0    0  0.29088806383E+01  0.64149677770E+00 -0.44576171018E+01  0.53612922799E+01  0.00000000000E+00 0. -1.
</event>
<event>
 7    1  0.2599124E-010  0.4778727E+02  0.7816164E-02  0.1312668E+00
        -11   -1    0    0    0    0  0.00000000000E+00  0.00000000000E+00  0.45593999997E+02  0.45594000000E+02  0.51100000000E-03 0.  1.
         11   -1    0    0    0    0 -0.00000000000E+00 -0.00000000000E+00 -0.45593999997E+02  0.45594000000E+02  0.51100000000E-03 0. -1.
    9900012    2    1    2    0    0  0.31520185930E+02  0.25409950450E+02  0.15634429691E+02  0.47787273109E+02  0.20000009414E+02 0.  0.
         12    1    1    2    0    0 -0.31520185930E+02 -0.25409950450E+02 -0.15634429691E+02  0.43400726891E+02  0.00000000000E+00 0. -1.
         11    1    3    3    0    0  0.93838494690E+01  0.49286817228E+01  0.50282408395E+00  0.10611379114E+02  0.51100000000E-03 0. -1.
        -11    1    3    3    0    0  0.18139442429E+02  0.64136537486E+01  0.99514825765E+01  0.21661171062E+02  0.51100000000E-03 0.  1.
         12    1    3    3    0    0  0.39968940314E+01  0.14067614979E+02  0.51801230302E+01  0.15514722933E+02  0.00000000000E+00 0. -1.
</event>
<event>
 7    1  0.2599124E-010  0.4778727E+02  0.7816164E-02  0.1312668E+00
        -11   -1    0    0    0    0  0.00000000000E+00  0.00000000000E+00  0.45593999997E+02  0.45594000000E+02  0.51100000000E-03 0. -1.
         11   -1    0    0    0    0 -0.00000000000E+00 -0.00000000000E+00 -0.45593999997E+02  0.45594000000E+02  0.51100000000E-03 0.  1.
    9900012    2    1    2    0    0 -0.38296427140E+02 -0.17671392372E+02  0.10233709004E+02  0.47787271435E+02  0.20000001779E+02 0.  0.
         12    1    1    2    0    0  0.38296427140E+02  0.17671392372E+02 -0.10233709004E+02  0.43400728565E+02  0.00000000000E+00 0. -1.
         11    1    3    3    0    0 -0.66288433967E+01 -0.49874979772E+00  0.62947479461E+01  0.91550078157E+01  0.51100000000E-03 0. -1.
        -11    1    3    3    0    0 -0.60643150297E-01 -0.41765551668E+01  0.12112438098E+01  0.43490691511E+01  0.51100000000E-03 0.  1.
         12    1    3    3    0    0 -0.31606940593E+02 -0.12996087407E+02  0.27277172483E+01  0.34283194468E+02  0.00000000000E+00 0. -1.
</event>
<event>
 7    1  0.2599124E-010  0.4778729E+02  0.7816164E-02  0.1312668E+00
        -11   -1    0    0    0    0  0.00000000000E+00  0.00000000000E+00  0.45593999997E+02  0.45594000000E+02  0.51100000000E-03 0.  1.
         11   -1    0    0    0    0 -0.00000000000E+00 -0.00000000000E+00 -0.45593999997E+02  0.45594000000E+02  0.51100000000E-03 0. -1.
    9900012    2    1    2    0    0 -0.37124849010E+02 -0.15948795869E+02  0.15843081438E+02  0.47787288795E+02  0.20000080932E+02 0.  0.
         12    1    1    2    0    0  0.37124849010E+02  0.15948795869E+02 -0.15843081438E+02  0.43400711205E+02  0.00000000000E+00 0. -1.
         11    1    3    3    0    0 -0.87963365980E+01 -0.12633108114E+02  0.90729496554E+01  0.17868670177E+02  0.51100000000E-03 0. -1.
        -11    1    3    3    0    0 -0.16370562254E+01  0.44516075976E+00  0.18643988771E+01  0.25207349367E+01  0.51100000000E-03 0.  1.
         12    1    3    3    0    0 -0.26691456186E+02 -0.37608485144E+01  0.49057329054E+01  0.27397883682E+02  0.00000000000E+00 0. -1.
</event>
<event>
 7    1  0.2599124E-010  0.4778727E+02  0.7816164E-02  0.1312668E+00
        -11   -1    0    0    0    0  0.00000000000E+00  0.00000000000E+00  0.45593999997E+02  0.45594000000E+02  0.51100000000E-03 0.  1.
         11   -1    0    0    0    0 -0.00000000000E+00 -0.00000000000E+00 -0.45593999997E+02  0.45594000000E+02  0.51100000000E-03 0. -1.
    9900012    2    1    2    0    0  0.74545295967E+01  0.28968044564E+02  0.31446874422E+02  0.47787268113E+02  0.19999986634E+02 0.  0.
         12    1    1    2    0    0 -0.74545295967E+01 -0.28968044564E+02 -0.31446874422E+02  0.43400731887E+02  0.00000000000E+00 0. -1.
         11    1    3    3    0    0 -0.89456908206E+00  0.15619654568E+02  0.10227896711E+02  0.18691809277E+02  0.51100000000E-03 0. -1.
        -11    1    3    3    0    0  0.17114387757E+01  0.10549782519E+02  0.18559161561E+02  0.21416568632E+02  0.51100000000E-03 0.  1.
         12    1    3    3    0    0  0.66376599031E+01  0.27986074777E+01  0.26598161510E+01  0.76788902037E+01  0.00000000000E+00 0. -1.
</event>
<event>
 7    1  0.2599124E-010  0.4778727E+02  0.7816164E-02  0.1312668E+00
        -11   -1    0    0    0    0  0.00000000000E+00  0.00000000000E+00  0.45593999997E+02  0.45594000000E+02  0.51100000000E-03 0.  1.
         11   -1    0    0    0    0 -0.00000000000E+00 -0.00000000000E+00 -0.45593999997E+02  0.45594000000E+02  0.51100000000E-03 0. -1.
    9900012    2    1    2    0    0 -0.29049155633E+02  0.13648062740E+02  0.29214725571E+02  0.47787271323E+02  0.20000001268E+02 0.  0.
         12    1    1    2    0    0  0.29049155633E+02 -0.13648062740E+02 -0.29214725571E+02  0.43400728677E+02  0.00000000000E+00 0. -1.
         11    1    3    3    0    0 -0.16164723125E+02  0.94500373388E+01  0.11941801499E+02  0.22208289054E+02  0.51100000000E-03 0. -1.
        -11    1    3    3    0    0 -0.34438947659E+01  0.50540489863E+01  0.28162888735E+00  0.61223473771E+01  0.51100000000E-03 0.  1.
        -12    1    3    3    0    0 -0.94405377424E+01 -0.85602358544E+00  0.16991295185E+02  0.19456634892E+02  0.00000000000E+00 0.  1.
</event>
<event>
 7    1  0.2599124E-010  0.4778727E+02  0.7816164E-02  0.1312668E+00
        -11   -1    0    0    0    0  0.00000000000E+00  0.00000000000E+00  0.45593999997E+02  0.45594000000E+02  0.51100000000E-03 0. -1.
         11   -1    0    0    0    0 -0.00000000000E+00 -0.00000000000E+00 -0.45593999997E+02  0.45594000000E+02  0.51100000000E-03 0.  1.
    9900012    2    1    2    0    0  0.27045249855E+02  0.92474665757E+01 -0.32659798176E+02  0.47787267349E+02  0.19999983149E+02 0.  0.
         12    1    1    2    0    0 -0.27045249855E+02 -0.92474665757E+01  0.32659798176E+02  0.43400732651E+02  0.00000000000E+00 0. -1.
         11    1    3    3    0    0  0.96200003514E+01 -0.15749430934E+01 -0.96302861105E+01  0.13702819540E+02  0.51100000000E-03 0.  1.
        -11    1    3    3    0    0  0.14290817084E+02  0.47439341621E+01 -0.68967450391E+01  0.16561927927E+02  0.51100000000E-03 0. -1.
        -12    1    3    3    0    0  0.31344324199E+01  0.60784755071E+01 -0.16132767026E+02  0.17522519882E+02  0.00000000000E+00 0.  1.
</event>
<event>
 7    1  0.2599124E-010  0.4778727E+02  0.7816164E-02  0.1312668E+00
        -11   -1    0    0    0    0  0.00000000000E+00  0.00000000000E+00  0.45593999997E+02  0.45594000000E+02  0.51100000000E-03 0.  1.
         11   -1    0    0    0    0 -0.00000000000E+00 -0.00000000000E+00 -0.45593999997E+02  0.45594000000E+02  0.51100000000E-03 0. -1.
    9900012    2    1    2    0    0 -0.41480706624E+02 -0.12732690830E+02 -0.92359349762E+00  0.47787268869E+02  0.19999990080E+02 0.  0.
         12    1    1    2    0    0  0.41480706624E+02  0.12732690830E+02  0.92359349762E+00  0.43400731131E+02  0.00000000000E+00 0. -1.
         11    1    3    3    0    0 -0.67914789062E+01  0.19023870282E+00  0.37248627776E+01  0.77482242785E+01  0.51100000000E-03 0. -1.
        -11    1    3    3    0    0 -0.22151989901E+01  0.21758424068E+01  0.18893102318E+01  0.36346788246E+01  0.51100000000E-03 0.  1.
        -12    1    3    3    0    0 -0.32474028728E+02 -0.15098771940E+02 -0.65377665070E+01  0.36404365766E+02  0.00000000000E+00 0.  1.
</event>
<event>
 7    1  0.2599124E-010  0.4778727E+02  0.7816164E-02  0.1312668E+00
        -11   -1    0    0    0    0  0.00000000000E+00  0.00000000000E+00  0.45593999997E+02  0.45594000000E+02  0.51100000000E-03 0.  1.
         11   -1    0    0    0    0 -0.00000000000E+00 -0.00000000000E+00 -0.45593999997E+02  0.45594000000E+02  0.51100000000E-03 0. -1.
    9900012    2    1    2    0    0 -0.31986411530E+02 -0.23485536408E+02 -0.17576199374E+02  0.47787265820E+02  0.19999976179E+02 0.  0.
         12    1    1    2    0    0  0.31986411530E+02  0.23485536408E+02  0.17576199374E+02  0.43400734180E+02  0.00000000000E+00 0. -1.
         11    1    3    3    0    0 -0.21093304839E+02 -0.15257217491E+02 -0.16684429404E+02  0.30920549468E+02  0.51100000000E-03 0. -1.
        -11    1    3    3    0    0 -0.43160935839E+01 -0.78878268219E+01 -0.36794680120E+01  0.97151922734E+01  0.51100000000E-03 0.  1.
        -12    1    3    3    0    0 -0.65770131067E+01 -0.34049209511E+00  0.27876980416E+01  0.71515240784E+01  0.00000000000E+00 0.  1.
</event>
<event>
 7    1  0.2599124E-010  0.4778727E+02  0.7816164E-02  0.1312668E+00
        -11   -1    0    0    0    0  0.00000000000E+00  0.00000000000E+00  0.45593999997E+02  0.45594000000E+02  0.51100000000E-03 0. -1.
         11   -1    0    0    0    0 -0.00000000000E+00 -0.00000000000E+00 -0.45593999997E+02  0.45594000000E+02  0.51100000000E-03 0.  1.
    9900012    2    1    2    0    0 -0.21757826388E+02  0.34429877848E+02 -0.14993470939E+02  0.47787266497E+02  0.19999979267E+02 0.  0.
         12    1    1    2    0    0  0.21757826388E+02 -0.34429877848E+02  0.14993470939E+02  0.43400733503E+02  0.00000000000E+00 0. -1.
         11    1    3    3    0    0 -0.80409934362E+01  0.56559786283E+01 -0.82499739000E+01  0.12833929223E+02  0.51100000000E-03 0. -1.
        -11    1    3    3    0    0 -0.31496046021E+01  0.15817432806E+02 -0.83421961602E+01  0.18157737380E+02  0.51100000000E-03 0.  1.
        -12    1    3    3    0    0 -0.10567228350E+02  0.12956466414E+02  0.15986991208E+01  0.16795599894E+02  0.00000000000E+00 0.  1.
</event>
<event>
 7    1  0.2599124E-010  0.4778727E+02  0.7816164E-02  0.1312668E+00
        -11   -1    0    0    0    0  0.00000000000E+00  0.00000000000E+00  0.45593999997E+02  0.45594000000E+02  0.51100000000E-03 0.  1.
         11   -1    0    0    0    0 -0.00000000000E+00 -0.00000000000E+00 -0.45593999997E+02  0.45594000000E+02  0.51100000000E-03 0. -1.
    9900012    2    1    2    0    0  0.34089930777E+02  0.23997709762E+02  0.12066896297E+02  0.47787269126E+02  0.19999991252E+02 0.  0.
         12    1    1    2    0    0 -0.34089930777E+02 -0.23997709762E+02 -0.12066896297E+02  0.43400730874E+02  0.00000000000E+00 0. -1.
         11    1    3    3    0    0  0.48709574970E+00  0.40804706144E+01 -0.25636037638E+01  0.48435077396E+01  0.51100000000E-03 0. -1.
        -11    1    3    3    0    0  0.92967155910E+01  0.97853446687E+00  0.15798763089E+01  0.94806360491E+01  0.51100000000E-03 0.  1.
        -12    1    3    3    0    0  0.24306119436E+02  0.18938704681E+02  0.13050623751E+02  0.33463125337E+02  0.00000000000E+00 0.  1.
</event>
<event>
 7    1  0.2599124E-010  0.4778727E+02  0.7816164E-02  0.1312668E+00
        -11   -1    0    0    0    0  0.00000000000E+00  0.00000000000E+00  0.45593999997E+02  0.45594000000E+02  0.51100000000E-03 0.  1.
         11   -1    0    0    0    0 -0.00000000000E+00 -0.00000000000E+00 -0.45593999997E+02  0.45594000000E+02  0.51100000000E-03 0. -1.
    9900012    2    1    2    0    0 -0.51341060803E+01  0.18263080466E+02  0.39034909616E+02  0.47787270489E+02  0.19999997469E+02 0.  0.
         12    1    1    2    0    0  0.51341060803E+01 -0.18263080466E+02 -0.39034909616E+02  0.43400729511E+02  0.00000000000E+00 0. -1.
         11    1    3    3    0    0  0.97179195061E+00  0.19502841461E+01  0.14965706012E+00  0.21841211831E+01  0.51100000000E-03 0. -1.
        -11    1    3    3    0    0  0.34932661701E+01  0.77549257188E+01  0.63374021745E+01  0.10606811397E+02  0.51100000000E-03 0.  1.
        -12    1    3    3    0    0 -0.95991642010E+01  0.85578706012E+01  0.32547850381E+02  0.34996337909E+02  0.00000000000E+00 0.  1.
</event>
<event>
 7    1  0.2599124E-010  0.4778726E+02  0.7816164E-02  0.1312668E+00
        -11   -1    0    0    0    0  0.00000000000E+00  0.00000000000E+00  0.45593999997E+02  0.45594000000E+02  0.51100000000E-03 0.  1.
         11   -1    0    0    0    0 -0.00000000000E+00 -0.00000000000E+00 -0.45593999997E+02  0.45594000000E+02  0.51100000000E-03 0. -1.
    9900012    2    1    2    0    0 -0.39737954459E+02  0.19517554652E+01  0.17340980272E+02  0.47787263016E+02  0.19999963394E+02 0.  0.
         12    1    1    2    0    0  0.39737954459E+02 -0.19517554652E+01 -0.17340980272E+02  0.43400736984E+02  0.00000000000E+00 0. -1.
         11    1    3    3    0    0 -0.17344390953E+02 -0.53334683120E+01  0.53757511610E+01  0.18925445373E+02  0.51100000000E-03 0.  1.
        -11    1    3    3    0    0  0.13082580067E+01  0.45444955259E+00 -0.12705453773E+00  0.13907575363E+01  0.51100000000E-03 0. -1.
         12    1    3    3    0    0 -0.23701821512E+02  0.68307742246E+01  0.12092283649E+02  0.27471060106E+02  0.00000000000E+00 0. -1.
</event>
<event>
 7    1  0.2599124E-010  0.4778727E+02  0.7816164E-02  0.1312668E+00
        -11   -1    0    0    0    0  0.00000000000E+00  0.00000000000E+00  0.45593999997E+02  0.45594000000E+02  0.51100000000E-03 0. -1.
         11   -1    0    0    0    0 -0.00000000000E+00 -0.00000000000E+00 -0.45593999997E+02  0.45594000000E+02  0.51100000000E-03 0.  1.
    9900012    2    1    2    0    0  0.27562123764E+02  0.26686933895E+01 -0.33419012356E+02  0.47787274457E+02  0.20000015561E+02 0.  0.
         12    1    1    2    0    0 -0.27562123764E+02 -0.26686933895E+01  0.33419012356E+02  0.43400725543E+02  0.00000000000E+00 0. -1.
         11    1    3    3    0    0  0.66034979190E+01  0.17140451292E+01 -0.15138682810E+02  0.16604934597E+02  0.51100000000E-03 0.  1.
        -11    1    3    3    0    0  0.94911030700E+01 -0.64554775217E+01 -0.99323768072E+01  0.15179141505E+02  0.51100000000E-03 0. -1.
         12    1    3    3    0    0  0.11467522775E+02  0.74101257820E+01 -0.83479527387E+01  0.16003198356E+02  0.00000000000E+00 0. -1.
</event>
<event>
 7    1  0.2599124E-010  0.4778727E+02  0.7816164E-02  0.1312668E+00
        -11   -1    0    0    0    0  0.00000000000E+00  0.00000000000E+00  0.45593999997E+02  0.45594000000E+02  0.51100000000E-03 0.  1.
         11   -1    0    0    0    0 -0.00000000000E+00 -0.00000000000E+00 -0.45593999997E+02  0.45594000000E+02  0.51100000000E-03 0. -1.
    9900012    2    1    2    0    0 -0.99860986250E+01  0.93780375561E+01  0.41181958715E+02  0.47787268695E+02  0.19999989289E+02 0.  0.
         12    1    1    2    0    0  0.99860986250E+01 -0.93780375561E+01 -0.41181958715E+02  0.43400731305E+02  0.00000000000E+00 0. -1.
         11    1    3    3    0    0  0.11912459826E+01  0.65613930822E+01  0.62606500856E+01  0.91469495421E+01  0.51100000000E-03 0. -1.
        -11    1    3    3    0    0  0.21430499734E+01  0.21779227410E+01  0.46793645725E+01  0.55886012309E+01  0.51100000000E-03 0.  1.
        -12    1    3    3    0    0 -0.13320394581E+02  0.63872173296E+00  0.30241944057E+02  0.33051717922E+02  0.00000000000E+00 0.  1.
</event>
<event>
 7    1  0.2599124E-010  0.4778727E+02  0.7816164E-02  0.1312668E+00
        -11   -1    0    0    0    0  0.00000000000E+00  0.00000000000E+00  0.45593999997E+02  0.45594000000E+02  0.51100000000E-03 0.  1.
         11   -1    0    0    0    0 -0.00000000000E+00 -0.00000000000E+00 -0.45593999997E+02  0.45594000000E+02  0.51100000000E-03 0. -1.
    9900012    2    1    2    0    0  0.93865428080E+01  0.16802204143E+02  0.38899898420E+02  0.47787270202E+02  0.19999996159E+02 0.  0.
         12    1    1    2    0    0 -0.93865428080E+01 -0.16802204143E+02 -0.38899898420E+02  0.43400729798E+02  0.00000000000E+00 0. -1.
         11    1    3    3    0    0  0.13752797091E+02  0.11017985580E+02  0.22356318514E+02  0.28466478740E+02  0.51100000000E-03 0. -1.
        -11    1    3    3    0    0  0.13771048048E+00 -0.13322682782E+01  0.39474009399E+01  0.41684382427E+01  0.51100000000E-03 0.  1.
         12    1    3    3    0    0 -0.45039647638E+01  0.71164868416E+01  0.12596178966E+02  0.15152353220E+02  0.00000000000E+00 0. -1.
</event>
<event>
 7    1  0.2599124E-010  0.4778727E+02  0.7816164E-02  0.1312668E+00
        -11   -1    0    0    0    0  0.00000000000E+00  0.00000000000E+00  0.45593999997E+02  0.45594000000E+02  0.51100000000E-03 0.  1.
         11   -1    0    0    0    0 -0.00000000000E+00 -0.00000000000E+00 -0.45593999997E+02  0.45594000000E+02  0.51100000000E-03 0. -1.
    9900012    2    1    2    0    0  0.27923255219E+02  0.29155361126E+02 -0.15933616637E+02  0.47787269550E+02  0.19999993188E+02 0.  0.
         12    1    1    2    0    0 -0.27923255219E+02 -0.29155361126E+02  0.15933616637E+02  0.43400730450E+02  0.00000000000E+00 0. -1.
         11    1    3    3    0    0 -0.16979661829E+01  0.52867262662E+01 -0.48516698646E+01  0.73736873074E+01  0.51100000000E-03 0. -1.
        -11    1    3    3    0    0  0.10255465281E+02  0.57544856927E+01 -0.67076498741E+01  0.13538140228E+02  0.51100000000E-03 0.  1.
        -12    1    3    3    0    0  0.19365756120E+02  0.18114149168E+02 -0.43742968985E+01  0.26875442015E+02  0.00000000000E+00 0.  1.
</event>
<event>
 7    1  0.2599124E-010  0.4778727E+02  0.7816164E-02  0.1312668E+00
        -11   -1    0    0    0    0  0.00000000000E+00  0.00000000000E+00  0.45593999997E+02  0.45594000000E+02  0.51100000000E-03 0.  1.
         11   -1    0    0    0    0 -0.00000000000E+00 -0.00000000000E+00 -0.45593999997E+02  0.45594000000E+02  0.51100000000E-03 0. -1.
    9900012    2    1    2    0    0  0.31896139449E+02 -0.25166069354E+02  0.15262003048E+02  0.47787268491E+02  0.19999988358E+02 0.  0.
         12    1    1    2    0    0 -0.31896139449E+02  0.25166069354E+02 -0.15262003048E+02  0.43400731509E+02  0.00000000000E+00 0. -1.
         11    1    3    3    0    0  0.30533380851E+02 -0.20241366216E+02  0.95742078085E+01  0.37863778310E+02  0.51100000000E-03 0. -1.
        -11    1    3    3    0    0  0.27624859403E+01 -0.43622707099E+01  0.13588100231E+01  0.53392039910E+01  0.51100000000E-03 0.  1.
        -12    1    3    3    0    0 -0.13997273425E+01 -0.56243242799E+00  0.43289852164E+01  0.45842861902E+01  0.00000000000E+00 0.  1.
</event>
<event>
 7    1  0.2599124E-010  0.4778727E+02  0.7816164E-02  0.1312668E+00
        -11   -1    0    0    0    0  0.00000000000E+00  0.00000000000E+00  0.45593999997E+02  0.45594000000E+02  0.51100000000E-03 0.  1.
         11   -1    0    0    0    0 -0.00000000000E+00 -0.00000000000E+00 -0.45593999997E+02  0.45594000000E+02  0.51100000000E-03 0. -1.
    9900012    2    1    2    0    0 -0.46892067084E+01 -0.63087201134E+01  0.42682954944E+02  0.47787271299E+02  0.20000001159E+02 0.  0.
         12    1    1    2    0    0  0.46892067084E+01  0.63087201134E+01 -0.42682954944E+02  0.43400728701E+02  0.00000000000E+00 0. -1.
         11    1    3    3    0    0  0.36373307160E+01  0.28322595415E+01  0.58565427383E+01  0.74532517705E+01  0.51100000000E-03 0. -1.
        -11    1    3    3    0    0 -0.20303513543E+00 -0.13451594024E+01  0.20248966534E+02  0.20294613153E+02  0.51100000000E-03 0.  1.
        -12    1    3    3    0    0 -0.81235022890E+01 -0.77958202525E+01  0.16577445672E+02  0.20039406375E+02  0.00000000000E+00 0.  1.
</event>
<event>
 7    1  0.2599124E-010  0.4778728E+02  0.7816164E-02  0.1312668E+00
        -11   -1    0    0    0    0  0.00000000000E+00  0.00000000000E+00  0.45593999997E+02  0.45594000000E+02  0.51100000000E-03 0.  1.
         11   -1    0    0    0    0 -0.00000000000E+00 -0.00000000000E+00 -0.45593999997E+02  0.45594000000E+02  0.51100000000E-03 0. -1.
    9900012    2    1    2    0    0  0.23447771929E+02  0.12370725455E+02  0.34362618780E+02  0.47787280811E+02  0.20000044530E+02 0.  0.
         12    1    1    2    0    0 -0.23447771929E+02 -0.12370725455E+02 -0.34362618780E+02  0.43400719189E+02  0.00000000000E+00 0. -1.
         11    1    3    3    0    0  0.60901730702E+00  0.28469072748E+01  0.52883334824E+01  0.60367420347E+01  0.51100000000E-03 0. -1.
        -11    1    3    3    0    0  0.18592301421E+01  0.71746961067E-01  0.14266227059E+02  0.14387046921E+02  0.51100000000E-03 0.  1.
         12    1    3    3    0    0  0.20979524480E+02  0.94520712192E+01  0.14808058239E+02  0.27363491855E+02  0.00000000000E+00 0. -1.
</event>
<event>
 7    1  0.2599124E-010  0.4778727E+02  0.7816164E-02  0.1312668E+00
        -11   -1    0    0    0    0  0.00000000000E+00  0.00000000000E+00  0.45593999997E+02  0.45594000000E+02  0.51100000000E-03 0.  1.
         11   -1    0    0    0    0 -0.00000000000E+00 -0.00000000000E+00 -0.45593999997E+02  0.45594000000E+02  0.51100000000E-03 0. -1.
    9900012    2    1    2    0    0 -0.31598793371E+02  0.22557266055E+02  0.19398688271E+02  0.47787273036E+02  0.20000009078E+02 0.  0.
         12    1    1    2    0    0  0.31598793371E+02 -0.22557266055E+02 -0.19398688271E+02  0.43400726964E+02  0.00000000000E+00 0. -1.
         11    1    3    3    0    0 -0.37502693600E+01 -0.17148846343E+01  0.62036861457E+01  0.74492329563E+01  0.51100000000E-03 0. -1.
        -11    1    3    3    0    0 -0.12369560944E+02  0.10040075264E+02  0.10636039623E+02  0.19155534145E+02  0.51100000000E-03 0.  1.
         12    1    3    3    0    0 -0.15478963068E+02  0.14232075425E+02  0.25589625017E+01  0.21182505934E+02  0.00000000000E+00 0. -1.
</event>
<event>
 7    1  0.2599124E-010  0.4778725E+02  0.7816164E-02  0.1312668E+00
        -11   -1    0    0    0    0  0.00000000000E+00  0.00000000000E+00  0.45593999997E+02  0.45594000000E+02  0.51100000000E-03 0.  1.
         11   -1    0    0    0    0 -0.00000000000E+00 -0.00000000000E+00 -0.45593999997E+02  0.45594000000E+02  0.51100000000E-03 0. -1.
    9900012    2    1    2    0    0 -0.38746935181E+02 -0.18449058183E+00  0.19551616314E+02  0.47787254348E+02  0.19999923874E+02 0.  0.
         12    1    1    2    0    0  0.38746935181E+02  0.18449058183E+00 -0.19551616314E+02  0.43400745652E+02  0.00000000000E+00 0. -1.
         11    1    3    3    0    0 -0.23068839575E+02 -0.36939902209E+01  0.51721827537E+01  0.23928401488E+02  0.51100000000E-03 0. -1.
        -11    1    3    3    0    0 -0.72672411084E+01 -0.16996582277E+01  0.14905481084E+01  0.76107401311E+01  0.51100000000E-03 0.  1.
        -12    1    3    3    0    0 -0.84108544975E+01  0.52091578668E+01  0.12888885451E+02  0.16248112729E+02  0.00000000000E+00 0.  1.
</event>
<event>
 7    1  0.2599124E-010  0.4778727E+02  0.7816164E-02  0.1312668E+00
        -11   -1    0    0    0    0  0.00000000000E+00  0.00000000000E+00  0.45593999997E+02  0.45594000000E+02  0.51100000000E-03 0. -1.
         11   -1    0    0    0    0 -0.00000000000E+00 -0.00000000000E+00 -0.45593999997E+02  0.45594000000E+02  0.51100000000E-03 0.  1.
    9900012    2    1    2    0    0 -0.18754553799E+02 -0.36867000480E+02 -0.13142085030E+02  0.47787269458E+02  0.19999992769E+02 0.  0.
         12    1    1    2    0    0  0.18754553799E+02  0.36867000480E+02  0.13142085030E+02  0.43400730542E+02  0.00000000000E+00 0. -1.
         11    1    3    3    0    0 -0.80352378973E+01 -0.64878184683E+01  0.31142306547E+00  0.10332174076E+02  0.51100000000E-03 0. -1.
        -11    1    3    3    0    0 -0.24373962153E-01 -0.19859683076E+01  0.24862764671E+01  0.31821745931E+01  0.51100000000E-03 0.  1.
        -12    1    3    3    0    0 -0.10694941939E+02 -0.28393213704E+02 -0.15939784563E+02  0.34272920790E+02  0.00000000000E+00 0.  1.
</event>
<event>
 7    1  0.2599124E-010  0.4778727E+02  0.7816164E-02  0.1312668E+00
        -11   -1    0    0    0    0  0.00000000000E+00  0.00000000000E+00  0.45593999997E+02  0.45594000000E+02  0.51100000000E-03 0. -1.
         11   -1    0    0    0    0 -0.00000000000E+00 -0.00000000000E+00 -0.45593999997E+02  0.45594000000E+02  0.51100000000E-03 0.  1.
    9900012    2    1    2    0    0 -0.21334762123E+02 -0.78495190858E+00 -0.37786706300E+02  0.47787269622E+02  0.19999993514E+02 0.  0.
         12    1    1    2    0    0  0.21334762123E+02  0.78495190858E+00  0.37786706300E+02  0.43400730378E+02  0.00000000000E+00 0. -1.
         11    1    3    3    0    0 -0.21941116841E+02  0.30750878925E+01 -0.22991229936E+02  0.31929068699E+02  0.51100000000E-03 0. -1.
        -11    1    3    3    0    0 -0.10301353888E+01 -0.17703993497E+00 -0.70487563008E+01  0.71258324220E+01  0.51100000000E-03 0.  1.
         12    1    3    3    0    0  0.16364901070E+01 -0.36829998662E+01 -0.77467200640E+01  0.87323685009E+01  0.00000000000E+00 0. -1.
</event>
<event>
 7    1  0.2599124E-010  0.4778728E+02  0.7816164E-02  0.1312668E+00
        -11   -1    0    0    0    0  0.00000000000E+00  0.00000000000E+00  0.45593999997E+02  0.45594000000E+02  0.51100000000E-03 0.  1.
         11   -1    0    0    0    0 -0.00000000000E+00 -0.00000000000E+00 -0.45593999997E+02  0.45594000000E+02  0.51100000000E-03 0. -1.
    9900012    2    1    2    0    0 -0.31255917415E+02  0.56654030109E+01  0.29573529371E+02  0.47787276456E+02  0.20000024672E+02 0.  0.
         12    1    1    2    0    0  0.31255917415E+02 -0.56654030109E+01 -0.29573529371E+02  0.43400723544E+02  0.00000000000E+00 0. -1.
         11    1    3    3    0    0 -0.45632712109E+01 -0.59921812990E+01  0.66643609484E+01  0.10057006909E+02  0.51100000000E-03 0. -1.
        -11    1    3    3    0    0 -0.91347304329E+01  0.12112191433E+01  0.46132984418E+01  0.10304992706E+02  0.51100000000E-03 0.  1.
        -12    1    3    3    0    0 -0.17557915771E+02  0.10446365167E+02  0.18295869981E+02  0.27425276840E+02  0.00000000000E+00 0.  1.
</event>
<event>
 7    1  0.2599124E-010  0.4778727E+02  0.7816164E-02  0.1312668E+00
        -11   -1    0    0    0    0  0.00000000000E+00  0.00000000000E+00  0.45593999997E+02  0.45594000000E+02  0.51100000000E-03 0.  1.
         11   -1    0    0    0    0 -0.00000000000E+00 -0.00000000000E+00 -0.45593999997E+02  0.45594000000E+02  0.51100000000E-03 0. -1.
    9900012    2    1    2    0    0  0.74312533376E+01 -0.37962064725E+02  0.19679462432E+02  0.47787272748E+02  0.20000007769E+02 0.  0.
         12    1    1    2    0    0 -0.74312533376E+01  0.37962064725E+02 -0.19679462432E+02  0.43400727252E+02  0.00000000000E+00 0. -1.
         11    1    3    3    0    0  0.62561193384E+00 -0.97825343857E+01 -0.30327265006E+01  0.10260935610E+02  0.51100000000E-03 0. -1.
        -11    1    3    3    0    0  0.25395510567E+01 -0.81148455345E+01  0.28366398092E+01  0.89636244504E+01  0.51100000000E-03 0.  1.
        -12    1    3    3    0    0  0.42660903471E+01 -0.20064684805E+02  0.19875549123E+02  0.28562712688E+02  0.00000000000E+00 0.  1.
</event>
<event>
 7    1  0.2599124E-010  0.4778727E+02  0.7816164E-02  0.1312668E+00
        -11   -1    0    0    0    0  0.00000000000E+00  0.00000000000E+00  0.45593999997E+02  0.45594000000E+02  0.51100000000E-03 0. -1.
         11   -1    0    0    0    0 -0.00000000000E+00 -0.00000000000E+00 -0.45593999997E+02  0.45594000000E+02  0.51100000000E-03 0.  1.
    9900012    2    1    2    0    0  0.15105240210E+02  0.40650377608E+02  0.17326023960E+01  0.47787269677E+02  0.19999993766E+02 0.  0.
         12    1    1    2    0    0 -0.15105240210E+02 -0.40650377608E+02 -0.17326023960E+01  0.43400730323E+02  0.00000000000E+00 0. -1.
         11    1    3    3    0    0  0.20468446237E+01  0.13626996762E+02 -0.45987915893E+01  0.14526992050E+02  0.51100000000E-03 0. -1.
        -11    1    3    3    0    0  0.40350181775E+01  0.18175155789E+02 -0.10097840881E+01  0.18645034830E+02  0.51100000000E-03 0.  1.
         12    1    3    3    0    0  0.90233774089E+01  0.88482250568E+01  0.73411780734E+01  0.14615242797E+02  0.00000000000E+00 0. -1.
</event>
<event>
 7    1  0.2599124E-010  0.4778727E+02  0.7816164E-02  0.1312668E+00
        -11   -1    0    0    0    0  0.00000000000E+00  0.00000000000E+00  0.45593999997E+02  0.45594000000E+02  0.51100000000E-03 0.  1.
         11   -1    0    0    0    0 -0.00000000000E+00 -0.00000000000E+00 -0.45593999997E+02  0.45594000000E+02  0.51100000000E-03 0. -1.
    9900012    2    1    2    0    0  0.34989417360E+02  0.11040128104E+02  0.23183608207E+02  0.47787269071E+02  0.19999991001E+02 0.  0.
         12    1    1    2    0    0 -0.34989417360E+02 -0.11040128104E+02 -0.23183608207E+02  0.43400730929E+02  0.00000000000E+00 0. -1.
         11    1    3    3    0    0  0.15142219174E+02  0.10403929959E+02  0.10054418879E+02  0.20943254269E+02  0.51100000000E-03 0. -1.
        -11    1    3    3    0    0  0.13562354988E+02  0.27038891582E+01  0.14553529851E+02  0.20076197867E+02  0.51100000000E-03 0.  1.
         12    1    3    3    0    0  0.62848431975E+01 -0.20676910136E+01 -0.14243405230E+01  0.67678169353E+01  0.00000000000E+00 0. -1.
</event>
<event>
 7    1  0.2599124E-010  0.4778727E+02  0.7816164E-02  0.1312668E+00
        -11   -1    0    0    0    0  0.00000000000E+00  0.00000000000E+00  0.45593999997E+02  0.45594000000E+02  0.51100000000E-03 0.  1.
         11   -1    0    0    0    0 -0.00000000000E+00 -0.00000000000E+00 -0.45593999997E+02  0.45594000000E+02  0.51100000000E-03 0. -1.
    9900012    2    1    2    0    0 -0.17309509893E+02 -0.85024189441E+01  0.38880757321E+02  0.47787267857E+02  0.19999985469E+02 0.  0.
         12    1    1    2    0    0  0.17309509893E+02  0.85024189441E+01 -0.38880757321E+02  0.43400732143E+02  0.00000000000E+00 0. -1.
         11    1    3    3    0    0 -0.91794683056E+00  0.38090715401E+01  0.64022618473E+01  0.75060381963E+01  0.51100000000E-03 0. -1.
        -11    1    3    3    0    0  0.12001489038E+01 -0.40560194787E+01  0.77695126207E+01  0.88462974191E+01  0.51100000000E-03 0.  1.
        -12    1    3    3    0    0 -0.17591711966E+02 -0.82554710056E+01  0.24708982853E+02  0.31434932242E+02  0.00000000000E+00 0.  1.
</event>
<event>
 7    1  0.2599124E-010  0.4778727E+02  0.7816164E-02  0.1312668E+00
        -11   -1    0    0    0    0  0.00000000000E+00  0.00000000000E+00  0.45593999997E+02  0.45594000000E+02  0.51100000000E-03 0.  1.
         11   -1    0    0    0    0 -0.00000000000E+00 -0.00000000000E+00 -0.45593999997E+02  0.45594000000E+02  0.51100000000E-03 0. -1.
    9900012    2    1    2    0    0  0.13361134616E+02  0.25915763821E+02  0.32147734290E+02  0.47787267833E+02  0.19999985356E+02 0.  0.
         12    1    1    2    0    0 -0.13361134616E+02 -0.25915763821E+02 -0.32147734290E+02  0.43400732167E+02  0.00000000000E+00 0. -1.
         11    1    3    3    0    0  0.12078351997E+02  0.79295628323E+01  0.10969193636E+02  0.18140776251E+02  0.51100000000E-03 0. -1.
        -11    1    3    3    0    0  0.48349839698E+01  0.10117004087E+02  0.75660270884E+01  0.13526847668E+02  0.51100000000E-03 0.  1.
         12    1    3    3    0    0 -0.35522013516E+01  0.78691969025E+01  0.13612513566E+02  0.16119643914E+02  0.00000000000E+00 0. -1.
</event>
<event>
 7    1  0.2599124E-010  0.4778727E+02  0.7816164E-02  0.1312668E+00
        -11   -1    0    0    0    0  0.00000000000E+00  0.00000000000E+00  0.45593999997E+02  0.45594000000E+02  0.51100000000E-03 0.  1.
         11   -1    0    0    0    0 -0.00000000000E+00 -0.00000000000E+00 -0.45593999997E+02  0.45594000000E+02  0.51100000000E-03 0. -1.
    9900012    2    1    2    0    0 -0.91448657256E+01 -0.36740711074E+02  0.21215908051E+02  0.47787272198E+02  0.20000005259E+02 0.  0.
         12    1    1    2    0    0  0.91448657256E+01  0.36740711074E+02 -0.21215908051E+02  0.43400727802E+02  0.00000000000E+00 0. -1.
         11    1    3    3    0    0 -0.36049130093E+01 -0.24736375263E+02  0.15758944474E+02  0.29550431303E+02  0.51100000000E-03 0. -1.
        -11    1    3    3    0    0 -0.22024235941E+01 -0.43883714251E+01  0.81342493292E+01  0.95012886423E+01  0.51100000000E-03 0.  1.
         12    1    3    3    0    0 -0.33375291222E+01 -0.76159643855E+01 -0.26772857526E+01  0.87355522530E+01  0.00000000000E+00 0. -1.
</event>
<event>
 7    1  0.2599124E-010  0.4778727E+02  0.7816164E-02  0.1312668E+00
        -11   -1    0    0    0    0  0.00000000000E+00  0.00000000000E+00  0.45593999997E+02  0.45594000000E+02  0.51100000000E-03 0.  1.
         11   -1    0    0    0    0 -0.00000000000E+00 -0.00000000000E+00 -0.45593999997E+02  0.45594000000E+02  0.51100000000E-03 0. -1.
    9900012    2    1    2    0    0 -0.40439346089E+02 -0.15279682767E+02  0.38489221183E+01  0.47787267068E+02  0.19999981870E+02 0.  0.
         12    1    1    2    0    0  0.40439346089E+02  0.15279682767E+02 -0.38489221183E+01  0.43400732932E+02  0.00000000000E+00 0. -1.
         11    1    3    3    0    0 -0.16111883904E+02 -0.70959812008E+01 -0.27519392363E+01  0.17819060636E+02  0.51100000000E-03 0. -1.
        -11    1    3    3    0    0 -0.18937301734E+01 -0.64462449183E+01  0.11484065622E+01  0.68160931192E+01  0.51100000000E-03 0.  1.
        -12    1    3    3    0    0 -0.22433732012E+02 -0.17374566476E+01  0.54524547924E+01  0.23152113313E+02  0.00000000000E+00 0.  1.
</event>
<event>
 7    1  0.2599124E-010  0.4778727E+02  0.7816164E-02  0.1312668E+00
        -11   -1    0    0    0    0  0.00000000000E+00  0.00000000000E+00  0.45593999997E+02  0.45594000000E+02  0.51100000000E-03 0.  1.
         11   -1    0    0    0    0 -0.00000000000E+00 -0.00000000000E+00 -0.45593999997E+02  0.45594000000E+02  0.51100000000E-03 0. -1.
    9900012    2    1    2    0    0 -0.21084333233E+02 -0.99238774361E+01  0.36614078755E+02  0.47787271731E+02  0.20000003131E+02 0.  0.
         12    1    1    2    0    0  0.21084333233E+02  0.99238774361E+01 -0.36614078755E+02  0.43400728269E+02  0.00000000000E+00 0. -1.
         11    1    3    3    0    0 -0.65666608229E+01 -0.33909377297E+01  0.52700367591E+01  0.90770469181E+01  0.51100000000E-03 0. -1.
        -11    1    3    3    0    0 -0.18108728091E+02 -0.54245644712E+01  0.25098368095E+02  0.31421012302E+02  0.51100000000E-03 0.  1.
         12    1    3    3    0    0  0.35910556810E+01 -0.11083752352E+01  0.62456739004E+01  0.72892125114E+01  0.00000000000E+00 0. -1.
</event>
<event>
 7    1  0.2599124E-010  0.4778727E+02  0.7816164E-02  0.1312668E+00
        -11   -1    0    0    0    0  0.00000000000E+00  0.00000000000E+00  0.45593999997E+02  0.45594000000E+02  0.51100000000E-03 0.  1.
         11   -1    0    0    0    0 -0.00000000000E+00 -0.00000000000E+00 -0.45593999997E+02  0.45594000000E+02  0.51100000000E-03 0. -1.
    9900012    2    1    2    0    0 -0.26785468133E+02  0.16936469238E+02  0.29653290723E+02  0.47787274845E+02  0.20000017326E+02 0.  0.
         12    1    1    2    0    0  0.26785468133E+02 -0.16936469238E+02 -0.29653290723E+02  0.43400725155E+02  0.00000000000E+00 0. -1.
         11    1    3    3    0    0  0.12898161765E+01  0.16381810433E+01  0.27203569390E+01  0.34274779411E+01  0.51100000000E-03 0. -1.
        -11    1    3    3    0    0 -0.45370484081E+01 -0.28691629510E+01  0.56521411159E+01  0.77951012663E+01  0.51100000000E-03 0.  1.
        -12    1    3    3    0    0 -0.23538235901E+02  0.18167451145E+02  0.21280792668E+02  0.36564695637E+02  0.00000000000E+00 0.  1.
</event>
<event>
 7    1  0.2599124E-010  0.4778727E+02  0.7816164E-02  0.1312668E+00
        -11   -1    0    0    0    0  0.00000000000E+00  0.00000000000E+00  0.45593999997E+02  0.45594000000E+02  0.51100000000E-03 0. -1.
         11   -1    0    0    0    0 -0.00000000000E+00 -0.00000000000E+00 -0.45593999997E+02  0.45594000000E+02  0.51100000000E-03 0.  1.
    9900012    2    1    2    0    0 -0.10568692186E+01 -0.23006545398E+02 -0.36785934742E+02  0.47787273064E+02  0.20000009207E+02 0.  0.
         12    1    1    2    0    0  0.10568692186E+01  0.23006545398E+02  0.36785934742E+02  0.43400726936E+02  0.00000000000E+00 0. -1.
         11    1    3    3    0    0  0.71260221475E+01 -0.10088914155E+02 -0.11248475343E+02  0.16706123976E+02  0.51100000000E-03 0. -1.
        -11    1    3    3    0    0 -0.94384111091E+00 -0.25858787549E+01 -0.17966539993E+00  0.27586019819E+01  0.51100000000E-03 0.  1.
        -12    1    3    3    0    0 -0.72390502553E+01 -0.10331752488E+02 -0.25357793999E+02  0.28322547106E+02  0.00000000000E+00 0.  1.
</event>
<event>
 7    1  0.2599124E-010  0.4778727E+02  0.7816164E-02  0.1312668E+00
        -11   -1    0    0    0    0  0.00000000000E+00  0.00000000000E+00  0.45593999997E+02  0.45594000000E+02  0.51100000000E-03 0.  1.
         11   -1    0    0    0    0 -0.00000000000E+00 -0.00000000000E+00 -0.45593999997E+02  0.45594000000E+02  0.51100000000E-03 0. -1.
    9900012    2    1    2    0    0  0.28797521022E+02 -0.15467010277E+02  0.28549909267E+02  0.47787274856E+02  0.20000017376E+02 0.  0.
         12    1    1    2    0    0 -0.28797521022E+02  0.15467010277E+02 -0.28549909267E+02  0.43400725144E+02  0.00000000000E+00 0. -1.
         11    1    3    3    0    0  0.62230916100E+01 -0.20819123558E+01  0.10521911579E+02  0.12400477885E+02  0.51100000000E-03 0. -1.
        -11    1    3    3    0    0  0.12546071993E+02 -0.65783708814E+01  0.18447688691E+02  0.23259322952E+02  0.51100000000E-03 0.  1.
        -12    1    3    3    0    0  0.10028357419E+02 -0.68067270401E+01 -0.41969100299E+00  0.12127474018E+02  0.00000000000E+00 0.  1.
</event>
<event>
 7    1  0.2599124E-010  0.4778727E+02  0.7816164E-02  0.1312668E+00
        -11   -1    0    0    0    0  0.00000000000E+00  0.00000000000E+00  0.45593999997E+02  0.45594000000E+02  0.51100000000E-03 0.  1.
         11   -1    0    0    0    0 -0.00000000000E+00 -0.00000000000E+00 -0.45593999997E+02  0.45594000000E+02  0.51100000000E-03 0. -1.
    9900012    2    1    2    0    0 -0.10605237765E+02  0.31718316389E+02  0.27660457514E+02  0.47787267604E+02  0.19999984316E+02 0.  0.
         12    1    1    2    0    0  0.10605237765E+02 -0.31718316389E+02 -0.27660457514E+02  0.43400732396E+02  0.00000000000E+00 0. -1.
         11    1    3    3    0    0 -0.41001174379E+01  0.90534786000E+01  0.15086685378E+02  0.18066115070E+02  0.51100000000E-03 0. -1.
        -11    1    3    3    0    0 -0.75865941721E+01  0.47644880142E+01  0.49467866697E+01  0.10233643329E+02  0.51100000000E-03 0.  1.
         12    1    3    3    0    0  0.10814738454E+01  0.17900349775E+02  0.76269854664E+01  0.19487509206E+02  0.00000000000E+00 0. -1.
</event>
<event>
 7    1  0.2599124E-010  0.4778727E+02  0.7816164E-02  0.1312668E+00
        -11   -1    0    0    0    0  0.00000000000E+00  0.00000000000E+00  0.45593999997E+02  0.45594000000E+02  0.51100000000E-03 0.  1.
         11   -1    0    0    0    0 -0.00000000000E+00 -0.00000000000E+00 -0.45593999997E+02  0.45594000000E+02  0.51100000000E-03 0. -1.
    9900012    2    1    2    0    0  0.12200560325E+02 -0.27545658104E+02  0.31241103115E+02  0.47787268711E+02  0.19999989359E+02 0.  0.
         12    1    1    2    0    0 -0.12200560325E+02  0.27545658104E+02 -0.31241103115E+02  0.43400731289E+02  0.00000000000E+00 0. -1.
         11    1    3    3    0    0 -0.81382380595E+00 -0.88432554910E+01  0.29846938347E+01  0.93687712329E+01  0.51100000000E-03 0. -1.
        -11    1    3    3    0    0  0.75115127104E+01 -0.16271106676E+02  0.13359904745E+02  0.22353048801E+02  0.51100000000E-03 0.  1.
         12    1    3    3    0    0  0.55028714209E+01 -0.24312959367E+01  0.14896504535E+02  0.16065448676E+02  0.00000000000E+00 0. -1.
</event>
<event>
 7    1  0.2599124E-010  0.4778729E+02  0.7816164E-02  0.1312668E+00
        -11   -1    0    0    0    0  0.00000000000E+00  0.00000000000E+00  0.45593999997E+02  0.45594000000E+02  0.51100000000E-03 0. -1.
         11   -1    0    0    0    0 -0.00000000000E+00 -0.00000000000E+00 -0.45593999997E+02  0.45594000000E+02  0.51100000000E-03 0.  1.
    9900012    2    1    2    0    0  0.33232363207E+02 -0.27831721666E+02  0.21509813074E+01  0.47787292451E+02  0.20000097599E+02 0.  0.
         12    1    1    2    0    0 -0.33232363207E+02  0.27831721666E+02 -0.21509813074E+01  0.43400707549E+02  0.00000000000E+00 0. -1.
         11    1    3    3    0    0  0.36727846277E+01 -0.80875943564E+01 -0.56341679510E+00  0.89003352825E+01  0.51100000000E-03 0. -1.
        -11    1    3    3    0    0  0.23876975566E+01 -0.79131725427E+01 -0.28306747530E+01  0.87368254607E+01  0.51100000000E-03 0.  1.
        -12    1    3    3    0    0  0.27171881022E+02 -0.11830954767E+02  0.55450728555E+01  0.30150131707E+02  0.00000000000E+00 0.  1.
</event>
<event>
 7    1  0.2599124E-010  0.4778727E+02  0.7816164E-02  0.1312668E+00
        -11   -1    0    0    0    0  0.00000000000E+00  0.00000000000E+00  0.45593999997E+02  0.45594000000E+02  0.51100000000E-03 0.  1.
         11   -1    0    0    0    0 -0.00000000000E+00 -0.00000000000E+00 -0.45593999997E+02  0.45594000000E+02  0.51100000000E-03 0. -1.
    9900012    2    1    2    0    0  0.20267416830E+02 -0.38271490537E+02  0.28544569794E+01  0.47787273075E+02  0.20000009260E+02 0.  0.
         12    1    1    2    0    0 -0.20267416830E+02  0.38271490537E+02 -0.28544569794E+01  0.43400726925E+02  0.00000000000E+00 0. -1.
         11    1    3    3    0    0  0.18797978775E+01 -0.71276313470E+01 -0.16475706914E+01  0.75532283245E+01  0.51100000000E-03 0.  1.
        -11    1    3    3    0    0  0.14918787446E+02 -0.31951667296E+02  0.69114987585E+01  0.35933940464E+02  0.51100000000E-03 0. -1.
         12    1    3    3    0    0  0.34688315067E+01  0.80780810598E+00 -0.24094710877E+01  0.43001042872E+01  0.00000000000E+00 0. -1.
</event>
<event>
 7    1  0.2599124E-010  0.4778727E+02  0.7816164E-02  0.1312668E+00
        -11   -1    0    0    0    0  0.00000000000E+00  0.00000000000E+00  0.45593999997E+02  0.45594000000E+02  0.51100000000E-03 0.  1.
         11   -1    0    0    0    0 -0.00000000000E+00 -0.00000000000E+00 -0.45593999997E+02  0.45594000000E+02  0.51100000000E-03 0. -1.
    9900012    2    1    2    0    0  0.26371508941E+02  0.31829488286E+02 -0.13230653859E+02  0.47787274085E+02  0.20000013862E+02 0.  0.
         12    1    1    2    0    0 -0.26371508941E+02 -0.31829488286E+02  0.13230653859E+02  0.43400725915E+02  0.00000000000E+00 0. -1.
         11    1    3    3    0    0  0.45586979264E+01  0.44076220566E+01  0.25057321639E+01  0.68181781230E+01  0.51100000000E-03 0. -1.
        -11    1    3    3    0    0  0.22959172470E+01  0.13877142463E+02 -0.61450025573E+01  0.15349507342E+02  0.51100000000E-03 0.  1.
        -12    1    3    3    0    0  0.19516893768E+02  0.13544723767E+02 -0.95913834657E+01  0.25619588620E+02  0.00000000000E+00 0.  1.
</event>
<event>
 7    1  0.2599124E-010  0.4778727E+02  0.7816164E-02  0.1312668E+00
        -11   -1    0    0    0    0  0.00000000000E+00  0.00000000000E+00  0.45593999997E+02  0.45594000000E+02  0.51100000000E-03 0.  1.
         11   -1    0    0    0    0 -0.00000000000E+00 -0.00000000000E+00 -0.45593999997E+02  0.45594000000E+02  0.51100000000E-03 0. -1.
    9900012    2    1    2    0    0 -0.39565047562E+01  0.32304297864E+02  0.28712396347E+02  0.47787270808E+02  0.19999998924E+02 0.  0.
         12    1    1    2    0    0  0.39565047562E+01 -0.32304297864E+02 -0.28712396347E+02  0.43400729192E+02  0.00000000000E+00 0. -1.
         11    1    3    3    0    0 -0.72434928289E+00  0.24686604703E+01 -0.19818080780E+01  0.32475421353E+01  0.51100000000E-03 0. -1.
        -11    1    3    3    0    0  0.42195800503E+01  0.12322579691E+02  0.99757004849E+01  0.16406261807E+02  0.51100000000E-03 0.  1.
         12    1    3    3    0    0 -0.74517355236E+01  0.17513057702E+02  0.20718503940E+02  0.28133466867E+02  0.00000000000E+00 0. -1.
</event>
<event>
 7    1  0.2599124E-010  0.4778727E+02  0.7816164E-02  0.1312668E+00
        -11   -1    0    0    0    0  0.00000000000E+00  0.00000000000E+00  0.45593999997E+02  0.45594000000E+02  0.51100000000E-03 0.  1.
         11   -1    0    0    0    0 -0.00000000000E+00 -0.00000000000E+00 -0.45593999997E+02  0.45594000000E+02  0.51100000000E-03 0. -1.
    9900012    2    1    2    0    0 -0.34006381594E+02 -0.10903333397E+02  0.24663870076E+02  0.47787272409E+02  0.20000006223E+02 0.  0.
         12    1    1    2    0    0  0.34006381594E+02  0.10903333397E+02 -0.24663870076E+02  0.43400727591E+02  0.00000000000E+00 0. -1.
         11    1    3    3    0    0 -0.21639256412E+02 -0.56090575921E+01  0.51034230154E+01  0.22929541467E+02  0.51100000000E-03 0. -1.
        -11    1    3    3    0    0 -0.90040547012E+01 -0.60837892273E+00  0.85683398282E+01  0.12444258662E+02  0.51100000000E-03 0.  1.
        -12    1    3    3    0    0 -0.33630704808E+01 -0.46858968819E+01  0.10992107232E+02  0.12413472280E+02  0.00000000000E+00 0.  1.
</event>
<event>
 7    1  0.2599124E-010  0.4778727E+02  0.7816164E-02  0.1312668E+00
        -11   -1    0    0    0    0  0.00000000000E+00  0.00000000000E+00  0.45593999997E+02  0.45594000000E+02  0.51100000000E-03 0.  1.
         11   -1    0    0    0    0 -0.00000000000E+00 -0.00000000000E+00 -0.45593999997E+02  0.45594000000E+02  0.51100000000E-03 0. -1.
    9900012    2    1    2    0    0 -0.28058568378E+02 -0.24922045101E+02  0.21799813709E+02  0.47787268795E+02  0.19999989742E+02 0.  0.
         12    1    1    2    0    0  0.28058568378E+02  0.24922045101E+02 -0.21799813709E+02  0.43400731205E+02  0.00000000000E+00 0. -1.
         11    1    3    3    0    0 -0.56112107237E+01 -0.22978238620E+01 -0.74438051436E+00  0.61089919707E+01  0.51100000000E-03 0. -1.
        -11    1    3    3    0    0 -0.23043393459E+02 -0.17727402186E+02  0.15134430167E+02  0.32776664673E+02  0.51100000000E-03 0.  1.
        -12    1    3    3    0    0  0.59603580437E+00 -0.48968190525E+01  0.74097640562E+01  0.89016121507E+01  0.00000000000E+00 0.  1.
</event>
<event>
 7    1  0.2599124E-010  0.4778727E+02  0.7816164E-02  0.1312668E+00
        -11   -1    0    0    0    0  0.00000000000E+00  0.00000000000E+00  0.45593999997E+02  0.45594000000E+02  0.51100000000E-03 0. -1.
         11   -1    0    0    0    0 -0.00000000000E+00 -0.00000000000E+00 -0.45593999997E+02  0.45594000000E+02  0.51100000000E-03 0.  1.
    9900012    2    1    2    0    0 -0.43275552880E+02  0.27939256017E+01 -0.17446849250E+01  0.47787269329E+02  0.19999992178E+02 0.  0.
         12    1    1    2    0    0  0.43275552880E+02 -0.27939256017E+01  0.17446849250E+01  0.43400730671E+02  0.00000000000E+00 0. -1.
         11    1    3    3    0    0 -0.91970483173E+00 -0.36478729782E+00 -0.31368550304E+01  0.32891923771E+01  0.51100000000E-03 0. -1.
        -11    1    3    3    0    0 -0.27375240563E+02 -0.12809619507E+00 -0.50949384994E+01  0.27845620896E+02  0.51100000000E-03 0.  1.
        -12    1    3    3    0    0 -0.14980607485E+02  0.32868090945E+01  0.64871086049E+01  0.16652456056E+02  0.00000000000E+00 0.  1.
</event>
<event>
 7    1  0.2599124E-010  0.4778727E+02  0.7816164E-02  0.1312668E+00
        -11   -1    0    0    0    0  0.00000000000E+00  0.00000000000E+00  0.45593999997E+02  0.45594000000E+02  0.51100000000E-03 0.  1.
         11   -1    0    0    0    0 -0.00000000000E+00 -0.00000000000E+00 -0.45593999997E+02  0.45594000000E+02  0.51100000000E-03 0. -1.
    9900012    2    1    2    0    0  0.25010692608E+02 -0.31064819379E-01  0.35469531499E+02  0.47787269885E+02  0.19999994714E+02 0.  0.
         12    1    1    2    0    0 -0.25010692608E+02  0.31064819379E-01 -0.35469531499E+02  0.43400730115E+02  0.00000000000E+00 0. -1.
         11    1    3    3    0    0  0.66416575040E+01 -0.27173964378E+01  0.20444838015E+02  0.21667654685E+02  0.51100000000E-03 0. -1.
        -11    1    3    3    0    0  0.12178719546E+02 -0.28172416798E+01  0.11923386770E+02  0.17274988070E+02  0.51100000000E-03 0.  1.
         12    1    3    3    0    0  0.61903155577E+01  0.55035732982E+01  0.31013067130E+01  0.88446271307E+01  0.00000000000E+00 0. -1.
</event>
<event>
 7    1  0.2599124E-010  0.4778727E+02  0.7816164E-02  0.1312668E+00
        -11   -1    0    0    0    0  0.00000000000E+00  0.00000000000E+00  0.45593999997E+02  0.45594000000E+02  0.51100000000E-03 0.  1.
         11   -1    0    0    0    0 -0.00000000000E+00 -0.00000000000E+00 -0.45593999997E+02  0.45594000000E+02  0.51100000000E-03 0. -1.
    9900012    2    1    2    0    0 -0.10197947533E+02  0.25199608481E+02  0.33832008564E+02  0.47787271838E+02  0.20000003619E+02 0.  0.
         12    1    1    2    0    0  0.10197947533E+02 -0.25199608481E+02 -0.33832008564E+02  0.43400728162E+02  0.00000000000E+00 0. -1.
         11    1    3    3    0    0  0.53749500803E+01  0.63073454041E+01  0.85520094210E+01  0.11908381914E+02  0.51100000000E-03 0. -1.
        -11    1    3    3    0    0 -0.36239779470E+01  0.97403658871E+01  0.96965600181E+01  0.14213768685E+02  0.51100000000E-03 0.  1.
        -12    1    3    3    0    0 -0.11948919666E+02  0.91518971896E+01  0.15583439125E+02  0.21665121240E+02  0.00000000000E+00 0.  1.
</event>
<event>
 7    1  0.2599124E-010  0.4778727E+02  0.7816164E-02  0.1312668E+00
        -11   -1    0    0    0    0  0.00000000000E+00  0.00000000000E+00  0.45593999997E+02  0.45594000000E+02  0.51100000000E-03 0.  1.
         11   -1    0    0    0    0 -0.00000000000E+00 -0.00000000000E+00 -0.45593999997E+02  0.45594000000E+02  0.51100000000E-03 0. -1.
    9900012    2    1    2    0    0  0.21703711281E+02 -0.14868362286E+02  0.34518164656E+02  0.47787274527E+02  0.20000015876E+02 0.  0.
         12    1    1    2    0    0 -0.21703711281E+02  0.14868362286E+02 -0.34518164656E+02  0.43400725473E+02  0.00000000000E+00 0. -1.
         11    1    3    3    0    0  0.55435962806E+01  0.12728424805E+01  0.35426608904E+01  0.67008980106E+01  0.51100000000E-03 0. -1.
        -11    1    3    3    0    0  0.83443610270E+01 -0.63309323541E+01  0.37759724144E+01  0.11134048381E+02  0.51100000000E-03 0.  1.
         12    1    3    3    0    0  0.78157539730E+01 -0.98102724127E+01  0.27199531351E+02  0.29952328135E+02  0.00000000000E+00 0. -1.
</event>
<event>
 7    1  0.2599124E-010  0.4778727E+02  0.7816164E-02  0.1312668E+00
        -11   -1    0    0    0    0  0.00000000000E+00  0.00000000000E+00  0.45593999997E+02  0.45594000000E+02  0.51100000000E-03 0.  1.
         11   -1    0    0    0    0 -0.00000000000E+00 -0.00000000000E+00 -0.45593999997E+02  0.45594000000E+02  0.51100000000E-03 0. -1.
    9900012    2    1    2    0    0 -0.10727420875E+02 -0.35876576145E+02  0.21941215530E+02  0.47787271740E+02  0.20000003173E+02 0.  0.
         12    1    1    2    0    0  0.10727420875E+02  0.35876576145E+02 -0.21941215530E+02  0.43400728260E+02  0.00000000000E+00 0. -1.
         11    1    3    3    0    0  0.10739422338E+01  0.55242586200E+00 -0.52755467790E+00  0.13178924288E+01  0.51100000000E-03 0. -1.
        -11    1    3    3    0    0 -0.15013216753E+01 -0.68990532135E+01  0.11173691541E+02  0.13217499194E+02  0.51100000000E-03 0.  1.
         12    1    3    3    0    0 -0.10300041434E+02 -0.29529948793E+02  0.11295078667E+02  0.33251880118E+02  0.00000000000E+00 0. -1.
</event>
<event>
 7    1  0.2599124E-010  0.4778727E+02  0.7816164E-02  0.1312668E+00
        -11   -1    0    0    0    0  0.00000000000E+00  0.00000000000E+00  0.45593999997E+02  0.45594000000E+02  0.51100000000E-03 0.  1.
         11   -1    0    0    0    0 -0.00000000000E+00 -0.00000000000E+00 -0.45593999997E+02  0.45594000000E+02  0.51100000000E-03 0. -1.
    9900012    2    1    2    0    0  0.34919735353E+01  0.31540886070E+02  0.29607457957E+02  0.47787274892E+02  0.20000017542E+02 0.  0.
         12    1    1    2    0    0 -0.34919735353E+01 -0.31540886070E+02 -0.29607457957E+02  0.43400725108E+02  0.00000000000E+00 0. -1.
         11    1    3    3    0    0  0.18737739227E+01  0.18719292093E+01  0.26477655962E+01  0.37451048839E+01  0.51100000000E-03 0. -1.
        -11    1    3    3    0    0  0.58047912966E+01  0.22371487101E+02  0.10146324816E+02  0.25241373668E+02  0.51100000000E-03 0.  1.
         12    1    3    3    0    0 -0.41865916841E+01  0.72974697593E+01  0.16813367545E+02  0.18800796340E+02  0.00000000000E+00 0. -1.
</event>
<event>
 7    1  0.2599124E-010  0.4778724E+02  0.7816164E-02  0.1312668E+00
        -11   -1    0    0    0    0  0.00000000000E+00  0.00000000000E+00  0.45593999997E+02  0.45594000000E+02  0.51100000000E-03 0.  1.
         11   -1    0    0    0    0 -0.00000000000E+00 -0.00000000000E+00 -0.45593999997E+02  0.45594000000E+02  0.51100000000E-03 0. -1.
    9900012    2    1    2    0    0  0.36673098728E+02  0.23103094407E+02  0.22263364923E+01  0.47787242914E+02  0.19999871741E+02 0.  0.
         12    1    1    2    0    0 -0.36673098728E+02 -0.23103094407E+02 -0.22263364923E+01  0.43400757086E+02  0.00000000000E+00 0. -1.
         11    1    3    3    0    0  0.41895239442E+01 -0.11769449327E+01 -0.34349589102E+01  0.55440286101E+01  0.51100000000E-03 0. -1.
        -11    1    3    3    0    0  0.14109377069E+02  0.94950120605E+01 -0.27022117010E+01  0.17220096505E+02  0.51100000000E-03 0.  1.
        -12    1    3    3    0    0  0.18374197715E+02  0.14785027279E+02  0.83635071035E+01  0.25023117799E+02  0.00000000000E+00 0.  1.
</event>
<event>
 7    1  0.2599124E-010  0.4778727E+02  0.7816164E-02  0.1312668E+00
        -11   -1    0    0    0    0  0.00000000000E+00  0.00000000000E+00  0.45593999997E+02  0.45594000000E+02  0.51100000000E-03 0.  1.
         11   -1    0    0    0    0 -0.00000000000E+00 -0.00000000000E+00 -0.45593999997E+02  0.45594000000E+02  0.51100000000E-03 0. -1.
    9900012    2    1    2    0    0 -0.93804946733E+01 -0.40946084753E+02 -0.10910888380E+02  0.47787273945E+02  0.20000013223E+02 0.  0.
         12    1    1    2    0    0  0.93804946733E+01  0.40946084753E+02  0.10910888380E+02  0.43400726055E+02  0.00000000000E+00 0. -1.
         11    1    3    3    0    0  0.20996515181E+01 -0.15700882793E+01 -0.23580072471E+01  0.35261752850E+01  0.51100000000E-03 0. -1.
        -11    1    3    3    0    0 -0.18007469703E+00 -0.56813177351E+01  0.35688558995E+01  0.67116712372E+01  0.51100000000E-03 0.  1.
         12    1    3    3    0    0 -0.11300071494E+02 -0.33694678739E+02 -0.12121737032E+02  0.37549427422E+02  0.00000000000E+00 0. -1.
</event>
<event>
 7    1  0.2599124E-010  0.4778727E+02  0.7816164E-02  0.1312668E+00
        -11   -1    0    0    0    0  0.00000000000E+00  0.00000000000E+00  0.45593999997E+02  0.45594000000E+02  0.51100000000E-03 0.  1.
         11   -1    0    0    0    0 -0.00000000000E+00 -0.00000000000E+00 -0.45593999997E+02  0.45594000000E+02  0.51100000000E-03 0. -1.
    9900012    2    1    2    0    0  0.21044596671E+02  0.27715937278E+02  0.25934046869E+02  0.47787274024E+02  0.20000013585E+02 0.  0.
         12    1    1    2    0    0 -0.21044596671E+02 -0.27715937278E+02 -0.25934046869E+02  0.43400725976E+02  0.00000000000E+00 0. -1.
         11    1    3    3    0    0  0.18493431247E+01 -0.45447237107E+00  0.73029190037E+01  0.75471346460E+01  0.51100000000E-03 0. -1.
        -11    1    3    3    0    0  0.74722778132E+01  0.53010559394E+01  0.13242873092E+01  0.92568821387E+01  0.51100000000E-03 0.  1.
         12    1    3    3    0    0  0.11722975733E+02  0.22869353710E+02  0.17306840556E+02  0.30983257239E+02  0.00000000000E+00 0. -1.
</event>
<event>
 7    1  0.2599124E-010  0.4778727E+02  0.7816164E-02  0.1312668E+00
        -11   -1    0    0    0    0  0.00000000000E+00  0.00000000000E+00  0.45593999997E+02  0.45594000000E+02  0.51100000000E-03 0.  1.
         11   -1    0    0    0    0 -0.00000000000E+00 -0.00000000000E+00 -0.45593999997E+02  0.45594000000E+02  0.51100000000E-03 0. -1.
    9900012    2    1    2    0    0 -0.27261144358E+02 -0.14224859549E+02  0.30628524864E+02  0.47787272399E+02  0.20000006177E+02 0.  0.
         12    1    1    2    0    0  0.27261144358E+02  0.14224859549E+02 -0.30628524864E+02  0.43400727601E+02  0.00000000000E+00 0. -1.
         11    1    3    3    0    0 -0.54420241766E+01 -0.26470815157E+00  0.72468120129E+01  0.90665308776E+01  0.51100000000E-03 0.  1.
        -11    1    3    3    0    0 -0.20745320573E+02 -0.77102190030E+01  0.10789198100E+02  0.24621588061E+02  0.51100000000E-03 0. -1.
         12    1    3    3    0    0 -0.10737996090E+01 -0.62499323946E+01  0.12592514752E+02  0.14099153461E+02  0.00000000000E+00 0. -1.
</event>
<event>
 7    1  0.2599124E-010  0.4778727E+02  0.7816164E-02  0.1312668E+00
        -11   -1    0    0    0    0  0.00000000000E+00  0.00000000000E+00  0.45593999997E+02  0.45594000000E+02  0.51100000000E-03 0.  1.
         11   -1    0    0    0    0 -0.00000000000E+00 -0.00000000000E+00 -0.45593999997E+02  0.45594000000E+02  0.51100000000E-03 0. -1.
    9900012    2    1    2    0    0 -0.20507187806E+02  0.49024720504E+01  0.37934734639E+02  0.47787273323E+02  0.20000010390E+02 0.  0.
         12    1    1    2    0    0  0.20507187806E+02 -0.49024720504E+01 -0.37934734639E+02  0.43400726677E+02  0.00000000000E+00 0. -1.
         11    1    3    3    0    0  0.10398134820E+01 -0.99799381421E+00 -0.20423816528E+00  0.14556501021E+01  0.51100000000E-03 0.  1.
        -11    1    3    3    0    0 -0.12250235254E+02 -0.18547843928E+01  0.10816698065E+02  0.16447171374E+02  0.51100000000E-03 0. -1.
        -12    1    3    3    0    0 -0.92967660342E+01  0.77552502574E+01  0.27322274740E+02  0.29884451847E+02  0.00000000000E+00 0.  1.
</event>
<event>
 7    1  0.2599124E-010  0.4778727E+02  0.7816164E-02  0.1312668E+00
        -11   -1    0    0    0    0  0.00000000000E+00  0.00000000000E+00  0.45593999997E+02  0.45594000000E+02  0.51100000000E-03 0.  1.
         11   -1    0    0    0    0 -0.00000000000E+00 -0.00000000000E+00 -0.45593999997E+02  0.45594000000E+02  0.51100000000E-03 0. -1.
    9900012    2    1    2    0    0  0.39202468181E+02 -0.14502411102E+02  0.11682048373E+02  0.47787266211E+02  0.19999977961E+02 0.  0.
         12    1    1    2    0    0 -0.39202468181E+02  0.14502411102E+02 -0.11682048373E+02  0.43400733789E+02  0.00000000000E+00 0. -1.
         11    1    3    3    0    0  0.22534533608E+01 -0.68852147951E+01  0.56134086905E+01  0.91648563661E+01  0.51100000000E-03 0. -1.
        -11    1    3    3    0    0  0.53970094633E+01 -0.24695432765E+01 -0.59900512477E+00  0.59653300447E+01  0.51100000000E-03 0.  1.
         12    1    3    3    0    0  0.31552005357E+02 -0.51476530303E+01  0.66676448070E+01  0.32657079800E+02  0.00000000000E+00 0. -1.
</event>
<event>
 7    1  0.2599124E-010  0.4778727E+02  0.7816164E-02  0.1312668E+00
        -11   -1    0    0    0    0  0.00000000000E+00  0.00000000000E+00  0.45593999997E+02  0.45594000000E+02  0.51100000000E-03 0.  1.
         11   -1    0    0    0    0 -0.00000000000E+00 -0.00000000000E+00 -0.45593999997E+02  0.45594000000E+02  0.51100000000E-03 0. -1.
    9900012    2    1    2    0    0 -0.37416817659E+02 -0.20766842461E+02  0.72348775206E+01  0.47787269105E+02  0.19999991157E+02 0.  0.
         12    1    1    2    0    0  0.37416817659E+02  0.20766842461E+02 -0.72348775206E+01  0.43400730895E+02  0.00000000000E+00 0. -1.
         11    1    3    3    0    0 -0.23856062967E+02 -0.10948956264E+02  0.18856450214E+01  0.26316288510E+02  0.51100000000E-03 0. -1.
        -11    1    3    3    0    0 -0.10556263345E+02 -0.18731105973E+01  0.70191035510E+01  0.12814486102E+02  0.51100000000E-03 0.  1.
         12    1    3    3    0    0 -0.30044913464E+01 -0.79447755996E+01 -0.16698710517E+01  0.86564944930E+01  0.00000000000E+00 0. -1.
</event>
<event>
 7    1  0.2599124E-010  0.4778727E+02  0.7816164E-02  0.1312668E+00
        -11   -1    0    0    0    0  0.00000000000E+00  0.00000000000E+00  0.45593999997E+02  0.45594000000E+02  0.51100000000E-03 0. -1.
         11   -1    0    0    0    0 -0.00000000000E+00 -0.00000000000E+00 -0.45593999997E+02  0.45594000000E+02  0.51100000000E-03 0.  1.
    9900012    2    1    2    0    0  0.28495106948E+02  0.53130816218E+00 -0.32731786664E+02  0.47787271129E+02  0.20000000384E+02 0.  0.
         12    1    1    2    0    0 -0.28495106948E+02 -0.53130816218E+00  0.32731786664E+02  0.43400728871E+02  0.00000000000E+00 0. -1.
         11    1    3    3    0    0  0.35509091294E+00  0.20270612208E+01 -0.48274942568E+01  0.52478345829E+01  0.51100000000E-03 0. -1.
        -11    1    3    3    0    0  0.10845848465E+02 -0.63046514177E+01 -0.18283146693E+02  0.22173283737E+02  0.51100000000E-03 0.  1.
         12    1    3    3    0    0  0.17294167570E+02  0.48088983591E+01 -0.96211457142E+01  0.20366152809E+02  0.00000000000E+00 0. -1.
</event>
<event>
 7    1  0.2599124E-010  0.4778727E+02  0.7816164E-02  0.1312668E+00
        -11   -1    0    0    0    0  0.00000000000E+00  0.00000000000E+00  0.45593999997E+02  0.45594000000E+02  0.51100000000E-03 0.  1.
         11   -1    0    0    0    0 -0.00000000000E+00 -0.00000000000E+00 -0.45593999997E+02  0.45594000000E+02  0.51100000000E-03 0. -1.
    9900012    2    1    2    0    0 -0.18709033928E+02  0.16968610695E+02  0.35293928001E+02  0.47787273587E+02  0.20000011592E+02 0.  0.
         12    1    1    2    0    0  0.18709033928E+02 -0.16968610695E+02 -0.35293928001E+02  0.43400726413E+02  0.00000000000E+00 0. -1.
         11    1    3    3    0    0 -0.52190661060E+01  0.15228214073E+02  0.12919485481E+02  0.20640984962E+02  0.51100000000E-03 0. -1.
        -11    1    3    3    0    0 -0.48639335455E+01 -0.16040919180E+00  0.14563464843E+02  0.15355067214E+02  0.51100000000E-03 0.  1.
        -12    1    3    3    0    0 -0.86260342762E+01  0.19008058141E+01  0.78109776773E+01  0.11791221411E+02  0.00000000000E+00 0.  1.
</event>
<event>
 7    1  0.2599124E-010  0.4778727E+02  0.7816164E-02  0.1312668E+00
        -11   -1    0    0    0    0  0.00000000000E+00  0.00000000000E+00  0.45593999997E+02  0.45594000000E+02  0.51100000000E-03 0.  1.
         11   -1    0    0    0    0 -0.00000000000E+00 -0.00000000000E+00 -0.45593999997E+02  0.45594000000E+02  0.51100000000E-03 0. -1.
    9900012    2    1    2    0    0 -0.31674316046E+01 -0.34941773559E+02  0.25547276391E+02  0.47787268515E+02  0.19999988467E+02 0.  0.
         12    1    1    2    0    0  0.31674316046E+01  0.34941773559E+02 -0.25547276391E+02  0.43400731485E+02  0.00000000000E+00 0. -1.
         11    1    3    3    0    0  0.37465123091E+00  0.14323804823E+01 -0.28344881491E+00  0.15074551013E+01  0.51100000000E-03 0. -1.
        -11    1    3    3    0    0  0.36887257098E+01 -0.53951938912E+01  0.53422253135E+01  0.84412194645E+01  0.51100000000E-03 0.  1.
        -12    1    3    3    0    0 -0.72308085453E+01 -0.30978960150E+02  0.20488499892E+02  0.37838593949E+02  0.00000000000E+00 0.  1.
</event>
<event>
 7    1  0.2599124E-010  0.4778727E+02  0.7816164E-02  0.1312668E+00
        -11   -1    0    0    0    0  0.00000000000E+00  0.00000000000E+00  0.45593999997E+02  0.45594000000E+02  0.51100000000E-03 0.  1.
         11   -1    0    0    0    0 -0.00000000000E+00 -0.00000000000E+00 -0.45593999997E+02  0.45594000000E+02  0.51100000000E-03 0. -1.
    9900012    2    1    2    0    0  0.41116989688E+01 -0.39251496152E+02  0.18056500839E+02  0.47787271422E+02  0.20000001720E+02 0.  0.
         12    1    1    2    0    0 -0.41116989688E+01  0.39251496152E+02 -0.18056500839E+02  0.43400728578E+02  0.00000000000E+00 0. -1.
         11    1    3    3    0    0  0.43788437380E+01 -0.13792290755E+01  0.30002902119E+01  0.54843675060E+01  0.51100000000E-03 0. -1.
        -11    1    3    3    0    0  0.51814684471E+01 -0.20688560534E+02  0.61533180033E+01  0.22197465507E+02  0.51100000000E-03 0.  1.
         12    1    3    3    0    0 -0.54486132163E+01 -0.17183706543E+02  0.89028926242E+01  0.20105438409E+02  0.00000000000E+00 0. -1.
</event>
<event>
 7    1  0.2599124E-010  0.4778728E+02  0.7816164E-02  0.1312668E+00
        -11   -1    0    0    0    0  0.00000000000E+00  0.00000000000E+00  0.45593999997E+02  0.45594000000E+02  0.51100000000E-03 0.  1.
         11   -1    0    0    0    0 -0.00000000000E+00 -0.00000000000E+00 -0.45593999997E+02  0.45594000000E+02  0.51100000000E-03 0. -1.
    9900012    2    1    2    0    0  0.28244811479E+02 -0.31884059208E+02 -0.83222720893E+01  0.47787276276E+02  0.20000023851E+02 0.  0.
         12    1    1    2    0    0 -0.28244811479E+02  0.31884059208E+02  0.83222720893E+01  0.43400723724E+02  0.00000000000E+00 0. -1.
         11    1    3    3    0    0  0.67367651617E+01 -0.76978216567E+01  0.36892822385E+01  0.10874339833E+02  0.51100000000E-03 0. -1.
        -11    1    3    3    0    0  0.10838808345E+02 -0.17787169373E+02 -0.19649744203E+01  0.20921861422E+02  0.51100000000E-03 0.  1.
        -12    1    3    3    0    0  0.10669237973E+02 -0.63990681777E+01 -0.10046579908E+02  0.15991075020E+02  0.00000000000E+00 0.  1.
</event>
<event>
 7    1  0.2599124E-010  0.4778726E+02  0.7816164E-02  0.1312668E+00
        -11   -1    0    0    0    0  0.00000000000E+00  0.00000000000E+00  0.45593999997E+02  0.45594000000E+02  0.51100000000E-03 0.  1.
         11   -1    0    0    0    0 -0.00000000000E+00 -0.00000000000E+00 -0.45593999997E+02  0.45594000000E+02  0.51100000000E-03 0. -1.
    9900012    2    1    2    0    0  0.26252509717E+02 -0.95432476308E+01  0.33216803382E+02  0.47787264191E+02  0.19999968754E+02 0.  0.
         12    1    1    2    0    0 -0.26252509717E+02  0.95432476308E+01 -0.33216803382E+02  0.43400735809E+02  0.00000000000E+00 0. -1.
         11    1    3    3    0    0  0.21832062766E+01 -0.25962826028E+01  0.26877496906E+00  0.34028389978E+01  0.51100000000E-03 0. -1.
        -11    1    3    3    0    0  0.19918658313E+02 -0.68606905853E+00  0.15051715950E+02  0.24975543899E+02  0.51100000000E-03 0.  1.
        -12    1    3    3    0    0  0.41506451270E+01 -0.62608959694E+01  0.17896312463E+02  0.19408881294E+02  0.00000000000E+00 0.  1.
</event>
<event>
 7    1  0.2599124E-010  0.4778727E+02  0.7816164E-02  0.1312668E+00
        -11   -1    0    0    0    0  0.00000000000E+00  0.00000000000E+00  0.45593999997E+02  0.45594000000E+02  0.51100000000E-03 0.  1.
         11   -1    0    0    0    0 -0.00000000000E+00 -0.00000000000E+00 -0.45593999997E+02  0.45594000000E+02  0.51100000000E-03 0. -1.
    9900012    2    1    2    0    0  0.23801275559E+02 -0.36245903944E+02  0.18322525867E+01  0.47787269355E+02  0.19999992296E+02 0.  0.
         12    1    1    2    0    0 -0.23801275559E+02  0.36245903944E+02 -0.18322525867E+01  0.43400730645E+02  0.00000000000E+00 0. -1.
         11    1    3    3    0    0  0.21175119349E+01 -0.65879368945E+01 -0.26896539386E+01  0.74242176618E+01  0.51100000000E-03 0. -1.
        -11    1    3    3    0    0  0.96193854284E+01 -0.21463244133E+02 -0.34021485662E+01  0.23765059223E+02  0.51100000000E-03 0.  1.
        -12    1    3    3    0    0  0.12064378196E+02 -0.81947229164E+01  0.79240550915E+01  0.16597992470E+02  0.00000000000E+00 0.  1.
</event>
<event>
 7    1  0.2831959E-010  0.4778727E+02  0.7816164E-02  0.1312668E+00
        -11   -1    0    0    0    0  0.00000000000E+00  0.00000000000E+00  0.45593999997E+02  0.45594000000E+02  0.51100000000E-03 0.  1.
         11   -1    0    0    0    0 -0.00000000000E+00 -0.00000000000E+00 -0.45593999997E+02  0.45594000000E+02  0.51100000000E-03 0. -1.
    9900012    2    1    2    0    0  0.23944002114E+02 -0.35316173167E+02  0.79420345763E+01  0.47787271462E+02  0.20000001902E+02 0.  0.
         12    1    1    2    0    0 -0.23944002114E+02  0.35316173167E+02 -0.79420345763E+01  0.43400728538E+02  0.00000000000E+00 0. -1.
         11    1    3    3    0    0  0.29434949650E+01  0.14756442320E+01 -0.13902365398E+01  0.35741357565E+01  0.51100000000E-03 0. -1.
        -11    1    3    3    0    0  0.17599407888E+01 -0.60910291622E+01  0.42352326358E+01  0.76246458000E+01  0.51100000000E-03 0.  1.
        -12    1    3    3    0    0  0.19240566361E+02 -0.30700788237E+02  0.50970384803E+01  0.36588489905E+02  0.00000000000E+00 0.  1.
</event>
<event>
 7    1  0.2599124E-010  0.4778727E+02  0.7816164E-02  0.1312668E+00
        -11   -1    0    0    0    0  0.00000000000E+00  0.00000000000E+00  0.45593999997E+02  0.45594000000E+02  0.51100000000E-03 0.  1.
         11   -1    0    0    0    0 -0.00000000000E+00 -0.00000000000E+00 -0.45593999997E+02  0.45594000000E+02  0.51100000000E-03 0. -1.
    9900012    2    1    2    0    0 -0.16875265514E+02  0.31747680389E+02  0.24309130905E+02  0.47787266808E+02  0.19999980686E+02 0.  0.
         12    1    1    2    0    0  0.16875265514E+02 -0.31747680389E+02 -0.24309130905E+02  0.43400733192E+02  0.00000000000E+00 0. -1.
         11    1    3    3    0    0 -0.39400561796E+01  0.30402027290E+01  0.27053324893E+01  0.56644240193E+01  0.51100000000E-03 0. -1.
        -11    1    3    3    0    0 -0.26599283216E+01  0.14858571012E+02  0.82067929154E+00  0.15117072003E+02  0.51100000000E-03 0.  1.
        -12    1    3    3    0    0 -0.10275281012E+02  0.13848906648E+02  0.20783119124E+02  0.27005770786E+02  0.00000000000E+00 0.  1.
</event>
<event>
 7    1  0.2599124E-010  0.4778727E+02  0.7816164E-02  0.1312668E+00
        -11   -1    0    0    0    0  0.00000000000E+00  0.00000000000E+00  0.45593999997E+02  0.45594000000E+02  0.51100000000E-03 0. -1.
         11   -1    0    0    0    0 -0.00000000000E+00 -0.00000000000E+00 -0.45593999997E+02  0.45594000000E+02  0.51100000000E-03 0.  1.
    9900012    2    1    2    0    0 -0.18153764356E+01 -0.23371372679E+02 -0.36525424120E+02  0.47787271209E+02  0.20000000748E+02 0.  0.
         12    1    1    2    0    0  0.18153764356E+01  0.23371372679E+02  0.36525424120E+02  0.43400728791E+02  0.00000000000E+00 0. -1.
         11    1    3    3    0    0 -0.13147246917E+01 -0.79829006482E+01 -0.15860425851E+01  0.82444366161E+01  0.51100000000E-03 0. -1.
        -11    1    3    3    0    0 -0.20969722333E+01 -0.11201509641E+02 -0.13625576648E+02  0.17763092355E+02  0.51100000000E-03 0.  1.
        -12    1    3    3    0    0  0.15963204894E+01 -0.41869623901E+01 -0.21313804887E+02  0.21779742237E+02  0.00000000000E+00 0.  1.
</event>
<event>
 7    1  0.2599124E-010  0.4778727E+02  0.7816164E-02  0.1312668E+00
        -11   -1    0    0    0    0  0.00000000000E+00  0.00000000000E+00  0.45593999997E+02  0.45594000000E+02  0.51100000000E-03 0.  1.
         11   -1    0    0    0    0 -0.00000000000E+00 -0.00000000000E+00 -0.45593999997E+02  0.45594000000E+02  0.51100000000E-03 0. -1.
    9900012    2    1    2    0    0 -0.19602488955E+02 -0.10637356507E+02  0.37231870274E+02  0.47787273154E+02  0.20000009616E+02 0.  0.
         12    1    1    2    0    0  0.19602488955E+02  0.10637356507E+02 -0.37231870274E+02  0.43400726846E+02  0.00000000000E+00 0. -1.
         11    1    3    3    0    0 -0.50529226391E+01 -0.20961443305E+01  0.48670786612E+01  0.73221788565E+01  0.51100000000E-03 0. -1.
        -11    1    3    3    0    0 -0.16994944387E+02 -0.22955241405E+01  0.19584999652E+02  0.26032091299E+02  0.51100000000E-03 0.  1.
         12    1    3    3    0    0  0.24453780714E+01 -0.62456880361E+01  0.12779791961E+02  0.14433002998E+02  0.00000000000E+00 0. -1.
</event>
<event>
 7    1  0.2599124E-010  0.4778721E+02  0.7816164E-02  0.1312668E+00
        -11   -1    0    0    0    0  0.00000000000E+00  0.00000000000E+00  0.45593999997E+02  0.45594000000E+02  0.51100000000E-03 0.  1.
         11   -1    0    0    0    0 -0.00000000000E+00 -0.00000000000E+00 -0.45593999997E+02  0.45594000000E+02  0.51100000000E-03 0. -1.
    9900012    2    1    2    0    0  0.24855801652E+02 -0.33253684973E+02  0.12649508788E+02  0.47787210691E+02  0.19999724822E+02 0.  0.
         12    1    1    2    0    0 -0.24855801652E+02  0.33253684973E+02 -0.12649508788E+02  0.43400789309E+02  0.00000000000E+00 0. -1.
         11    1    3    3    0    0  0.37722714550E+01 -0.13173719438E+01 -0.61169667510E+00  0.40422362440E+01  0.51100000000E-03 0.  1.
        -11    1    3    3    0    0  0.21335296784E+02 -0.26209217731E+02  0.16000339309E+02  0.37391561096E+02  0.51100000000E-03 0. -1.
         12    1    3    3    0    0 -0.25176658745E+00 -0.57270952990E+01 -0.27391338463E+01  0.63534133508E+01  0.00000000000E+00 0. -1.
</event>
<event>
 7    1  0.2599124E-010  0.4778728E+02  0.7816164E-02  0.1312668E+00
        -11   -1    0    0    0    0  0.00000000000E+00  0.00000000000E+00  0.45593999997E+02  0.45594000000E+02  0.51100000000E-03 0.  1.
         11   -1    0    0    0    0 -0.00000000000E+00 -0.00000000000E+00 -0.45593999997E+02  0.45594000000E+02  0.51100000000E-03 0. -1.
    9900012    2    1    2    0    0 -0.30622850690E+02  0.16595824321E+02  0.25892905350E+02  0.47787275159E+02  0.20000018759E+02 0.  0.
         12    1    1    2    0    0  0.30622850690E+02 -0.16595824321E+02 -0.25892905350E+02  0.43400724841E+02  0.00000000000E+00 0. -1.
         11    1    3    3    0    0 -0.95147671017E+01  0.70327098772E+01  0.55980985575E+01  0.13089251657E+02  0.51100000000E-03 0. -1.
        -11    1    3    3    0    0 -0.14691437796E+02  0.90035376807E+01  0.22086211468E+02  0.28012546699E+02  0.51100000000E-03 0.  1.
         12    1    3    3    0    0 -0.64166457918E+01  0.55957676286E+00 -0.17914046751E+01  0.66854768028E+01  0.00000000000E+00 0. -1.
</event>
<event>
 7    1  0.2599124E-010  0.4778727E+02  0.7816164E-02  0.1312668E+00
        -11   -1    0    0    0    0  0.00000000000E+00  0.00000000000E+00  0.45593999997E+02  0.45594000000E+02  0.51100000000E-03 0.  1.
         11   -1    0    0    0    0 -0.00000000000E+00 -0.00000000000E+00 -0.45593999997E+02  0.45594000000E+02  0.51100000000E-03 0. -1.
    9900012    2    1    2    0    0  0.33672096532E+01  0.17455671475E+02  0.39592737139E+02  0.47787269572E+02  0.19999993287E+02 0.  0.
         12    1    1    2    0    0 -0.33672096532E+01 -0.17455671475E+02 -0.39592737139E+02  0.43400730428E+02  0.00000000000E+00 0. -1.
         11    1    3    3    0    0 -0.37146300520E+00  0.49964338645E+01  0.12693419272E+01  0.51685167424E+01  0.51100000000E-03 0. -1.
        -11    1    3    3    0    0 -0.44177740875E+01  0.63775987774E+01  0.10984295079E+02  0.13447870936E+02  0.51100000000E-03 0.  1.
         12    1    3    3    0    0  0.81564467459E+01  0.60816388332E+01  0.27339100133E+02  0.29170881894E+02  0.00000000000E+00 0. -1.
</event>
<event>
 7    1  0.2599124E-010  0.4778726E+02  0.7816164E-02  0.1312668E+00
        -11   -1    0    0    0    0  0.00000000000E+00  0.00000000000E+00  0.45593999997E+02  0.45594000000E+02  0.51100000000E-03 0.  1.
         11   -1    0    0    0    0 -0.00000000000E+00 -0.00000000000E+00 -0.45593999997E+02  0.45594000000E+02  0.51100000000E-03 0. -1.
    9900012    2    1    2    0    0 -0.13794255992E+02 -0.19487684792E+02  0.36243250861E+02  0.47787255883E+02  0.19999930871E+02 0.  0.
         12    1    1    2    0    0  0.13794255992E+02  0.19487684792E+02 -0.36243250861E+02  0.43400744117E+02  0.00000000000E+00 0. -1.
         11    1    3    3    0    0 -0.31244554503E+01 -0.28931284110E+00  0.31469912976E+01  0.44440385089E+01  0.51100000000E-03 0. -1.
        -11    1    3    3    0    0 -0.89571711552E+01 -0.13194529471E+02  0.33484058139E+02  0.37087850743E+02  0.51100000000E-03 0.  1.
         12    1    3    3    0    0 -0.17126293867E+01 -0.60038424806E+01 -0.38779857484E+00  0.62553666305E+01  0.00000000000E+00 0. -1.
</event>
<event>
 7    1  0.2599124E-010  0.4778728E+02  0.7816164E-02  0.1312668E+00
        -11   -1    0    0    0    0  0.00000000000E+00  0.00000000000E+00  0.45593999997E+02  0.45594000000E+02  0.51100000000E-03 0.  1.
         11   -1    0    0    0    0 -0.00000000000E+00 -0.00000000000E+00 -0.45593999997E+02  0.45594000000E+02  0.51100000000E-03 0. -1.
    9900012    2    1    2    0    0 -0.10838273560E+02 -0.37796034015E+02  0.18374286444E+02  0.47787276926E+02  0.20000026815E+02 0.  0.
         12    1    1    2    0    0  0.10838273560E+02  0.37796034015E+02 -0.18374286444E+02  0.43400723074E+02  0.00000000000E+00 0. -1.
         11    1    3    3    0    0 -0.13742050631E+02 -0.28325711435E+02  0.12541129040E+02  0.33889080862E+02  0.51100000000E-03 0. -1.
        -11    1    3    3    0    0  0.94110713788E+00 -0.10390043575E+02  0.45711808137E+01  0.11390100194E+02  0.51100000000E-03 0.  1.
         12    1    3    3    0    0  0.19626699333E+01  0.91972099472E+00  0.12619765908E+01  0.25080958696E+01  0.00000000000E+00 0. -1.
</event>
<event>
 7    1  0.2599124E-010  0.4778727E+02  0.7816164E-02  0.1312668E+00
        -11   -1    0    0    0    0  0.00000000000E+00  0.00000000000E+00  0.45593999997E+02  0.45594000000E+02  0.51100000000E-03 0.  1.
         11   -1    0    0    0    0 -0.00000000000E+00 -0.00000000000E+00 -0.45593999997E+02  0.45594000000E+02  0.51100000000E-03 0. -1.
    9900012    2    1    2    0    0  0.95903050638E+01  0.23507507189E+02  0.35200094113E+02  0.47787268773E+02  0.19999989644E+02 0.  0.
         12    1    1    2    0    0 -0.95903050638E+01 -0.23507507189E+02 -0.35200094113E+02  0.43400731227E+02  0.00000000000E+00 0. -1.
         11    1    3    3    0    0  0.28855106371E+01  0.31140633405E+01  0.80068290115E+01  0.90627188639E+01  0.51100000000E-03 0. -1.
        -11    1    3    3    0    0 -0.37723639287E+01 -0.35821787126E-01  0.78252322728E+01  0.86871326222E+01  0.51100000000E-03 0.  1.
         12    1    3    3    0    0  0.10477158355E+02  0.20429265636E+02  0.19368032829E+02  0.30037417287E+02  0.00000000000E+00 0. -1.
</event>
<event>
 7    1  0.2599124E-010  0.4778730E+02  0.7816164E-02  0.1312668E+00
        -11   -1    0    0    0    0  0.00000000000E+00  0.00000000000E+00  0.45593999997E+02  0.45594000000E+02  0.51100000000E-03 0.  1.
         11   -1    0    0    0    0 -0.00000000000E+00 -0.00000000000E+00 -0.45593999997E+02  0.45594000000E+02  0.51100000000E-03 0. -1.
    9900012    2    1    2    0    0 -0.23434674809E+02 -0.40325753649E+01  0.36306681304E+02  0.47787300065E+02  0.20000132317E+02 0.  0.
         12    1    1    2    0    0  0.23434674809E+02  0.40325753649E+01 -0.36306681304E+02  0.43400699935E+02  0.00000000000E+00 0. -1.
         11    1    3    3    0    0 -0.92184219924E+01 -0.12959447555E+01  0.17931702095E+02  0.20204076745E+02  0.51100000000E-03 0.  1.
        -11    1    3    3    0    0 -0.61611715323E+00  0.23130098818E+01  0.11097800462E+02  0.11353007989E+02  0.51100000000E-03 0. -1.
         12    1    3    3    0    0 -0.13600135664E+02 -0.50496404912E+01  0.72771787479E+01  0.16230215331E+02  0.00000000000E+00 0. -1.
</event>
<event>
 7    1  0.2599124E-010  0.4778727E+02  0.7816164E-02  0.1312668E+00
        -11   -1    0    0    0    0  0.00000000000E+00  0.00000000000E+00  0.45593999997E+02  0.45594000000E+02  0.51100000000E-03 0. -1.
         11   -1    0    0    0    0 -0.00000000000E+00 -0.00000000000E+00 -0.45593999997E+02  0.45594000000E+02  0.51100000000E-03 0.  1.
    9900012    2    1    2    0    0  0.24522639018E+01 -0.19537725423E+01 -0.43287324259E+02  0.47787271125E+02  0.20000000367E+02 0.  0.
         12    1    1    2    0    0 -0.24522639018E+01  0.19537725423E+01  0.43287324259E+02  0.43400728875E+02  0.00000000000E+00 0. -1.
         11    1    3    3    0    0 -0.17278987473E+01 -0.41928271368E+00 -0.53185349635E+01  0.56078736161E+01  0.51100000000E-03 0. -1.
        -11    1    3    3    0    0  0.24984967710E+01 -0.89104706522E+01 -0.12136807843E+02  0.15262407354E+02  0.51100000000E-03 0.  1.
         12    1    3    3    0    0  0.16816658780E+01  0.73759808236E+01 -0.25831981453E+02  0.26916990155E+02  0.00000000000E+00 0. -1.
</event>
<event>
 7    1  0.2599124E-010  0.4778732E+02  0.7816164E-02  0.1312668E+00
        -11   -1    0    0    0    0  0.00000000000E+00  0.00000000000E+00  0.45593999997E+02  0.45594000000E+02  0.51100000000E-03 0.  1.
         11   -1    0    0    0    0 -0.00000000000E+00 -0.00000000000E+00 -0.45593999997E+02  0.45594000000E+02  0.51100000000E-03 0. -1.
    9900012    2    1    2    0    0  0.21450730836E+02 -0.37710675463E+02 -0.11790726621E+01  0.47787319019E+02  0.20000218732E+02 0.  0.
         12    1    1    2    0    0 -0.21450730836E+02  0.37710675463E+02  0.11790726621E+01  0.43400680981E+02  0.00000000000E+00 0. -1.
         11    1    3    3    0    0  0.31779199198E+01 -0.12382960442E+02  0.26605338708E+01  0.13058151671E+02  0.51100000000E-03 0. -1.
        -11    1    3    3    0    0 -0.15679697563E+01 -0.71161311998E+01 -0.27077504852E+01  0.77736584284E+01  0.51100000000E-03 0.  1.
        -12    1    3    3    0    0  0.19840780672E+02 -0.18211583821E+02 -0.11318560477E+01  0.26955508919E+02  0.00000000000E+00 0.  1.
</event>
<event>
 7    1  0.2599124E-010  0.4778727E+02  0.7816164E-02  0.1312668E+00
        -11   -1    0    0    0    0  0.00000000000E+00  0.00000000000E+00  0.45593999997E+02  0.45594000000E+02  0.51100000000E-03 0.  1.
         11   -1    0    0    0    0 -0.00000000000E+00 -0.00000000000E+00 -0.45593999997E+02  0.45594000000E+02  0.51100000000E-03 0. -1.
    9900012    2    1    2    0    0 -0.35482948053E+02 -0.17495303090E+02  0.17846508169E+02  0.47787273202E+02  0.20000009838E+02 0.  0.
         12    1    1    2    0    0  0.35482948053E+02  0.17495303090E+02 -0.17846508169E+02  0.43400726798E+02  0.00000000000E+00 0. -1.
         11    1    3    3    0    0 -0.63128179802E+01 -0.79264991452E+01  0.98221589623E+01  0.14112259440E+02  0.51100000000E-03 0. -1.
        -11    1    3    3    0    0 -0.10103075875E+02  0.21432608952E+01  0.25880880601E+01  0.10647248916E+02  0.51100000000E-03 0.  1.
         12    1    3    3    0    0 -0.19067054197E+02 -0.11712064840E+02  0.54362611470E+01  0.23027764847E+02  0.00000000000E+00 0. -1.
</event>
<event>
 7    1  0.2599124E-010  0.4778726E+02  0.7816164E-02  0.1312668E+00
        -11   -1    0    0    0    0  0.00000000000E+00  0.00000000000E+00  0.45593999997E+02  0.45594000000E+02  0.51100000000E-03 0. -1.
         11   -1    0    0    0    0 -0.00000000000E+00 -0.00000000000E+00 -0.45593999997E+02  0.45594000000E+02  0.51100000000E-03 0.  1.
    9900012    2    1    2    0    0  0.15173931594E+02 -0.19111883406E+01 -0.40616792067E+02  0.47787255321E+02  0.19999928309E+02 0.  0.
         12    1    1    2    0    0 -0.15173931594E+02  0.19111883406E+01  0.40616792067E+02  0.43400744679E+02  0.00000000000E+00 0. -1.
         11    1    3    3    0    0  0.14215349662E+02  0.38782057189E+00 -0.16454207886E+02  0.21747816631E+02  0.51100000000E-03 0. -1.
        -11    1    3    3    0    0  0.14605085413E+01  0.35233858437E+01 -0.82936270751E+01  0.91286134394E+01  0.51100000000E-03 0.  1.
        -12    1    3    3    0    0 -0.50192660876E+00 -0.58223947562E+01 -0.15868957106E+02  0.16910825251E+02  0.00000000000E+00 0.  1.
</event>
<event>
 7    1  0.2599124E-010  0.4778728E+02  0.7816164E-02  0.1312668E+00
        -11   -1    0    0    0    0  0.00000000000E+00  0.00000000000E+00  0.45593999997E+02  0.45594000000E+02  0.51100000000E-03 0. -1.
         11   -1    0    0    0    0 -0.00000000000E+00 -0.00000000000E+00 -0.45593999997E+02  0.45594000000E+02  0.51100000000E-03 0.  1.
    9900012    2    1    2    0    0 -0.29494887422E+02 -0.19786326645E+02 -0.24943449135E+02  0.47787276954E+02  0.20000026946E+02 0.  0.
         12    1    1    2    0    0  0.29494887422E+02  0.19786326645E+02  0.24943449135E+02  0.43400723046E+02  0.00000000000E+00 0. -1.
         11    1    3    3    0    0 -0.66726714953E+01 -0.60393003453E+00 -0.19259227012E+00  0.67027135113E+01  0.51100000000E-03 0. -1.
        -11    1    3    3    0    0  0.14098179666E+01 -0.20399704445E+01 -0.45445222639E+01  0.51770405621E+01  0.51100000000E-03 0.  1.
        -12    1    3    3    0    0 -0.24232033894E+02 -0.17142426165E+02 -0.20206334601E+02  0.35907522881E+02  0.00000000000E+00 0.  1.
</event>
<event>
 7    1  0.2599124E-010  0.4778727E+02  0.7816164E-02  0.1312668E+00
        -11   -1    0    0    0    0  0.00000000000E+00  0.00000000000E+00  0.45593999997E+02  0.45594000000E+02  0.51100000000E-03 0.  1.
         11   -1    0    0    0    0 -0.00000000000E+00 -0.00000000000E+00 -0.45593999997E+02  0.45594000000E+02  0.51100000000E-03 0. -1.
    9900012    2    1    2    0    0 -0.68538958064E+01 -0.26180294555E+02  0.33929924293E+02  0.47787268748E+02  0.19999989529E+02 0.  0.
         12    1    1    2    0    0  0.68538958064E+01  0.26180294555E+02 -0.33929924293E+02  0.43400731252E+02  0.00000000000E+00 0. -1.
         11    1    3    3    0    0 -0.27869928952E+01  0.21688702418E+01  0.35838785650E+00  0.35496154214E+01  0.51100000000E-03 0. -1.
        -11    1    3    3    0    0  0.25027910474E+00 -0.52292485368E+01  0.51097362246E+01  0.73155371940E+01  0.51100000000E-03 0.  1.
         12    1    3    3    0    0 -0.43171820160E+01 -0.23119916260E+02  0.28461800212E+02  0.36922116133E+02  0.00000000000E+00 0. -1.
</event>
<event>
 7    1  0.2599124E-010  0.4778726E+02  0.7816164E-02  0.1312668E+00
        -11   -1    0    0    0    0  0.00000000000E+00  0.00000000000E+00  0.45593999997E+02  0.45594000000E+02  0.51100000000E-03 0. -1.
         11   -1    0    0    0    0 -0.00000000000E+00 -0.00000000000E+00 -0.45593999997E+02  0.45594000000E+02  0.51100000000E-03 0.  1.
    9900012    2    1    2    0    0 -0.20736886103E+02  0.27286158311E+02 -0.26628387805E+02  0.47787263627E+02  0.19999966180E+02 0.  0.
         12    1    1    2    0    0  0.20736886103E+02 -0.27286158311E+02  0.26628387805E+02  0.43400736373E+02  0.00000000000E+00 0. -1.
         11    1    3    3    0    0 -0.63822716281E+01  0.56667599303E+01 -0.11444841291E+02  0.14276902734E+02  0.51100000000E-03 0.  1.
        -11    1    3    3    0    0 -0.29276902503E+01  0.76325108834E+01 -0.12946149962E+02  0.15311087214E+02  0.51100000000E-03 0. -1.
        -12    1    3    3    0    0 -0.11426924225E+02  0.13986887497E+02 -0.22373965527E+01  0.18199273679E+02  0.00000000000E+00 0.  1.
</event>
<event>
 7    1  0.2599124E-010  0.4778727E+02  0.7816164E-02  0.1312668E+00
        -11   -1    0    0    0    0  0.00000000000E+00  0.00000000000E+00  0.45593999997E+02  0.45594000000E+02  0.51100000000E-03 0.  1.
         11   -1    0    0    0    0 -0.00000000000E+00 -0.00000000000E+00 -0.45593999997E+02  0.45594000000E+02  0.51100000000E-03 0. -1.
    9900012    2    1    2    0    0  0.17523785182E+02  0.38739847680E+02  0.87042752674E+01  0.47787271282E+02  0.20000001083E+02 0.  0.
         12    1    1    2    0    0 -0.17523785182E+02 -0.38739847680E+02 -0.87042752674E+01  0.43400728718E+02  0.00000000000E+00 0. -1.
         11    1    3    3    0    0  0.16011672861E+02  0.24570992251E+02  0.52121104706E+01  0.29787135207E+02  0.51100000000E-03 0. -1.
        -11    1    3    3    0    0  0.35453592179E+01  0.39613292493E+00 -0.27339488911E+00  0.35778818182E+01  0.51100000000E-03 0.  1.
        -12    1    3    3    0    0 -0.20332468970E+01  0.13772722503E+02  0.37655596860E+01  0.14422254257E+02  0.00000000000E+00 0.  1.
</event>
<event>
 7    1  0.2599124E-010  0.4778727E+02  0.7816164E-02  0.1312668E+00
        -11   -1    0    0    0    0  0.00000000000E+00  0.00000000000E+00  0.45593999997E+02  0.45594000000E+02  0.51100000000E-03 0.  1.
         11   -1    0    0    0    0 -0.00000000000E+00 -0.00000000000E+00 -0.45593999997E+02  0.45594000000E+02  0.51100000000E-03 0. -1.
    9900012    2    1    2    0    0 -0.39148662272E+02  0.51661842180E+01  0.18008776207E+02  0.47787271463E+02  0.20000001909E+02 0.  0.
         12    1    1    2    0    0  0.39148662272E+02 -0.51661842180E+01 -0.18008776207E+02  0.43400728537E+02  0.00000000000E+00 0. -1.
         11    1    3    3    0    0 -0.53528556250E+00  0.56721530614E+00 -0.25391384283E+01  0.26562168692E+01  0.51100000000E-03 0. -1.
        -11    1    3    3    0    0 -0.38384470492E+01  0.53614707398E+00  0.61614922863E+01  0.72790876413E+01  0.51100000000E-03 0.  1.
        -12    1    3    3    0    0 -0.34774929660E+02  0.40628218379E+01  0.14386422349E+02  0.37851966952E+02  0.00000000000E+00 0.  1.
</event>
<event>
 7    1  0.2599124E-010  0.4778727E+02  0.7816164E-02  0.1312668E+00
        -11   -1    0    0    0    0  0.00000000000E+00  0.00000000000E+00  0.45593999997E+02  0.45594000000E+02  0.51100000000E-03 0.  1.
         11   -1    0    0    0    0 -0.00000000000E+00 -0.00000000000E+00 -0.45593999997E+02  0.45594000000E+02  0.51100000000E-03 0. -1.
    9900012    2    1    2    0    0  0.81723844036E+00  0.28905974974E+02  0.32363558866E+02  0.47787271777E+02  0.20000003338E+02 0.  0.
         12    1    1    2    0    0 -0.81723844036E+00 -0.28905974974E+02 -0.32363558866E+02  0.43400728223E+02  0.00000000000E+00 0. -1.
         11    1    3    3    0    0  0.14806840328E+01  0.36676088500E+00  0.45578313885E+00  0.15920669843E+01  0.51100000000E-03 0. -1.
        -11    1    3    3    0    0 -0.79106014983E+01  0.97751802467E+01  0.77994336410E+01  0.14797396065E+02  0.51100000000E-03 0.  1.
        -12    1    3    3    0    0  0.72471559060E+01  0.18764033843E+02  0.24108342086E+02  0.31397808727E+02  0.00000000000E+00 0.  1.
</event>
<event>
 7    1  0.2599124E-010  0.4778727E+02  0.7816164E-02  0.1312668E+00
        -11   -1    0    0    0    0  0.00000000000E+00  0.00000000000E+00  0.45593999997E+02  0.45594000000E+02  0.51100000000E-03 0.  1.
         11   -1    0    0    0    0 -0.00000000000E+00 -0.00000000000E+00 -0.45593999997E+02  0.45594000000E+02  0.51100000000E-03 0. -1.
    9900012    2    1    2    0    0  0.22589371682E+02 -0.19330790586E+02  0.31617463191E+02  0.47787272399E+02  0.20000006177E+02 0.  0.
         12    1    1    2    0    0 -0.22589371682E+02  0.19330790586E+02 -0.31617463191E+02  0.43400727601E+02  0.00000000000E+00 0. -1.
         11    1    3    3    0    0  0.11703178584E+02 -0.39236170809E+01  0.46163293322E+01  0.13178378380E+02  0.51100000000E-03 0. -1.
        -11    1    3    3    0    0  0.59044621677E+01 -0.12709179651E+02  0.11577220323E+02  0.18177402222E+02  0.51100000000E-03 0.  1.
         12    1    3    3    0    0  0.49817309301E+01 -0.26979938542E+01  0.15423913536E+02  0.16431491797E+02  0.00000000000E+00 0. -1.
</event>
<event>
 7    1  0.2599124E-010  0.4778727E+02  0.7816164E-02  0.1312668E+00
        -11   -1    0    0    0    0  0.00000000000E+00  0.00000000000E+00  0.45593999997E+02  0.45594000000E+02  0.51100000000E-03 0. -1.
         11   -1    0    0    0    0 -0.00000000000E+00 -0.00000000000E+00 -0.45593999997E+02  0.45594000000E+02  0.51100000000E-03 0.  1.
    9900012    2    1    2    0    0 -0.44956285245E+01 -0.24033557731E+02 -0.35858062640E+02  0.47787271558E+02  0.20000002341E+02 0.  0.
         12    1    1    2    0    0  0.44956285245E+01  0.24033557731E+02  0.35858062640E+02  0.43400728442E+02  0.00000000000E+00 0. -1.
         11    1    3    3    0    0  0.41766653758E+01 -0.58531024011E+01 -0.58050065751E+01  0.92412901143E+01  0.51100000000E-03 0. -1.
        -11    1    3    3    0    0  0.16049058066E+01 -0.11277850923E+02 -0.11081116214E+02  0.15892035140E+02  0.51100000000E-03 0.  1.
        -12    1    3    3    0    0 -0.10277199707E+02 -0.69026044069E+01 -0.18971939851E+02  0.22653946304E+02  0.00000000000E+00 0.  1.
</event>
<event>
 7    1  0.2599124E-010  0.4778725E+02  0.7816164E-02  0.1312668E+00
        -11   -1    0    0    0    0  0.00000000000E+00  0.00000000000E+00  0.45593999997E+02  0.45594000000E+02  0.51100000000E-03 0.  1.
         11   -1    0    0    0    0 -0.00000000000E+00 -0.00000000000E+00 -0.45593999997E+02  0.45594000000E+02  0.51100000000E-03 0. -1.
    9900012    2    1    2    0    0  0.28778955406E+02  0.32475011190E+02 -0.87781205960E+00  0.47787249084E+02  0.19999899872E+02 0.  0.
         12    1    1    2    0    0 -0.28778955406E+02 -0.32475011190E+02  0.87781205960E+00  0.43400750916E+02  0.00000000000E+00 0. -1.
         11    1    3    3    0    0  0.76697492406E+00  0.81731374864E+01  0.28842145555E+01  0.87009838966E+01  0.51100000000E-03 0. -1.
        -11    1    3    3    0    0  0.36239798475E+01  0.99807305186E+01 -0.12929084701E+01  0.10696720254E+02  0.51100000000E-03 0.  1.
         12    1    3    3    0    0  0.24388000635E+02  0.14321143185E+02 -0.24691181450E+01  0.28389544933E+02  0.00000000000E+00 0. -1.
</event>
<event>
 7    1  0.2599124E-010  0.4778727E+02  0.7816164E-02  0.1312668E+00
        -11   -1    0    0    0    0  0.00000000000E+00  0.00000000000E+00  0.45593999997E+02  0.45594000000E+02  0.51100000000E-03 0.  1.
         11   -1    0    0    0    0 -0.00000000000E+00 -0.00000000000E+00 -0.45593999997E+02  0.45594000000E+02  0.51100000000E-03 0. -1.
    9900012    2    1    2    0    0  0.10416947950E+02  0.24842691632E+02  0.34028681582E+02  0.47787270717E+02  0.19999998506E+02 0.  0.
         12    1    1    2    0    0 -0.10416947950E+02 -0.24842691632E+02 -0.34028681582E+02  0.43400729283E+02  0.00000000000E+00 0. -1.
         11    1    3    3    0    0  0.31138153058E+01  0.13429056843E+02  0.94514677316E+01  0.16714235130E+02  0.51100000000E-03 0. -1.
        -11    1    3    3    0    0  0.75145392331E+01  0.84352020156E+01  0.71005179097E+01  0.13343098882E+02  0.51100000000E-03 0.  1.
         12    1    3    3    0    0 -0.21140658904E+00  0.29784327733E+01  0.17476695941E+02  0.17729936704E+02  0.00000000000E+00 0. -1.
</event>
<event>
 7    1  0.2599124E-010  0.4778727E+02  0.7816164E-02  0.1312668E+00
        -11   -1    0    0    0    0  0.00000000000E+00  0.00000000000E+00  0.45593999997E+02  0.45594000000E+02  0.51100000000E-03 0.  1.
         11   -1    0    0    0    0 -0.00000000000E+00 -0.00000000000E+00 -0.45593999997E+02  0.45594000000E+02  0.51100000000E-03 0. -1.
    9900012    2    1    2    0    0 -0.15472317235E+02  0.15351268058E+02  0.37530908275E+02  0.47787272960E+02  0.20000008735E+02 0.  0.
         12    1    1    2    0    0  0.15472317235E+02 -0.15351268058E+02 -0.37530908275E+02  0.43400727040E+02  0.00000000000E+00 0. -1.
         11    1    3    3    0    0 -0.23363679634E+01  0.11878345318E+02  0.15443040741E+02  0.19622466979E+02  0.51100000000E-03 0. -1.
        -11    1    3    3    0    0 -0.14478475027E+01  0.23736765751E+00 -0.12084526157E+01  0.19007797824E+01  0.51100000000E-03 0.  1.
        -12    1    3    3    0    0 -0.11688101769E+02  0.32355550831E+01  0.23296320150E+02  0.26264026199E+02  0.00000000000E+00 0.  1.
</event>
<event>
 7    1  0.2599124E-010  0.4778727E+02  0.7816164E-02  0.1312668E+00
        -11   -1    0    0    0    0  0.00000000000E+00  0.00000000000E+00  0.45593999997E+02  0.45594000000E+02  0.51100000000E-03 0. -1.
         11   -1    0    0    0    0 -0.00000000000E+00 -0.00000000000E+00 -0.45593999997E+02  0.45594000000E+02  0.51100000000E-03 0.  1.
    9900012    2    1    2    0    0  0.11557803828E+02  0.31757846517E+02 -0.27230121688E+02  0.47787272220E+02  0.20000005358E+02 0.  0.
         12    1    1    2    0    0 -0.11557803828E+02 -0.31757846517E+02  0.27230121688E+02  0.43400727780E+02  0.00000000000E+00 0. -1.
         11    1    3    3    0    0  0.45572398718E+01  0.57728213341E+01 -0.54096779304E+01  0.91300885525E+01  0.51100000000E-03 0.  1.
        -11    1    3    3    0    0 -0.46575474198E+00  0.20196065507E+02 -0.21054429958E+02  0.29178536813E+02  0.51100000000E-03 0. -1.
         12    1    3    3    0    0  0.74663186980E+01  0.57889596765E+01 -0.76601379863E+00  0.94786468537E+01  0.00000000000E+00 0. -1.
</event>
<event>
 7    1  0.2599124E-010  0.4778727E+02  0.7816164E-02  0.1312668E+00
        -11   -1    0    0    0    0  0.00000000000E+00  0.00000000000E+00  0.45593999997E+02  0.45594000000E+02  0.51100000000E-03 0.  1.
         11   -1    0    0    0    0 -0.00000000000E+00 -0.00000000000E+00 -0.45593999997E+02  0.45594000000E+02  0.51100000000E-03 0. -1.
    9900012    2    1    2    0    0 -0.28026200736E+02  0.25820339489E+02  0.20771753122E+02  0.47787267440E+02  0.19999983564E+02 0.  0.
         12    1    1    2    0    0  0.28026200736E+02 -0.25820339489E+02 -0.20771753122E+02  0.43400732560E+02  0.00000000000E+00 0. -1.
         11    1    3    3    0    0 -0.93434404013E+01  0.91292431568E+01  0.19144471451E+01  0.13202578054E+02  0.51100000000E-03 0. -1.
        -11    1    3    3    0    0 -0.12474888730E+01  0.96998906776E+01  0.37327264851E+01  0.10467920277E+02  0.51100000000E-03 0.  1.
        -12    1    3    3    0    0 -0.17435271461E+02  0.69912056550E+01  0.15124579492E+02  0.24116769109E+02  0.00000000000E+00 0.  1.
</event>
<event>
 7    1  0.2599124E-010  0.4778728E+02  0.7816164E-02  0.1312668E+00
        -11   -1    0    0    0    0  0.00000000000E+00  0.00000000000E+00  0.45593999997E+02  0.45594000000E+02  0.51100000000E-03 0.  1.
         11   -1    0    0    0    0 -0.00000000000E+00 -0.00000000000E+00 -0.45593999997E+02  0.45594000000E+02  0.51100000000E-03 0. -1.
    9900012    2    1    2    0    0  0.93689343998E+01 -0.29269011563E+02  0.30645888368E+02  0.47787280611E+02  0.20000043616E+02 0.  0.
         12    1    1    2    0    0 -0.93689343998E+01  0.29269011563E+02 -0.30645888368E+02  0.43400719389E+02  0.00000000000E+00 0. -1.
         11    1    3    3    0    0  0.13124316838E-01 -0.10207494985E+02  0.10453471135E+02  0.14610550474E+02  0.51100000000E-03 0. -1.
        -11    1    3    3    0    0  0.49166346222E+01 -0.19201243234E+02  0.10309262762E+02  0.22341484657E+02  0.51100000000E-03 0.  1.
         12    1    3    3    0    0  0.44391754607E+01  0.13972665554E+00  0.98831544708E+01  0.10835245480E+02  0.00000000000E+00 0. -1.
</event>
<event>
 7    1  0.2599124E-010  0.4778724E+02  0.7816164E-02  0.1312668E+00
        -11   -1    0    0    0    0  0.00000000000E+00  0.00000000000E+00  0.45593999997E+02  0.45594000000E+02  0.51100000000E-03 0.  1.
         11   -1    0    0    0    0 -0.00000000000E+00 -0.00000000000E+00 -0.45593999997E+02  0.45594000000E+02  0.51100000000E-03 0. -1.
    9900012    2    1    2    0    0  0.22759334060E+01  0.16085802351E+02  0.40245413731E+02  0.47787236914E+02  0.19999844383E+02 0.  0.
         12    1    1    2    0    0 -0.22759334060E+01 -0.16085802351E+02 -0.40245413731E+02  0.43400763086E+02  0.00000000000E+00 0. -1.
         11    1    3    3    0    0 -0.14038165167E+01  0.10601741214E+02  0.12643440372E+02  0.16559716250E+02  0.51100000000E-03 0. -1.
        -11    1    3    3    0    0 -0.18150129718E+01  0.68255703255E+01  0.22596608826E+02  0.23674657612E+02  0.51100000000E-03 0.  1.
         12    1    3    3    0    0  0.54947628945E+01 -0.13415091883E+01  0.50053645321E+01  0.75528630511E+01  0.00000000000E+00 0. -1.
</event>
<event>
 7    1  0.2599124E-010  0.4778727E+02  0.7816164E-02  0.1312668E+00
        -11   -1    0    0    0    0  0.00000000000E+00  0.00000000000E+00  0.45593999997E+02  0.45594000000E+02  0.51100000000E-03 0.  1.
         11   -1    0    0    0    0 -0.00000000000E+00 -0.00000000000E+00 -0.45593999997E+02  0.45594000000E+02  0.51100000000E-03 0. -1.
    9900012    2    1    2    0    0 -0.70676351497E+01 -0.23959557521E+02  0.35491002793E+02  0.47787272558E+02  0.20000006901E+02 0.  0.
         12    1    1    2    0    0  0.70676351497E+01  0.23959557521E+02 -0.35491002793E+02  0.43400727442E+02  0.00000000000E+00 0. -1.
         11    1    3    3    0    0 -0.30373009252E+00 -0.15819127329E+01  0.11197558430E+02  0.11312825241E+02  0.51100000000E-03 0. -1.
        -11    1    3    3    0    0  0.41861107499E+01 -0.77703680799E+01  0.95928933582E+01  0.13035557010E+02  0.51100000000E-03 0.  1.
         12    1    3    3    0    0 -0.10950015807E+02 -0.14607276708E+02  0.14700551005E+02  0.23438890308E+02  0.00000000000E+00 0. -1.
</event>
<event>
 7    1  0.2599124E-010  0.4778725E+02  0.7816164E-02  0.1312668E+00
        -11   -1    0    0    0    0  0.00000000000E+00  0.00000000000E+00  0.45593999997E+02  0.45594000000E+02  0.51100000000E-03 0.  1.
         11   -1    0    0    0    0 -0.00000000000E+00 -0.00000000000E+00 -0.45593999997E+02  0.45594000000E+02  0.51100000000E-03 0. -1.
    9900012    2    1    2    0    0 -0.13655674822E+02 -0.31848799990E+02  0.26130465575E+02  0.47787254076E+02  0.19999922633E+02 0.  0.
         12    1    1    2    0    0  0.13655674822E+02  0.31848799990E+02 -0.26130465575E+02  0.43400745924E+02  0.00000000000E+00 0. -1.
         11    1    3    3    0    0 -0.46074349015E+01  0.91487178499E+00  0.55666452019E+01  0.72837480612E+01  0.51100000000E-03 0. -1.
        -11    1    3    3    0    0 -0.19542920620E+01 -0.16673687413E+02  0.65591974965E+01  0.18023711645E+02  0.51100000000E-03 0.  1.
        -12    1    3    3    0    0 -0.70939478585E+01 -0.16089984362E+02  0.14004622877E+02  0.22479794370E+02  0.00000000000E+00 0.  1.
</event>
<event>
 7    1  0.2599124E-010  0.4778727E+02  0.7816164E-02  0.1312668E+00
        -11   -1    0    0    0    0  0.00000000000E+00  0.00000000000E+00  0.45593999997E+02  0.45594000000E+02  0.51100000000E-03 0.  1.
         11   -1    0    0    0    0 -0.00000000000E+00 -0.00000000000E+00 -0.45593999997E+02  0.45594000000E+02  0.51100000000E-03 0. -1.
    9900012    2    1    2    0    0 -0.14047095842E+02  0.28801838410E+02  0.29270402581E+02  0.47787271151E+02  0.20000000485E+02 0.  0.
         12    1    1    2    0    0  0.14047095842E+02 -0.28801838410E+02 -0.29270402581E+02  0.43400728849E+02  0.00000000000E+00 0. -1.
         11    1    3    3    0    0 -0.39246963945E+01  0.11455620784E+02  0.18366415166E+02  0.21999083973E+02  0.51100000000E-03 0. -1.
        -11    1    3    3    0    0  0.22414188948E+01  0.44607719101E+01  0.47743601291E+01  0.69077463473E+01  0.51100000000E-03 0.  1.
         12    1    3    3    0    0 -0.12363818342E+02  0.12885445716E+02  0.61296272864E+01  0.18880440831E+02  0.00000000000E+00 0. -1.
</event>
<event>
 7    1  0.2599124E-010  0.4778727E+02  0.7816164E-02  0.1312668E+00
        -11   -1    0    0    0    0  0.00000000000E+00  0.00000000000E+00  0.45593999997E+02  0.45594000000E+02  0.51100000000E-03 0.  1.
         11   -1    0    0    0    0 -0.00000000000E+00 -0.00000000000E+00 -0.45593999997E+02  0.45594000000E+02  0.51100000000E-03 0. -1.
    9900012    2    1    2    0    0 -0.32374793117E+02  0.63922024707E+01  0.28189283503E+02  0.47787272054E+02  0.20000004604E+02 0.  0.
         12    1    1    2    0    0  0.32374793117E+02 -0.63922024707E+01 -0.28189283503E+02  0.43400727946E+02  0.00000000000E+00 0. -1.
         11    1    3    3    0    0 -0.10326228249E+02  0.67023188150E+01  0.42455574789E+01  0.13022166714E+02  0.51100000000E-03 0. -1.
        -11    1    3    3    0    0  0.10010225442E+01 -0.13534571082E+01  0.37206408525E+01  0.40837557336E+01  0.51100000000E-03 0.  1.
         12    1    3    3    0    0 -0.23049587412E+02  0.10433407639E+01  0.20223085172E+02  0.30681349607E+02  0.00000000000E+00 0. -1.
</event>
<event>
 7    1  0.2599124E-010  0.4778727E+02  0.7816164E-02  0.1312668E+00
        -11   -1    0    0    0    0  0.00000000000E+00  0.00000000000E+00  0.45593999997E+02  0.45594000000E+02  0.51100000000E-03 0.  1.
         11   -1    0    0    0    0 -0.00000000000E+00 -0.00000000000E+00 -0.45593999997E+02  0.45594000000E+02  0.51100000000E-03 0. -1.
    9900012    2    1    2    0    0 -0.17553019177E+02  0.68619338504E+01  0.39095125452E+02  0.47787268986E+02  0.19999990617E+02 0.  0.
         12    1    1    2    0    0  0.17553019177E+02 -0.68619338504E+01 -0.39095125452E+02  0.43400731014E+02  0.00000000000E+00 0. -1.
         11    1    3    3    0    0 -0.55150622959E+01 -0.38869443706E+01  0.59588874035E+01  0.90018102633E+01  0.51100000000E-03 0.  1.
        -11    1    3    3    0    0 -0.35397072379E+01  0.31269105649E+01  0.12040266897E+01  0.48740924839E+01  0.51100000000E-03 0. -1.
        -12    1    3    3    0    0 -0.84982496432E+01  0.76219676561E+01  0.31932211359E+02  0.33911366239E+02  0.00000000000E+00 0.  1.
</event>
<event>
 7    1  0.2599124E-010  0.4778727E+02  0.7816164E-02  0.1312668E+00
        -11   -1    0    0    0    0  0.00000000000E+00  0.00000000000E+00  0.45593999997E+02  0.45594000000E+02  0.51100000000E-03 0. -1.
         11   -1    0    0    0    0 -0.00000000000E+00 -0.00000000000E+00 -0.45593999997E+02  0.45594000000E+02  0.51100000000E-03 0.  1.
    9900012    2    1    2    0    0 -0.10605703833E+02 -0.40237437252E+02 -0.12332515137E+02  0.47787271435E+02  0.20000001780E+02 0.  0.
         12    1    1    2    0    0  0.10605703833E+02  0.40237437252E+02  0.12332515137E+02  0.43400728565E+02  0.00000000000E+00 0. -1.
         11    1    3    3    0    0 -0.24305330786E+00 -0.31220545734E+01 -0.14661621585E+01  0.34577350109E+01  0.51100000000E-03 0. -1.
        -11    1    3    3    0    0 -0.65161337530E+00 -0.19696013963E+02  0.31451256987E+01  0.19956186559E+02  0.51100000000E-03 0.  1.
         12    1    3    3    0    0 -0.97110371500E+01 -0.17419368715E+02 -0.14011478677E+02  0.24373349865E+02  0.00000000000E+00 0. -1.
</event>
<event>
 7    1  0.2599124E-010  0.4778727E+02  0.7816164E-02  0.1312668E+00
        -11   -1    0    0    0    0  0.00000000000E+00  0.00000000000E+00  0.45593999997E+02  0.45594000000E+02  0.51100000000E-03 0.  1.
         11   -1    0    0    0    0 -0.00000000000E+00 -0.00000000000E+00 -0.45593999997E+02  0.45594000000E+02  0.51100000000E-03 0. -1.
    9900012    2    1    2    0    0  0.24149025875E+02 -0.31373611798E+02 -0.17780455473E+02  0.47787267693E+02  0.19999984718E+02 0.  0.
         12    1    1    2    0    0 -0.24149025875E+02  0.31373611798E+02  0.17780455473E+02  0.43400732307E+02  0.00000000000E+00 0. -1.
         11    1    3    3    0    0  0.13287345306E+02 -0.17124141739E+02 -0.91214472705E+01  0.23515751660E+02  0.51100000000E-03 0. -1.
        -11    1    3    3    0    0  0.10568059948E+02 -0.10400669190E+02 -0.12070923619E+02  0.19119754390E+02  0.51100000000E-03 0.  1.
         12    1    3    3    0    0  0.29362062076E+00 -0.38488008698E+01  0.34119154168E+01  0.51517616419E+01  0.00000000000E+00 0. -1.
</event>
<event>
 7    1  0.2599124E-010  0.4778727E+02  0.7816164E-02  0.1312668E+00
        -11   -1    0    0    0    0  0.00000000000E+00  0.00000000000E+00  0.45593999997E+02  0.45594000000E+02  0.51100000000E-03 0.  1.
         11   -1    0    0    0    0 -0.00000000000E+00 -0.00000000000E+00 -0.45593999997E+02  0.45594000000E+02  0.51100000000E-03 0. -1.
    9900012    2    1    2    0    0  0.28537620133E+02  0.32199680543E+02  0.56928198401E+01  0.47787269734E+02  0.19999994023E+02 0.  0.
         12    1    1    2    0    0 -0.28537620133E+02 -0.32199680543E+02 -0.56928198401E+01  0.43400730266E+02  0.00000000000E+00 0. -1.
         11    1    3    3    0    0 -0.16732469146E+01  0.25858206486E+01 -0.17135577231E+01  0.35245572766E+01  0.51100000000E-03 0. -1.
        -11    1    3    3    0    0  0.18657786257E+02  0.21183322455E+02  0.15825474880E+00  0.28228906870E+02  0.51100000000E-03 0.  1.
        -12    1    3    3    0    0  0.11553080791E+02  0.84305374390E+01  0.72481228144E+01  0.16033805587E+02  0.00000000000E+00 0.  1.
</event>
<event>
 7    1  0.2599124E-010  0.4778727E+02  0.7816164E-02  0.1312668E+00
        -11   -1    0    0    0    0  0.00000000000E+00  0.00000000000E+00  0.45593999997E+02  0.45594000000E+02  0.51100000000E-03 0. -1.
         11   -1    0    0    0    0 -0.00000000000E+00 -0.00000000000E+00 -0.45593999997E+02  0.45594000000E+02  0.51100000000E-03 0.  1.
    9900012    2    1    2    0    0 -0.28779329474E+02  0.31454267346E+02 -0.81241827100E+01  0.47787273232E+02  0.20000009974E+02 0.  0.
         12    1    1    2    0    0  0.28779329474E+02 -0.31454267346E+02  0.81241827100E+01  0.43400726768E+02  0.00000000000E+00 0. -1.
         11    1    3    3    0    0  0.80899965644E+00  0.36840377940E+01 -0.39102024252E+01  0.54328904074E+01  0.51100000000E-03 0. -1.
        -11    1    3    3    0    0 -0.85278796933E+01  0.15699409797E+02 -0.15073377081E+01  0.17929536170E+02  0.51100000000E-03 0.  1.
         12    1    3    3    0    0 -0.21060449437E+02  0.12070819755E+02 -0.27066425767E+01  0.24424846655E+02  0.00000000000E+00 0. -1.
</event>
<event>
 7    1  0.2599124E-010  0.4778728E+02  0.7816164E-02  0.1312668E+00
        -11   -1    0    0    0    0  0.00000000000E+00  0.00000000000E+00  0.45593999997E+02  0.45594000000E+02  0.51100000000E-03 0. -1.
         11   -1    0    0    0    0 -0.00000000000E+00 -0.00000000000E+00 -0.45593999997E+02  0.45594000000E+02  0.51100000000E-03 0.  1.
    9900012    2    1    2    0    0  0.22373774690E+02  0.13015937410E+02 -0.34837076453E+02  0.47787282076E+02  0.20000050295E+02 0.  0.
         12    1    1    2    0    0 -0.22373774690E+02 -0.13015937410E+02  0.34837076453E+02  0.43400717924E+02  0.00000000000E+00 0. -1.
         11    1    3    3    0    0  0.55431481874E+01  0.40178018155E+01 -0.46186441933E+01  0.82583955888E+01  0.51100000000E-03 0. -1.
        -11    1    3    3    0    0  0.13298851474E+02  0.77000709918E+01 -0.31899227117E+02  0.35407784945E+02  0.51100000000E-03 0.  1.
         12    1    3    3    0    0  0.35317750284E+01  0.12980646030E+01  0.16807948568E+01  0.41211015416E+01  0.00000000000E+00 0. -1.
</event>
<event>
 7    1  0.2599124E-010  0.4778727E+02  0.7816164E-02  0.1312668E+00
        -11   -1    0    0    0    0  0.00000000000E+00  0.00000000000E+00  0.45593999997E+02  0.45594000000E+02  0.51100000000E-03 0.  1.
         11   -1    0    0    0    0 -0.00000000000E+00 -0.00000000000E+00 -0.45593999997E+02  0.45594000000E+02  0.51100000000E-03 0. -1.
    9900012    2    1    2    0    0 -0.28695978025E+02 -0.27867708044E+02  0.16839098071E+02  0.47787268091E+02  0.19999986533E+02 0.  0.
         12    1    1    2    0    0  0.28695978025E+02  0.27867708044E+02 -0.16839098071E+02  0.43400731909E+02  0.00000000000E+00 0. -1.
         11    1    3    3    0    0 -0.11404709840E+02 -0.12285118699E+02  0.69668374700E-01  0.16762947292E+02  0.51100000000E-03 0. -1.
        -11    1    3    3    0    0 -0.13936708480E+02 -0.64284435817E+01  0.59514872979E+01  0.16461376961E+02  0.51100000000E-03 0.  1.
        -12    1    3    3    0    0 -0.33545597041E+01 -0.91541457634E+01  0.10817942398E+02  0.14562943837E+02  0.00000000000E+00 0.  1.
</event>
<event>
 7    1  0.2599124E-010  0.4778727E+02  0.7816164E-02  0.1312668E+00
        -11   -1    0    0    0    0  0.00000000000E+00  0.00000000000E+00  0.45593999997E+02  0.45594000000E+02  0.51100000000E-03 0. -1.
         11   -1    0    0    0    0 -0.00000000000E+00 -0.00000000000E+00 -0.45593999997E+02  0.45594000000E+02  0.51100000000E-03 0.  1.
    9900012    2    1    2    0    0 -0.79271031304E+00  0.41963096016E+02 -0.11049605615E+02  0.47787267274E+02  0.19999982810E+02 0.  0.
         12    1    1    2    0    0  0.79271031304E+00 -0.41963096016E+02  0.11049605615E+02  0.43400732726E+02  0.00000000000E+00 0. -1.
         11    1    3    3    0    0  0.34695356155E+00  0.90852358427E+01 -0.62398990479E+01  0.11027158631E+02  0.51100000000E-03 0. -1.
        -11    1    3    3    0    0  0.24678921455E+00 -0.98499473694E+00  0.19525728396E+01  0.22008317753E+01  0.51100000000E-03 0.  1.
        -12    1    3    3    0    0 -0.13864530891E+01  0.33862854910E+02 -0.67622794071E+01  0.34559276868E+02  0.00000000000E+00 0.  1.
</event>
<event>
 7    1  0.2599124E-010  0.4778726E+02  0.7816164E-02  0.1312668E+00
        -11   -1    0    0    0    0  0.00000000000E+00  0.00000000000E+00  0.45593999997E+02  0.45594000000E+02  0.51100000000E-03 0. -1.
         11   -1    0    0    0    0 -0.00000000000E+00 -0.00000000000E+00 -0.45593999997E+02  0.45594000000E+02  0.51100000000E-03 0.  1.
    9900012    2    1    2    0    0  0.42332872865E+02  0.89139989867E+01  0.34774412735E+01  0.47787261518E+02  0.19999956566E+02 0.  0.
         12    1    1    2    0    0 -0.42332872865E+02 -0.89139989867E+01 -0.34774412735E+01  0.43400738482E+02  0.00000000000E+00 0. -1.
         11    1    3    3    0    0  0.45123537560E+01  0.34720680187E+01  0.42659597822E+01  0.71144223848E+01  0.51100000000E-03 0. -1.
        -11    1    3    3    0    0  0.60181022209E+01 -0.43076433127E+01 -0.25255319824E+00  0.74052095601E+01  0.51100000000E-03 0.  1.
         12    1    3    3    0    0  0.31802416889E+02  0.97495742807E+01 -0.53596531042E+00  0.33267629573E+02  0.00000000000E+00 0. -1.
</event>
<event>
 7    1  0.2599124E-010  0.4778727E+02  0.7816164E-02  0.1312668E+00
        -11   -1    0    0    0    0  0.00000000000E+00  0.00000000000E+00  0.45593999997E+02  0.45594000000E+02  0.51100000000E-03 0.  1.
         11   -1    0    0    0    0 -0.00000000000E+00 -0.00000000000E+00 -0.45593999997E+02  0.45594000000E+02  0.51100000000E-03 0. -1.
    9900012    2    1    2    0    0  0.14669635015E+02 -0.39935911962E+02  0.85759966690E+01  0.47787274493E+02  0.20000015722E+02 0.  0.
         12    1    1    2    0    0 -0.14669635015E+02  0.39935911962E+02 -0.85759966690E+01  0.43400725507E+02  0.00000000000E+00 0. -1.
         11    1    3    3    0    0  0.99601471532E+01 -0.10215901958E+02  0.19740496765E+01  0.14403682047E+02  0.51100000000E-03 0.  1.
        -11    1    3    3    0    0  0.28208856807E+01 -0.14106009107E+01  0.37021626550E+01  0.48634555142E+01  0.51100000000E-03 0. -1.
        -12    1    3    3    0    0  0.18886021816E+01 -0.28309409092E+02  0.28997843375E+01  0.28520136931E+02  0.00000000000E+00 0.  1.
</event>
<event>
 7    1  0.3230674E-010  0.4778727E+02  0.7816164E-02  0.1312668E+00
        -11   -1    0    0    0    0  0.00000000000E+00  0.00000000000E+00  0.45593999997E+02  0.45594000000E+02  0.51100000000E-03 0. -1.
         11   -1    0    0    0    0 -0.00000000000E+00 -0.00000000000E+00 -0.45593999997E+02  0.45594000000E+02  0.51100000000E-03 0.  1.
    9900012    2    1    2    0    0  0.10757654359E+02  0.90258519960E+01 -0.41066167574E+02  0.47787271311E+02  0.20000001213E+02 0.  0.
         12    1    1    2    0    0 -0.10757654359E+02 -0.90258519960E+01  0.41066167574E+02  0.43400728689E+02  0.00000000000E+00 0. -1.
         11    1    3    3    0    0 -0.13320860934E+01 -0.19745230780E+01 -0.13342359391E+01  0.27300880110E+01  0.51100000000E-03 0. -1.
        -11    1    3    3    0    0  0.33498137540E+01  0.46240152103E+00 -0.23851353831E+02  0.24089876446E+02  0.51100000000E-03 0.  1.
        -12    1    3    3    0    0  0.87399266989E+01  0.10537973553E+02 -0.15880577803E+02  0.20967306853E+02  0.00000000000E+00 0.  1.
</event>
<event>
 7    1  0.2599124E-010  0.4778724E+02  0.7816164E-02  0.1312668E+00
        -11   -1    0    0    0    0  0.00000000000E+00  0.00000000000E+00  0.45593999997E+02  0.45594000000E+02  0.51100000000E-03 0. -1.
         11   -1    0    0    0    0 -0.00000000000E+00 -0.00000000000E+00 -0.45593999997E+02  0.45594000000E+02  0.51100000000E-03 0.  1.
    9900012    2    1    2    0    0  0.78046049996E+01 -0.70079438611E+01 -0.42114159749E+02  0.47787244388E+02  0.19999878463E+02 0.  0.
         12    1    1    2    0    0 -0.78046049996E+01  0.70079438611E+01  0.42114159749E+02  0.43400755612E+02  0.00000000000E+00 0. -1.
         11    1    3    3    0    0  0.21910868412E+01  0.11777155083E+01 -0.10437064734E+02  0.10729407994E+02  0.51100000000E-03 0. -1.
        -11    1    3    3    0    0  0.53629775511E+01 -0.53092600218E+01 -0.33021538075E+02  0.33872876277E+02  0.51100000000E-03 0.  1.
         12    1    3    3    0    0  0.25054060732E+00 -0.28763993477E+01  0.13444430609E+01  0.31849601171E+01  0.00000000000E+00 0. -1.
</event>
<event>
 7    1  0.2599124E-010  0.4778727E+02  0.7816164E-02  0.1312668E+00
        -11   -1    0    0    0    0  0.00000000000E+00  0.00000000000E+00  0.45593999997E+02  0.45594000000E+02  0.51100000000E-03 0.  1.
         11   -1    0    0    0    0 -0.00000000000E+00 -0.00000000000E+00 -0.45593999997E+02  0.45594000000E+02  0.51100000000E-03 0. -1.
    9900012    2    1    2    0    0  0.29054223557E+02  0.21493341340E+02  0.24031471448E+02  0.47787271338E+02  0.20000001337E+02 0.  0.
         12    1    1    2    0    0 -0.29054223557E+02 -0.21493341340E+02 -0.24031471448E+02  0.43400728662E+02  0.00000000000E+00 0. -1.
         11    1    3    3    0    0 -0.76393186571E+00  0.48808515219E+01  0.31422377685E+00  0.49502565911E+01  0.51100000000E-03 0. -1.
        -11    1    3    3    0    0  0.93638761847E+01  0.19468227531E+01  0.24167209932E+01  0.98647268920E+01  0.51100000000E-03 0.  1.
         12    1    3    3    0    0  0.20454279238E+02  0.14665667065E+02  0.21300526678E+02  0.32972287855E+02  0.00000000000E+00 0. -1.
</event>
<event>
 7    1  0.2599124E-010  0.4778727E+02  0.7816164E-02  0.1312668E+00
        -11   -1    0    0    0    0  0.00000000000E+00  0.00000000000E+00  0.45593999997E+02  0.45594000000E+02  0.51100000000E-03 0. -1.
         11   -1    0    0    0    0 -0.00000000000E+00 -0.00000000000E+00 -0.45593999997E+02  0.45594000000E+02  0.51100000000E-03 0.  1.
    9900012    2    1    2    0    0  0.22297197790E+02  0.37235139329E+02  0.53061035243E-01  0.47787269066E+02  0.19999990979E+02 0.  0.
         12    1    1    2    0    0 -0.22297197790E+02 -0.37235139329E+02 -0.53061035243E-01  0.43400730934E+02  0.00000000000E+00 0. -1.
         11    1    3    3    0    0 -0.24444430077E+01  0.20214352357E+01  0.13832297244E+00  0.31750016592E+01  0.51100000000E-03 0. -1.
        -11    1    3    3    0    0  0.34169252967E+01  0.17778696580E+01 -0.29499979115E+01  0.48516684700E+01  0.51100000000E-03 0.  1.
        -12    1    3    3    0    0  0.21324715501E+02  0.33435834435E+02  0.28647359743E+01  0.39760598937E+02  0.00000000000E+00 0.  1.
</event>
<event>
 7    1  0.2599124E-010  0.4778727E+02  0.7816164E-02  0.1312668E+00
        -11   -1    0    0    0    0  0.00000000000E+00  0.00000000000E+00  0.45593999997E+02  0.45594000000E+02  0.51100000000E-03 0. -1.
         11   -1    0    0    0    0 -0.00000000000E+00 -0.00000000000E+00 -0.45593999997E+02  0.45594000000E+02  0.51100000000E-03 0.  1.
    9900012    2    1    2    0    0 -0.61115213684E+01 -0.97481014053E+01 -0.41847906927E+02  0.47787268571E+02  0.19999988721E+02 0.  0.
         12    1    1    2    0    0  0.61115213684E+01  0.97481014053E+01  0.41847906927E+02  0.43400731429E+02  0.00000000000E+00 0. -1.
         11    1    3    3    0    0 -0.17905788234E+01 -0.12714028616E+02 -0.14310244081E+02  0.19225914337E+02  0.51100000000E-03 0. -1.
        -11    1    3    3    0    0 -0.49017437990E+01  0.12159720120E+01 -0.13696816380E+02  0.14598234804E+02  0.51100000000E-03 0.  1.
         12    1    3    3    0    0  0.58080125405E+00  0.17499551989E+01 -0.13840846466E+02  0.13963119429E+02  0.00000000000E+00 0. -1.
</event>
<event>
 7    1  0.2599124E-010  0.4778727E+02  0.7816164E-02  0.1312668E+00
        -11   -1    0    0    0    0  0.00000000000E+00  0.00000000000E+00  0.45593999997E+02  0.45594000000E+02  0.51100000000E-03 0.  1.
         11   -1    0    0    0    0 -0.00000000000E+00 -0.00000000000E+00 -0.45593999997E+02  0.45594000000E+02  0.51100000000E-03 0. -1.
    9900012    2    1    2    0    0 -0.15438698746E+02  0.54603773530E+00  0.40558251986E+02  0.47787269818E+02  0.19999994408E+02 0.  0.
         12    1    1    2    0    0  0.15438698746E+02 -0.54603773530E+00 -0.40558251986E+02  0.43400730182E+02  0.00000000000E+00 0. -1.
         11    1    3    3    0    0  0.40831670160E+01  0.18857524544E+01  0.50858025852E+01  0.67892343749E+01  0.51100000000E-03 0.  1.
        -11    1    3    3    0    0 -0.16612347840E+01  0.12672275980E+01  0.68317498735E+01  0.71441145979E+01  0.51100000000E-03 0. -1.
        -12    1    3    3    0    0 -0.17860630978E+02 -0.26069423171E+01  0.28640699527E+02  0.33853920845E+02  0.00000000000E+00 0.  1.
</event>
<event>
 7    1  0.2599124E-010  0.4778727E+02  0.7816164E-02  0.1312668E+00
        -11   -1    0    0    0    0  0.00000000000E+00  0.00000000000E+00  0.45593999997E+02  0.45594000000E+02  0.51100000000E-03 0.  1.
         11   -1    0    0    0    0 -0.00000000000E+00 -0.00000000000E+00 -0.45593999997E+02  0.45594000000E+02  0.51100000000E-03 0. -1.
    9900012    2    1    2    0    0 -0.32145242685E+02 -0.69175209411E+01  0.28327632758E+02  0.47787268429E+02  0.19999988074E+02 0.  0.
         12    1    1    2    0    0  0.32145242685E+02  0.69175209411E+01 -0.28327632758E+02  0.43400731571E+02  0.00000000000E+00 0. -1.
         11    1    3    3    0    0 -0.82064358557E+01 -0.51095435474E+01  0.15077018073E+02  0.17910039055E+02  0.51100000000E-03 0. -1.
        -11    1    3    3    0    0 -0.88738996017E+01 -0.64409528497E+01  0.63556874165E+01  0.12673860128E+02  0.51100000000E-03 0.  1.
        -12    1    3    3    0    0 -0.15064907228E+02  0.46329754560E+01  0.68949272681E+01  0.17203369245E+02  0.00000000000E+00 0.  1.
</event>
<event>
 7    1  0.2599124E-010  0.4778727E+02  0.7816164E-02  0.1312668E+00
        -11   -1    0    0    0    0  0.00000000000E+00  0.00000000000E+00  0.45593999997E+02  0.45594000000E+02  0.51100000000E-03 0. -1.
         11   -1    0    0    0    0 -0.00000000000E+00 -0.00000000000E+00 -0.45593999997E+02  0.45594000000E+02  0.51100000000E-03 0.  1.
    9900012    2    1    2    0    0 -0.19316422146E+02  0.27864739648E+02 -0.27093456016E+02  0.47787271446E+02  0.20000001829E+02 0.  0.
         12    1    1    2    0    0  0.19316422146E+02 -0.27864739648E+02  0.27093456016E+02  0.43400728554E+02  0.00000000000E+00 0. -1.
         11    1    3    3    0    0 -0.68740348364E+01  0.76711531494E+01 -0.24877312615E+01  0.10596591559E+02  0.51100000000E-03 0. -1.
        -11    1    3    3    0    0 -0.14264059867E+02  0.21380012096E+02 -0.22386552610E+02  0.34084102734E+02  0.51100000000E-03 0.  1.
         12    1    3    3    0    0  0.18216725569E+01 -0.11864255978E+01 -0.22191721438E+01  0.31065771530E+01  0.00000000000E+00 0. -1.
</event>
<event>
 7    1  0.2599124E-010  0.4778727E+02  0.7816164E-02  0.1312668E+00
        -11   -1    0    0    0    0  0.00000000000E+00  0.00000000000E+00  0.45593999997E+02  0.45594000000E+02  0.51100000000E-03 0. -1.
         11   -1    0    0    0    0 -0.00000000000E+00 -0.00000000000E+00 -0.45593999997E+02  0.45594000000E+02  0.51100000000E-03 0.  1.
    9900012    2    1    2    0    0  0.31948369692E+02  0.19687771279E+02  0.21801754969E+02  0.47787272084E+02  0.20000004739E+02 0.  0.
         12    1    1    2    0    0 -0.31948369692E+02 -0.19687771279E+02 -0.21801754969E+02  0.43400727916E+02  0.00000000000E+00 0. -1.
         11    1    3    3    0    0  0.18678535252E+02  0.18410708903E+01  0.11354298515E+02  0.21936210161E+02  0.51100000000E-03 0. -1.
        -11    1    3    3    0    0  0.45247429042E+01  0.20176444674E+01  0.48188025471E+01  0.69112260703E+01  0.51100000000E-03 0.  1.
        -12    1    3    3    0    0  0.87450915358E+01  0.15829055921E+02  0.56286539072E+01  0.18939835853E+02  0.00000000000E+00 0.  1.
</event>
<event>
 7    1  0.2599124E-010  0.4778728E+02  0.7816164E-02  0.1312668E+00
        -11   -1    0    0    0    0  0.00000000000E+00  0.00000000000E+00  0.45593999997E+02  0.45594000000E+02  0.51100000000E-03 0.  1.
         11   -1    0    0    0    0 -0.00000000000E+00 -0.00000000000E+00 -0.45593999997E+02  0.45594000000E+02  0.51100000000E-03 0. -1.
    9900012    2    1    2    0    0  0.18604699483E+02  0.13156563881E+02  0.36937686206E+02  0.47787277906E+02  0.20000031286E+02 0.  0.
         12    1    1    2    0    0 -0.18604699483E+02 -0.13156563881E+02 -0.36937686206E+02  0.43400722094E+02  0.00000000000E+00 0. -1.
         11    1    3    3    0    0  0.14200951701E+01  0.19230507391E+01  0.14597640486E+02  0.14792089185E+02  0.51100000000E-03 0. -1.
        -11    1    3    3    0    0  0.69313136539E+00  0.72316207592E+01  0.57742737357E+01  0.92800327225E+01  0.51100000000E-03 0.  1.
        -12    1    3    3    0    0  0.16491472947E+02  0.40018923822E+01  0.16565771984E+02  0.23715155999E+02  0.00000000000E+00 0.  1.
</event>
<event>
 7    1  0.2599124E-010  0.4778726E+02  0.7816164E-02  0.1312668E+00
        -11   -1    0    0    0    0  0.00000000000E+00  0.00000000000E+00  0.45593999997E+02  0.45594000000E+02  0.51100000000E-03 0. -1.
         11   -1    0    0    0    0 -0.00000000000E+00 -0.00000000000E+00 -0.45593999997E+02  0.45594000000E+02  0.51100000000E-03 0.  1.
    9900012    2    1    2    0    0 -0.53502884798E+01 -0.32231966472E+02 -0.28567439666E+02  0.47787264309E+02  0.19999969290E+02 0.  0.
         12    1    1    2    0    0  0.53502884798E+01  0.32231966472E+02  0.28567439666E+02  0.43400735691E+02  0.00000000000E+00 0. -1.
         11    1    3    3    0    0  0.66845399446E+00 -0.31584895784E+01  0.91128512073E+00  0.33545980373E+01  0.51100000000E-03 0. -1.
        -11    1    3    3    0    0  0.30849898688E+01 -0.55174359401E+01 -0.10517571766E+01  0.64082333965E+01  0.51100000000E-03 0.  1.
        -12    1    3    3    0    0 -0.91037323431E+01 -0.23556040953E+02 -0.28426967610E+02  0.38024432875E+02  0.00000000000E+00 0.  1.
</event>
<event>
 7    1  0.2599124E-010  0.4778727E+02  0.7816164E-02  0.1312668E+00
        -11   -1    0    0    0    0  0.00000000000E+00  0.00000000000E+00  0.45593999997E+02  0.45594000000E+02  0.51100000000E-03 0. -1.
         11   -1    0    0    0    0 -0.00000000000E+00 -0.00000000000E+00 -0.45593999997E+02  0.45594000000E+02  0.51100000000E-03 0.  1.
    9900012    2    1    2    0    0  0.37766797995E+02  0.81144054761E+01  0.19785056955E+02  0.47787273212E+02  0.20000009881E+02 0.  0.
         12    1    1    2    0    0 -0.37766797995E+02 -0.81144054761E+01 -0.19785056955E+02  0.43400726788E+02  0.00000000000E+00 0. -1.
         11    1    3    3    0    0  0.60526078961E+01 -0.67456415314E+00 -0.51619606497E+00  0.61119193204E+01  0.51100000000E-03 0. -1.
        -11    1    3    3    0    0  0.16570724968E+02 -0.44653008676E+00  0.29021463342E+01  0.16828867124E+02  0.51100000000E-03 0.  1.
         12    1    3    3    0    0  0.15143465131E+02  0.92354997160E+01  0.17399106686E+02  0.24846486767E+02  0.00000000000E+00 0. -1.
</event>
<event>
 7    1  0.2599124E-010  0.4778727E+02  0.7816164E-02  0.1312668E+00
        -11   -1    0    0    0    0  0.00000000000E+00  0.00000000000E+00  0.45593999997E+02  0.45594000000E+02  0.51100000000E-03 0. -1.
         11   -1    0    0    0    0 -0.00000000000E+00 -0.00000000000E+00 -0.45593999997E+02  0.45594000000E+02  0.51100000000E-03 0.  1.
    9900012    2    1    2    0    0 -0.14182727260E+02 -0.12003115477E+02 -0.39222425932E+02  0.47787271554E+02  0.20000002322E+02 0.  0.
         12    1    1    2    0    0  0.14182727260E+02  0.12003115477E+02  0.39222425932E+02  0.43400728446E+02  0.00000000000E+00 0. -1.
         11    1    3    3    0    0 -0.46784265873E+01  0.35293317951E+01 -0.21262292576E+02  0.22055134189E+02  0.51100000000E-03 0. -1.
        -11    1    3    3    0    0 -0.41491226141E+01 -0.42545640679E+01 -0.58309324530E+01  0.83256415613E+01  0.51100000000E-03 0.  1.
        -12    1    3    3    0    0 -0.53551780582E+01 -0.11277883205E+02 -0.12129200903E+02  0.17406495803E+02  0.00000000000E+00 0.  1.
</event>
<event>
 7    1  0.2599124E-010  0.4778727E+02  0.7816164E-02  0.1312668E+00
        -11   -1    0    0    0    0  0.00000000000E+00  0.00000000000E+00  0.45593999997E+02  0.45594000000E+02  0.51100000000E-03 0.  1.
         11   -1    0    0    0    0 -0.00000000000E+00 -0.00000000000E+00 -0.45593999997E+02  0.45594000000E+02  0.51100000000E-03 0. -1.
    9900012    2    1    2    0    0 -0.91727653721E+01  0.17811120869E+02  0.38499968187E+02  0.47787271877E+02  0.20000003797E+02 0.  0.
         12    1    1    2    0    0  0.91727653721E+01 -0.17811120869E+02 -0.38499968187E+02  0.43400728123E+02  0.00000000000E+00 0. -1.
         11    1    3    3    0    0 -0.15006706412E+01  0.23583466212E+01 -0.21066963437E+01  0.35002829750E+01  0.51100000000E-03 0. -1.
        -11    1    3    3    0    0 -0.23949784785E+01  0.17102515148E+01  0.61748182252E+01  0.68402677237E+01  0.51100000000E-03 0.  1.
        -12    1    3    3    0    0 -0.52771162524E+01  0.13742522733E+02  0.34431846306E+02  0.37446721179E+02  0.00000000000E+00 0.  1.
</event>
<event>
 7    1  0.2599124E-010  0.4778728E+02  0.7816164E-02  0.1312668E+00
        -11   -1    0    0    0    0  0.00000000000E+00  0.00000000000E+00  0.45593999997E+02  0.45594000000E+02  0.51100000000E-03 0. -1.
         11   -1    0    0    0    0 -0.00000000000E+00 -0.00000000000E+00 -0.45593999997E+02  0.45594000000E+02  0.51100000000E-03 0.  1.
    9900012    2    1    2    0    0 -0.26597921364E+02  0.33870667631E+02 -0.53806489139E+01  0.47787275013E+02  0.20000018092E+02 0.  0.
         12    1    1    2    0    0  0.26597921364E+02 -0.33870667631E+02  0.53806489139E+01  0.43400724987E+02  0.00000000000E+00 0. -1.
         11    1    3    3    0    0 -0.32683986448E+01  0.58045267967E+01  0.28627367180E+01  0.72505325882E+01  0.51100000000E-03 0. -1.
        -11    1    3    3    0    0 -0.38512142451E+01  0.13865216433E+02  0.16411817816E+01  0.14483423483E+02  0.51100000000E-03 0.  1.
        -12    1    3    3    0    0 -0.19478308475E+02  0.14200924402E+02 -0.98845674136E+01  0.26053318941E+02  0.00000000000E+00 0.  1.
</event>
<event>
 7    1  0.2599124E-010  0.4778725E+02  0.7816164E-02  0.1312668E+00
        -11   -1    0    0    0    0  0.00000000000E+00  0.00000000000E+00  0.45593999997E+02  0.45594000000E+02  0.51100000000E-03 0.  1.
         11   -1    0    0    0    0 -0.00000000000E+00 -0.00000000000E+00 -0.45593999997E+02  0.45594000000E+02  0.51100000000E-03 0. -1.
    9900012    2    1    2    0    0  0.39599467285E+02 -0.12223768126E+02 -0.12887453871E+02  0.47787253650E+02  0.19999920692E+02 0.  0.
         12    1    1    2    0    0 -0.39599467285E+02  0.12223768126E+02  0.12887453871E+02  0.43400746350E+02  0.00000000000E+00 0. -1.
         11    1    3    3    0    0  0.84159519507E+01 -0.17020701931E+01  0.21068460762E+01  0.88410457995E+01  0.51100000000E-03 0. -1.
        -11    1    3    3    0    0  0.24735997839E+02 -0.37022435781E+01 -0.55256246180E+01  0.25614619347E+02  0.51100000000E-03 0.  1.
         12    1    3    3    0    0  0.64475174956E+01 -0.68194543548E+01 -0.94686753289E+01  0.13331588504E+02  0.00000000000E+00 0. -1.
</event>
<event>
 7    1  0.2599124E-010  0.4778727E+02  0.7816164E-02  0.1312668E+00
        -11   -1    0    0    0    0  0.00000000000E+00  0.00000000000E+00  0.45593999997E+02  0.45594000000E+02  0.51100000000E-03 0.  1.
         11   -1    0    0    0    0 -0.00000000000E+00 -0.00000000000E+00 -0.45593999997E+02  0.45594000000E+02  0.51100000000E-03 0. -1.
    9900012    2    1    2    0    0  0.19875539383E+02 -0.32395714571E+02  0.20954809641E+02  0.47787269183E+02  0.19999991512E+02 0.  0.
         12    1    1    2    0    0 -0.19875539383E+02  0.32395714571E+02 -0.20954809641E+02  0.43400730817E+02  0.00000000000E+00 0. -1.
         11    1    3    3    0    0  0.76068593375E+01 -0.91015121454E+01 -0.92691280080E+00  0.11897940995E+02  0.51100000000E-03 0. -1.
        -11    1    3    3    0    0  0.46724314337E+01 -0.26482968098E+01  0.81892681531E+00  0.54328383821E+01  0.51100000000E-03 0.  1.
        -12    1    3    3    0    0  0.75962486120E+01 -0.20645905616E+02  0.21062795627E+02  0.30456489806E+02  0.00000000000E+00 0.  1.
</event>
<event>
 7    1  0.2599124E-010  0.4778727E+02  0.7816164E-02  0.1312668E+00
        -11   -1    0    0    0    0  0.00000000000E+00  0.00000000000E+00  0.45593999997E+02  0.45594000000E+02  0.51100000000E-03 0. -1.
         11   -1    0    0    0    0 -0.00000000000E+00 -0.00000000000E+00 -0.45593999997E+02  0.45594000000E+02  0.51100000000E-03 0.  1.
    9900012    2    1    2    0    0 -0.28427088163E+02 -0.32156161343E+02 -0.64424438899E+01  0.47787272621E+02  0.20000007190E+02 0.  0.
         12    1    1    2    0    0  0.28427088163E+02  0.32156161343E+02  0.64424438899E+01  0.43400727379E+02  0.00000000000E+00 0. -1.
         11    1    3    3    0    0 -0.15344146701E+02 -0.57817929449E+01  0.24627414066E+01  0.16581226225E+02  0.51100000000E-03 0. -1.
        -11    1    3    3    0    0 -0.12998033811E+01 -0.56573474222E+00 -0.10600975341E+01  0.17701275861E+01  0.51100000000E-03 0.  1.
        -12    1    3    3    0    0 -0.11783138081E+02 -0.25808633655E+02 -0.78450877624E+01  0.29435918810E+02  0.00000000000E+00 0.  1.
</event>
<event>
 7    1  0.2599124E-010  0.4778728E+02  0.7816164E-02  0.1312668E+00
        -11   -1    0    0    0    0  0.00000000000E+00  0.00000000000E+00  0.45593999997E+02  0.45594000000E+02  0.51100000000E-03 0.  1.
         11   -1    0    0    0    0 -0.00000000000E+00 -0.00000000000E+00 -0.45593999997E+02  0.45594000000E+02  0.51100000000E-03 0. -1.
    9900012    2    1    2    0    0 -0.38846517078E+02 -0.18080136366E+02  0.69050150195E+01  0.47787280506E+02  0.20000043141E+02 0.  0.
         12    1    1    2    0    0  0.38846517078E+02  0.18080136366E+02 -0.69050150195E+01  0.43400719494E+02  0.00000000000E+00 0. -1.
         11    1    3    3    0    0 -0.26839484984E+02 -0.97018942085E+01 -0.72461680060E+00  0.28548376052E+02  0.51100000000E-03 0.  1.
        -11    1    3    3    0    0 -0.67435126189E+01 -0.13232586802E+01 -0.96156640081E+00  0.69390623416E+01  0.51100000000E-03 0. -1.
        -12    1    3    3    0    0 -0.52635194757E+01 -0.70549834772E+01  0.85911982209E+01  0.12299842113E+02  0.00000000000E+00 0.  1.
</event>
<event>
 7    1  0.2599124E-010  0.4778727E+02  0.7816164E-02  0.1312668E+00
        -11   -1    0    0    0    0  0.00000000000E+00  0.00000000000E+00  0.45593999997E+02  0.45594000000E+02  0.51100000000E-03 0. -1.
         11   -1    0    0    0    0 -0.00000000000E+00 -0.00000000000E+00 -0.45593999997E+02  0.45594000000E+02  0.51100000000E-03 0.  1.
    9900012    2    1    2    0    0  0.14271874869E+02  0.39518276410E+02 -0.10873941103E+02  0.47787272151E+02  0.20000005045E+02 0.  0.
         12    1    1    2    0    0 -0.14271874869E+02 -0.39518276410E+02  0.10873941103E+02  0.43400727849E+02  0.00000000000E+00 0. -1.
         11    1    3    3    0    0  0.71357621431E+01  0.75251679829E+01  0.15728649235E+01  0.10489097142E+02  0.51100000000E-03 0. -1.
        -11    1    3    3    0    0  0.59880278374E+01  0.63423654062E+01 -0.66685688368E+01  0.10979612330E+02  0.51100000000E-03 0.  1.
        -12    1    3    3    0    0  0.11480848886E+01  0.25650743021E+02 -0.57782371892E+01  0.26318562679E+02  0.00000000000E+00 0.  1.
</event>
<event>
 7    1  0.2599124E-010  0.4778726E+02  0.7816164E-02  0.1312668E+00
        -11   -1    0    0    0    0  0.00000000000E+00  0.00000000000E+00  0.45593999997E+02  0.45594000000E+02  0.51100000000E-03 0.  1.
         11   -1    0    0    0    0 -0.00000000000E+00 -0.00000000000E+00 -0.45593999997E+02  0.45594000000E+02  0.51100000000E-03 0. -1.
    9900012    2    1    2    0    0  0.36836398186E+01  0.15058978861E+02  0.40537414958E+02  0.47787262010E+02  0.19999958808E+02 0.  0.
         12    1    1    2    0    0 -0.36836398186E+01 -0.15058978861E+02 -0.40537414958E+02  0.43400737990E+02  0.00000000000E+00 0. -1.
         11    1    3    3    0    0  0.83242604174E+00 -0.78028323326E+00 -0.22081528659E+00  0.11621250755E+01  0.51100000000E-03 0. -1.
        -11    1    3    3    0    0  0.57879706975E+01  0.15847942323E+02  0.22451247486E+02  0.28084095047E+02  0.51100000000E-03 0.  1.
        -12    1    3    3    0    0 -0.29367569207E+01 -0.86802290473E-02  0.18306982759E+02  0.18541041888E+02  0.00000000000E+00 0.  1.
</event>
<event>
 7    1  0.2599124E-010  0.4778727E+02  0.7816164E-02  0.1312668E+00
        -11   -1    0    0    0    0  0.00000000000E+00  0.00000000000E+00  0.45593999997E+02  0.45594000000E+02  0.51100000000E-03 0.  1.
         11   -1    0    0    0    0 -0.00000000000E+00 -0.00000000000E+00 -0.45593999997E+02  0.45594000000E+02  0.51100000000E-03 0. -1.
    9900012    2    1    2    0    0 -0.24964271102E+02  0.32100956980E+02  0.15163667400E+02  0.47787273282E+02  0.20000010201E+02 0.  0.
         12    1    1    2    0    0  0.24964271102E+02 -0.32100956980E+02 -0.15163667400E+02  0.43400726718E+02  0.00000000000E+00 0. -1.
         11    1    3    3    0    0 -0.90237785767E+00  0.75547579534E+01  0.26545580586E+01  0.80582462286E+01  0.51100000000E-03 0. -1.
        -11    1    3    3    0    0 -0.16901687196E+02  0.21089329881E+02  0.15591658861E+02  0.31201389251E+02  0.51100000000E-03 0.  1.
        -12    1    3    3    0    0 -0.71602060476E+01  0.34568691456E+01 -0.30825495204E+01  0.85276378018E+01  0.00000000000E+00 0.  1.
</event>
<event>
 7    1  0.2599124E-010  0.4778727E+02  0.7816164E-02  0.1312668E+00
        -11   -1    0    0    0    0  0.00000000000E+00  0.00000000000E+00  0.45593999997E+02  0.45594000000E+02  0.51100000000E-03 0.  1.
         11   -1    0    0    0    0 -0.00000000000E+00 -0.00000000000E+00 -0.45593999997E+02  0.45594000000E+02  0.51100000000E-03 0. -1.
    9900012    2    1    2    0    0  0.22628974169E+02 -0.23584171220E+02  0.28554154572E+02  0.47787270198E+02  0.19999996141E+02 0.  0.
         12    1    1    2    0    0 -0.22628974169E+02  0.23584171220E+02 -0.28554154572E+02  0.43400729802E+02  0.00000000000E+00 0. -1.
         11    1    3    3    0    0  0.71133967819E+01 -0.66356074487E+01  0.40949696991E+00  0.97364977286E+01  0.51100000000E-03 0. -1.
        -11    1    3    3    0    0  0.11748288331E+02 -0.14533489782E+02  0.14389657907E+02  0.23586158206E+02  0.51100000000E-03 0.  1.
         12    1    3    3    0    0  0.37672890554E+01 -0.24150739890E+01  0.13754999694E+02  0.14464614264E+02  0.00000000000E+00 0. -1.
</event>
<event>
 7    1  0.2599124E-010  0.4778728E+02  0.7816164E-02  0.1312668E+00
        -11   -1    0    0    0    0  0.00000000000E+00  0.00000000000E+00  0.45593999997E+02  0.45594000000E+02  0.51100000000E-03 0. -1.
         11   -1    0    0    0    0 -0.00000000000E+00 -0.00000000000E+00 -0.45593999997E+02  0.45594000000E+02  0.51100000000E-03 0.  1.
    9900012    2    1    2    0    0 -0.34254298640E+02  0.14853123739E+02 -0.22128036406E+02  0.47787282779E+02  0.20000053501E+02 0.  0.
         12    1    1    2    0    0  0.34254298640E+02 -0.14853123739E+02  0.22128036406E+02  0.43400717221E+02  0.00000000000E+00 0. -1.
         11    1    3    3    0    0 -0.10724697402E+01  0.11620777162E+01 -0.12225903274E+00  0.15860528031E+01  0.51100000000E-03 0. -1.
        -11    1    3    3    0    0  0.91270153004E+00 -0.20956353939E+00 -0.59673215631E+01  0.60403532892E+01  0.51100000000E-03 0.  1.
        -12    1    3    3    0    0 -0.34094530430E+02  0.13900609563E+02 -0.16038455810E+02  0.40160876686E+02  0.00000000000E+00 0.  1.
</event>
<event>
 7    1  0.2599124E-010  0.4778727E+02  0.7816164E-02  0.1312668E+00
        -11   -1    0    0    0    0  0.00000000000E+00  0.00000000000E+00  0.45593999997E+02  0.45594000000E+02  0.51100000000E-03 0. -1.
         11   -1    0    0    0    0 -0.00000000000E+00 -0.00000000000E+00 -0.45593999997E+02  0.45594000000E+02  0.51100000000E-03 0.  1.
    9900012    2    1    2    0    0 -0.40874320784E+02  0.82194512226E+01 -0.12056297849E+02  0.47787265032E+02  0.19999972587E+02 0.  0.
         12    1    1    2    0    0  0.40874320784E+02 -0.82194512226E+01  0.12056297849E+02  0.43400734968E+02  0.00000000000E+00 0. -1.
         11    1    3    3    0    0 -0.10023600146E+02  0.27378179225E+01 -0.26565965373E+01  0.10725004069E+02  0.51100000000E-03 0. -1.
        -11    1    3    3    0    0 -0.26984117932E+02 -0.63233525429E+00 -0.11775141046E+02  0.29448198848E+02  0.51100000000E-03 0.  1.
         12    1    3    3    0    0 -0.38666027053E+01  0.61139685544E+01  0.23754397339E+01  0.76140621152E+01  0.00000000000E+00 0. -1.
</event>
<event>
 7    1  0.2599124E-010  0.4778727E+02  0.7816164E-02  0.1312668E+00
        -11   -1    0    0    0    0  0.00000000000E+00  0.00000000000E+00  0.45593999997E+02  0.45594000000E+02  0.51100000000E-03 0. -1.
         11   -1    0    0    0    0 -0.00000000000E+00 -0.00000000000E+00 -0.45593999997E+02  0.45594000000E+02  0.51100000000E-03 0.  1.
    9900012    2    1    2    0    0  0.39501434235E+02 -0.17941399393E+02  0.11687959419E+01  0.47787271864E+02  0.20000003736E+02 0.  0.
         12    1    1    2    0    0 -0.39501434235E+02  0.17941399393E+02 -0.11687959419E+01  0.43400728136E+02  0.00000000000E+00 0. -1.
         11    1    3    3    0    0  0.68853876528E+01  0.16005456872E+01 -0.29454576867E+01  0.76580696570E+01  0.51100000000E-03 0. -1.
        -11    1    3    3    0    0  0.14061024817E+02 -0.28641484596E+01  0.49135847232E+01  0.15167698586E+02  0.51100000000E-03 0.  1.
        -12    1    3    3    0    0  0.18555021765E+02 -0.16677796620E+02 -0.79933109456E+00  0.24961503621E+02  0.00000000000E+00 0.  1.
</event>
<event>
 7    1  0.2599124E-010  0.4778727E+02  0.7816164E-02  0.1312668E+00
        -11   -1    0    0    0    0  0.00000000000E+00  0.00000000000E+00  0.45593999997E+02  0.45594000000E+02  0.51100000000E-03 0. -1.
         11   -1    0    0    0    0 -0.00000000000E+00 -0.00000000000E+00 -0.45593999997E+02  0.45594000000E+02  0.51100000000E-03 0.  1.
    9900012    2    1    2    0    0  0.38941455623E+01  0.39038177571E+02 -0.18560165847E+02  0.47787269199E+02  0.19999991587E+02 0.  0.
         12    1    1    2    0    0 -0.38941455623E+01 -0.39038177571E+02  0.18560165847E+02  0.43400730801E+02  0.00000000000E+00 0. -1.
         11    1    3    3    0    0  0.39914723728E+01  0.12709940172E+02 -0.94787152540E+01  0.16349938043E+02  0.51100000000E-03 0. -1.
        -11    1    3    3    0    0  0.36065990378E+01  0.20378467023E+02 -0.11912326183E+02  0.23878714165E+02  0.51100000000E-03 0.  1.
         12    1    3    3    0    0 -0.37039258482E+01  0.59497703764E+01  0.28308755895E+01  0.75586169915E+01  0.00000000000E+00 0. -1.
</event>
<event>
 7    1  0.2599124E-010  0.4778728E+02  0.7816164E-02  0.1312668E+00
        -11   -1    0    0    0    0  0.00000000000E+00  0.00000000000E+00  0.45593999997E+02  0.45594000000E+02  0.51100000000E-03 0. -1.
         11   -1    0    0    0    0 -0.00000000000E+00 -0.00000000000E+00 -0.45593999997E+02  0.45594000000E+02  0.51100000000E-03 0.  1.
    9900012    2    1    2    0    0  0.27169702217E+02 -0.30935976343E+02  0.13725718681E+02  0.47787277608E+02  0.20000029927E+02 0.  0.
         12    1    1    2    0    0 -0.27169702217E+02  0.30935976343E+02 -0.13725718681E+02  0.43400722392E+02  0.00000000000E+00 0. -1.
         11    1    3    3    0    0  0.66746313937E+01 -0.39713590871E+01  0.77965640352E+01  0.11004944718E+02  0.51100000000E-03 0. -1.
        -11    1    3    3    0    0  0.20499241676E+02 -0.20818555855E+02  0.80074400516E+01  0.30294393436E+02  0.51100000000E-03 0.  1.
         12    1    3    3    0    0 -0.41708533076E-02 -0.61460614001E+01 -0.20782854056E+01  0.64879394538E+01  0.00000000000E+00 0. -1.
</event>
<event>
 7    1  0.2599124E-010  0.4778725E+02  0.7816164E-02  0.1312668E+00
        -11   -1    0    0    0    0  0.00000000000E+00  0.00000000000E+00  0.45593999997E+02  0.45594000000E+02  0.51100000000E-03 0. -1.
         11   -1    0    0    0    0 -0.00000000000E+00 -0.00000000000E+00 -0.45593999997E+02  0.45594000000E+02  0.51100000000E-03 0.  1.
    9900012    2    1    2    0    0  0.41118314699E+01 -0.58154149561E+01 -0.42812368374E+02  0.47787250065E+02  0.19999904345E+02 0.  0.
         12    1    1    2    0    0 -0.41118314699E+01  0.58154149561E+01  0.42812368374E+02  0.43400749935E+02  0.00000000000E+00 0. -1.
         11    1    3    3    0    0  0.31676475875E+01 -0.48545666626E+00 -0.46376650469E+01  0.56371621195E+01  0.51100000000E-03 0. -1.
        -11    1    3    3    0    0 -0.38502387772E+01  0.24800974174E+01 -0.23030586875E+01  0.51263341113E+01  0.51100000000E-03 0.  1.
        -12    1    3    3    0    0  0.47944226595E+01 -0.78100557073E+01 -0.35871644640E+02  0.37023753834E+02  0.00000000000E+00 0.  1.
</event>
<event>
 7    1  0.2599124E-010  0.4778726E+02  0.7816164E-02  0.1312668E+00
        -11   -1    0    0    0    0  0.00000000000E+00  0.00000000000E+00  0.45593999997E+02  0.45594000000E+02  0.51100000000E-03 0. -1.
         11   -1    0    0    0    0 -0.00000000000E+00 -0.00000000000E+00 -0.45593999997E+02  0.45594000000E+02  0.51100000000E-03 0.  1.
    9900012    2    1    2    0    0  0.28958421367E+02 -0.27372202555E+01 -0.32210897219E+02  0.47787257582E+02  0.19999938620E+02 0.  0.
         12    1    1    2    0    0 -0.28958421367E+02  0.27372202555E+01  0.32210897219E+02  0.43400742418E+02  0.00000000000E+00 0. -1.
         11    1    3    3    0    0  0.22756554745E+01  0.22094465514E+01 -0.15155811973E+01  0.35152878302E+01  0.51100000000E-03 0. -1.
        -11    1    3    3    0    0  0.10244090177E+02  0.52227748734E+01 -0.61849764049E+01  0.13056519227E+02  0.51100000000E-03 0.  1.
         12    1    3    3    0    0  0.16438675715E+02 -0.10169441680E+02 -0.24510339617E+02  0.31215450525E+02  0.00000000000E+00 0. -1.
</event>
<event>
 7    1  0.2599124E-010  0.4778726E+02  0.7816164E-02  0.1312668E+00
        -11   -1    0    0    0    0  0.00000000000E+00  0.00000000000E+00  0.45593999997E+02  0.45594000000E+02  0.51100000000E-03 0.  1.
         11   -1    0    0    0    0 -0.00000000000E+00 -0.00000000000E+00 -0.45593999997E+02  0.45594000000E+02  0.51100000000E-03 0. -1.
    9900012    2    1    2    0    0 -0.19176768707E+02 -0.32185570634E+01  0.38800983534E+02  0.47787263937E+02  0.19999967592E+02 0.  0.
         12    1    1    2    0    0  0.19176768707E+02  0.32185570634E+01 -0.38800983534E+02  0.43400736063E+02  0.00000000000E+00 0. -1.
         11    1    3    3    0    0  0.84078365356E+00  0.14763204295E+00  0.17047211190E+01  0.19065116645E+01  0.51100000000E-03 0. -1.
        -11    1    3    3    0    0 -0.18538323879E+02 -0.44198490642E+01  0.16510686576E+02  0.25215219401E+02  0.51100000000E-03 0.  1.
        -12    1    3    3    0    0 -0.14792284825E+01  0.10536599578E+01  0.20585575839E+02  0.20665532871E+02  0.00000000000E+00 0.  1.
</event>
<event>
 7    1  0.2599124E-010  0.4778727E+02  0.7816164E-02  0.1312668E+00
        -11   -1    0    0    0    0  0.00000000000E+00  0.00000000000E+00  0.45593999997E+02  0.45594000000E+02  0.51100000000E-03 0.  1.
         11   -1    0    0    0    0 -0.00000000000E+00 -0.00000000000E+00 -0.45593999997E+02  0.45594000000E+02  0.51100000000E-03 0. -1.
    9900012    2    1    2    0    0  0.28069254606E+02  0.29398177456E+02  0.15214703469E+02  0.47787273122E+02  0.20000009473E+02 0.  0.
         12    1    1    2    0    0 -0.28069254606E+02 -0.29398177456E+02 -0.15214703469E+02  0.43400726878E+02  0.00000000000E+00 0. -1.
         11    1    3    3    0    0  0.31352024919E+01  0.24451583178E+01 -0.18446219267E+01  0.43830268283E+01  0.51100000000E-03 0. -1.
        -11    1    3    3    0    0  0.21694473334E+02  0.13646242952E+02  0.14579412218E+02  0.29486087920E+02  0.51100000000E-03 0.  1.
         12    1    3    3    0    0  0.32395787806E+01  0.13306776186E+02  0.24799131775E+01  0.13918158374E+02  0.00000000000E+00 0. -1.
</event>
<event>
 7    1  0.2599124E-010  0.4778727E+02  0.7816164E-02  0.1312668E+00
        -11   -1    0    0    0    0  0.00000000000E+00  0.00000000000E+00  0.45593999997E+02  0.45594000000E+02  0.51100000000E-03 0.  1.
         11   -1    0    0    0    0 -0.00000000000E+00 -0.00000000000E+00 -0.45593999997E+02  0.45594000000E+02  0.51100000000E-03 0. -1.
    9900012    2    1    2    0    0  0.32893352479E+02 -0.27148040283E+02  0.80395544961E+01  0.47787272298E+02  0.20000005716E+02 0.  0.
         12    1    1    2    0    0 -0.32893352479E+02  0.27148040283E+02 -0.80395544961E+01  0.43400727702E+02  0.00000000000E+00 0. -1.
         11    1    3    3    0    0  0.23387124135E+00 -0.47871413475E+01  0.11041950484E+01  0.49184006551E+01  0.51100000000E-03 0. -1.
        -11    1    3    3    0    0  0.18656386325E+02 -0.21215792943E+02  0.48466895331E+01  0.28664630132E+02  0.51100000000E-03 0.  1.
        -12    1    3    3    0    0  0.14003094913E+02 -0.11451059926E+01  0.20886699146E+01  0.14204241511E+02  0.00000000000E+00 0.  1.
</event>
<event>
 7    1  0.2599124E-010  0.4778727E+02  0.7816164E-02  0.1312668E+00
        -11   -1    0    0    0    0  0.00000000000E+00  0.00000000000E+00  0.45593999997E+02  0.45594000000E+02  0.51100000000E-03 0.  1.
         11   -1    0    0    0    0 -0.00000000000E+00 -0.00000000000E+00 -0.45593999997E+02  0.45594000000E+02  0.51100000000E-03 0. -1.
    9900012    2    1    2    0    0  0.37384530485E+02 -0.13115623225E+01 -0.22006819227E+02  0.47787269502E+02  0.19999992967E+02 0.  0.
         12    1    1    2    0    0 -0.37384530485E+02  0.13115623225E+01  0.22006819227E+02  0.43400730498E+02  0.00000000000E+00 0. -1.
         11    1    3    3    0    0  0.56922399991E+01 -0.91569633874E+00 -0.38570308863E+01  0.69366262341E+01  0.51100000000E-03 0. -1.
        -11    1    3    3    0    0  0.28954683047E+02  0.32191461660E+01 -0.87573494711E+01  0.30420843881E+02  0.51100000000E-03 0.  1.
         12    1    3    3    0    0  0.27376074381E+01 -0.36150121497E+01 -0.93924388695E+01  0.10429799387E+02  0.00000000000E+00 0. -1.
</event>
<event>
 7    1  0.2599124E-010  0.4778726E+02  0.7816164E-02  0.1312668E+00
        -11   -1    0    0    0    0  0.00000000000E+00  0.00000000000E+00  0.45593999997E+02  0.45594000000E+02  0.51100000000E-03 0.  1.
         11   -1    0    0    0    0 -0.00000000000E+00 -0.00000000000E+00 -0.45593999997E+02  0.45594000000E+02  0.51100000000E-03 0. -1.
    9900012    2    1    2    0    0  0.35386100482E+02 -0.23654872370E+02  0.84790901828E+01  0.47787261936E+02  0.19999958472E+02 0.  0.
         12    1    1    2    0    0 -0.35386100482E+02  0.23654872370E+02 -0.84790901828E+01  0.43400738064E+02  0.00000000000E+00 0. -1.
         11    1    3    3    0    0 -0.13772938035E+01  0.12744259526E+01  0.13404246292E+01  0.23060438369E+01  0.51100000000E-03 0. -1.
        -11    1    3    3    0    0  0.53073402193E+01 -0.15598287410E+01  0.23219760670E+01  0.59993748859E+01  0.51100000000E-03 0.  1.
        -12    1    3    3    0    0  0.31456054066E+02 -0.23369469581E+02  0.48166894866E+01  0.39481843213E+02  0.00000000000E+00 0.  1.
</event>
<event>
 7    1  0.2599124E-010  0.4778728E+02  0.7816164E-02  0.1312668E+00
        -11   -1    0    0    0    0  0.00000000000E+00  0.00000000000E+00  0.45593999997E+02  0.45594000000E+02  0.51100000000E-03 0.  1.
         11   -1    0    0    0    0 -0.00000000000E+00 -0.00000000000E+00 -0.45593999997E+02  0.45594000000E+02  0.51100000000E-03 0. -1.
    9900012    2    1    2    0    0  0.82341844769E+01 -0.11313170966E+02  0.41083245645E+02  0.47787277610E+02  0.20000029934E+02 0.  0.
         12    1    1    2    0    0 -0.82341844769E+01  0.11313170966E+02 -0.41083245645E+02  0.43400722390E+02  0.00000000000E+00 0. -1.
         11    1    3    3    0    0 -0.22030500243E+01 -0.93946681752E+00 -0.75909053332E+00  0.25124183588E+01  0.51100000000E-03 0. -1.
        -11    1    3    3    0    0  0.15461463166E+01 -0.40309484101E+01  0.39911097322E+01  0.58794617673E+01  0.51100000000E-03 0.  1.
        -12    1    3    3    0    0  0.88910881845E+01 -0.63427557380E+01  0.37851226446E+02  0.39395397484E+02  0.00000000000E+00 0.  1.
</event>
<event>
 7    1  0.2599124E-010  0.4778727E+02  0.7816164E-02  0.1312668E+00
        -11   -1    0    0    0    0  0.00000000000E+00  0.00000000000E+00  0.45593999997E+02  0.45594000000E+02  0.51100000000E-03 0. -1.
         11   -1    0    0    0    0 -0.00000000000E+00 -0.00000000000E+00 -0.45593999997E+02  0.45594000000E+02  0.51100000000E-03 0.  1.
    9900012    2    1    2    0    0  0.94706929609E+01 -0.33994161480E+02 -0.25265122507E+02  0.47787268956E+02  0.19999990477E+02 0.  0.
         12    1    1    2    0    0 -0.94706929609E+01  0.33994161480E+02  0.25265122507E+02  0.43400731044E+02  0.00000000000E+00 0. -1.
         11    1    3    3    0    0 -0.37446951456E+01 -0.67584760693E+01 -0.19644145855E+01  0.79723688724E+01  0.51100000000E-03 0.  1.
        -11    1    3    3    0    0  0.30364654389E+00 -0.31215559074E+00 -0.45184222271E+01  0.45393592080E+01  0.51100000000E-03 0. -1.
        -12    1    3    3    0    0  0.12911741563E+02 -0.26923529820E+02 -0.18782285694E+02  0.35275540875E+02  0.00000000000E+00 0.  1.
</event>
<event>
 7    1  0.2599124E-010  0.4778727E+02  0.7816164E-02  0.1312668E+00
        -11   -1    0    0    0    0  0.00000000000E+00  0.00000000000E+00  0.45593999997E+02  0.45594000000E+02  0.51100000000E-03 0. -1.
         11   -1    0    0    0    0 -0.00000000000E+00 -0.00000000000E+00 -0.45593999997E+02  0.45594000000E+02  0.51100000000E-03 0.  1.
    9900012    2    1    2    0    0  0.41385624736E+01 -0.37686444950E+02 -0.21124093666E+02  0.47787272292E+02  0.20000005689E+02 0.  0.
         12    1    1    2    0    0 -0.41385624736E+01  0.37686444950E+02  0.21124093666E+02  0.43400727708E+02  0.00000000000E+00 0. -1.
         11    1    3    3    0    0  0.34136607959E+01 -0.27026445416E+02 -0.11913942984E+02  0.29732538902E+02  0.51100000000E-03 0. -1.
        -11    1    3    3    0    0  0.21248766554E+01 -0.91019983386E+01 -0.79236248434E+00  0.93802618899E+01  0.51100000000E-03 0.  1.
         12    1    3    3    0    0 -0.13999749776E+01 -0.15580011956E+01 -0.84177881980E+01  0.86744715004E+01  0.00000000000E+00 0. -1.
</event>
<event>
 7    1  0.2599124E-010  0.4778727E+02  0.7816164E-02  0.1312668E+00
        -11   -1    0    0    0    0  0.00000000000E+00  0.00000000000E+00  0.45593999997E+02  0.45594000000E+02  0.51100000000E-03 0. -1.
         11   -1    0    0    0    0 -0.00000000000E+00 -0.00000000000E+00 -0.45593999997E+02  0.45594000000E+02  0.51100000000E-03 0.  1.
    9900012    2    1    2    0    0  0.49734062937E+01  0.26498944843E+02 -0.34010209823E+02  0.47787271663E+02  0.20000002822E+02 0.  0.
         12    1    1    2    0    0 -0.49734062937E+01 -0.26498944843E+02  0.34010209823E+02  0.43400728337E+02  0.00000000000E+00 0. -1.
         11    1    3    3    0    0  0.10048141801E+01  0.24656431148E+02 -0.24529276579E+02  0.34794175637E+02  0.51100000000E-03 0. -1.
        -11    1    3    3    0    0  0.11591320950E+01  0.41390329591E+01 -0.79846328002E+01  0.90680506320E+01  0.51100000000E-03 0.  1.
        -12    1    3    3    0    0  0.28094600186E+01 -0.22965192646E+01 -0.14963004437E+01  0.39250453942E+01  0.00000000000E+00 0.  1.
</event>
<event>
 7    1  0.2599124E-010  0.4778728E+02  0.7816164E-02  0.1312668E+00
        -11   -1    0    0    0    0  0.00000000000E+00  0.00000000000E+00  0.45593999997E+02  0.45594000000E+02  0.51100000000E-03 0.  1.
         11   -1    0    0    0    0 -0.00000000000E+00 -0.00000000000E+00 -0.45593999997E+02  0.45594000000E+02  0.51100000000E-03 0. -1.
    9900012    2    1    2    0    0 -0.25537232237E+02 -0.10147154723E+02  0.33593266466E+02  0.47787279601E+02  0.20000039012E+02 0.  0.
         12    1    1    2    0    0  0.25537232237E+02  0.10147154723E+02 -0.33593266466E+02  0.43400720399E+02  0.00000000000E+00 0. -1.
         11    1    3    3    0    0 -0.96803836444E+01 -0.82287387530E+01  0.16593880327E+02  0.20899254377E+02  0.51100000000E-03 0. -1.
        -11    1    3    3    0    0 -0.97629864854E+01 -0.56454825260E+01  0.16144975632E+02  0.19693847173E+02  0.51100000000E-03 0.  1.
         12    1    3    3    0    0 -0.60938621076E+01  0.37270665561E+01  0.85441050678E+00  0.71941780499E+01  0.00000000000E+00 0. -1.
</event>
<event>
 7    1  0.2599124E-010  0.4778727E+02  0.7816164E-02  0.1312668E+00
        -11   -1    0    0    0    0  0.00000000000E+00  0.00000000000E+00  0.45593999997E+02  0.45594000000E+02  0.51100000000E-03 0.  1.
         11   -1    0    0    0    0 -0.00000000000E+00 -0.00000000000E+00 -0.45593999997E+02  0.45594000000E+02  0.51100000000E-03 0. -1.
    9900012    2    1    2    0    0  0.58955345057E+01 -0.11924732414E+02  0.41311823140E+02  0.47787270727E+02  0.19999998552E+02 0.  0.
         12    1    1    2    0    0 -0.58955345057E+01  0.11924732414E+02 -0.41311823140E+02  0.43400729273E+02  0.00000000000E+00 0. -1.
         11    1    3    3    0    0 -0.27983815193E+01 -0.30931938972E+01  0.20849059702E+02  0.21262221857E+02  0.51100000000E-03 0. -1.
        -11    1    3    3    0    0  0.40011410006E+01  0.16124264232E+01  0.10485018011E+02  0.11337753359E+02  0.51100000000E-03 0.  1.
         12    1    3    3    0    0  0.46927750244E+01 -0.10443964940E+02  0.99777454275E+01  0.15187295510E+02  0.00000000000E+00 0. -1.
</event>
<event>
 7    1  0.2599124E-010  0.4778728E+02  0.7816164E-02  0.1312668E+00
        -11   -1    0    0    0    0  0.00000000000E+00  0.00000000000E+00  0.45593999997E+02  0.45594000000E+02  0.51100000000E-03 0. -1.
         11   -1    0    0    0    0 -0.00000000000E+00 -0.00000000000E+00 -0.45593999997E+02  0.45594000000E+02  0.51100000000E-03 0.  1.
    9900012    2    1    2    0    0  0.18687746807E+01  0.43098129275E+02  0.47625314214E+01  0.47787276834E+02  0.20000026396E+02 0.  0.
         12    1    1    2    0    0 -0.18687746807E+01 -0.43098129275E+02 -0.47625314214E+01  0.43400723166E+02  0.00000000000E+00 0. -1.
         11    1    3    3    0    0 -0.72635593519E+01  0.11443490902E+02  0.21247300084E+01  0.13719593885E+02  0.51100000000E-03 0. -1.
        -11    1    3    3    0    0  0.25762888576E+00  0.17196278227E+01  0.22485290400E+01  0.28424242464E+01  0.51100000000E-03 0.  1.
        -12    1    3    3    0    0  0.88747051468E+01  0.29935010550E+02  0.38927237301E+00  0.31225258703E+02  0.00000000000E+00 0.  1.
</event>
<event>
 7    1  0.2599124E-010  0.4778727E+02  0.7816164E-02  0.1312668E+00
        -11   -1    0    0    0    0  0.00000000000E+00  0.00000000000E+00  0.45593999997E+02  0.45594000000E+02  0.51100000000E-03 0.  1.
         11   -1    0    0    0    0 -0.00000000000E+00 -0.00000000000E+00 -0.45593999997E+02  0.45594000000E+02  0.51100000000E-03 0. -1.
    9900012    2    1    2    0    0 -0.31562522124E+02 -0.82385706513E+01  0.28627895375E+02  0.47787271402E+02  0.20000001631E+02 0.  0.
         12    1    1    2    0    0  0.31562522124E+02  0.82385706513E+01 -0.28627895375E+02  0.43400728598E+02  0.00000000000E+00 0. -1.
         11    1    3    3    0    0 -0.51410202685E+01  0.71405745493E+00  0.35934991124E+01  0.63129393774E+01  0.51100000000E-03 0. -1.
        -11    1    3    3    0    0 -0.18501598509E+02 -0.14329406980E+02  0.19143659583E+02  0.30234429948E+02  0.51100000000E-03 0.  1.
        -12    1    3    3    0    0 -0.79199033461E+01  0.53767788735E+01  0.58907366794E+01  0.11239902077E+02  0.00000000000E+00 0.  1.
</event>
<event>
 7    1  0.2599124E-010  0.4778727E+02  0.7816164E-02  0.1312668E+00
        -11   -1    0    0    0    0  0.00000000000E+00  0.00000000000E+00  0.45593999997E+02  0.45594000000E+02  0.51100000000E-03 0.  1.
         11   -1    0    0    0    0 -0.00000000000E+00 -0.00000000000E+00 -0.45593999997E+02  0.45594000000E+02  0.51100000000E-03 0. -1.
    9900012    2    1    2    0    0  0.10870622595E+01  0.24851484124E+02  0.35564661978E+02  0.47787272481E+02  0.20000006552E+02 0.  0.
         12    1    1    2    0    0 -0.10870622595E+01 -0.24851484124E+02 -0.35564661978E+02  0.43400727519E+02  0.00000000000E+00 0. -1.
         11    1    3    3    0    0  0.51857337047E-01  0.61108760477E+01  0.13674201772E+02  0.14977626301E+02  0.51100000000E-03 0. -1.
        -11    1    3    3    0    0 -0.54291466438E+01  0.15878765220E+02  0.18473765311E+02  0.24957780815E+02  0.51100000000E-03 0.  1.
         12    1    3    3    0    0  0.64643515662E+01  0.28618428560E+01  0.34166948951E+01  0.78518653650E+01  0.00000000000E+00 0. -1.
</event>
<event>
 7    1  0.2599124E-010  0.4778728E+02  0.7816164E-02  0.1312668E+00
        -11   -1    0    0    0    0  0.00000000000E+00  0.00000000000E+00  0.45593999997E+02  0.45594000000E+02  0.51100000000E-03 0.  1.
         11   -1    0    0    0    0 -0.00000000000E+00 -0.00000000000E+00 -0.45593999997E+02  0.45594000000E+02  0.51100000000E-03 0. -1.
    9900012    2    1    2    0    0 -0.30697437237E+02  0.12261692513E+02  0.28123676344E+02  0.47787275037E+02  0.20000018206E+02 0.  0.
         12    1    1    2    0    0  0.30697437237E+02 -0.12261692513E+02 -0.28123676344E+02  0.43400724963E+02  0.00000000000E+00 0. -1.
         11    1    3    3    0    0 -0.15343751311E+02  0.96511700589E+01  0.10393819398E+02  0.20895149431E+02  0.51100000000E-03 0. -1.
        -11    1    3    3    0    0 -0.14606589937E+02  0.59445193867E+01  0.10645006638E+02  0.19026453871E+02  0.51100000000E-03 0.  1.
        -12    1    3    3    0    0 -0.74709598876E+00 -0.33339969331E+01  0.70848503078E+01  0.78656717355E+01  0.00000000000E+00 0.  1.
</event>
<event>
 7    1  0.2599124E-010  0.4778724E+02  0.7816164E-02  0.1312668E+00
        -11   -1    0    0    0    0  0.00000000000E+00  0.00000000000E+00  0.45593999997E+02  0.45594000000E+02  0.51100000000E-03 0. -1.
         11   -1    0    0    0    0 -0.00000000000E+00 -0.00000000000E+00 -0.45593999997E+02  0.45594000000E+02  0.51100000000E-03 0.  1.
    9900012    2    1    2    0    0  0.40621900259E+02  0.75103981575E+01 -0.13307174314E+02  0.47787242526E+02  0.19999869971E+02 0.  0.
         12    1    1    2    0    0 -0.40621900259E+02 -0.75103981575E+01  0.13307174314E+02  0.43400757474E+02  0.00000000000E+00 0. -1.
         11    1    3    3    0    0  0.29399002598E+01  0.16405353674E+00 -0.66594040014E+01  0.72813178076E+01  0.51100000000E-03 0. -1.
        -11    1    3    3    0    0 -0.20762047727E+00  0.68412953732E+00  0.10521277998E+01  0.12720505708E+01  0.51100000000E-03 0.  1.
        -12    1    3    3    0    0  0.37889620476E+02  0.66622150834E+01 -0.76998981123E+01  0.39233874147E+02  0.00000000000E+00 0.  1.
</event>
<event>
 7    1  0.2599124E-010  0.4778727E+02  0.7816164E-02  0.1312668E+00
        -11   -1    0    0    0    0  0.00000000000E+00  0.00000000000E+00  0.45593999997E+02  0.45594000000E+02  0.51100000000E-03 0.  1.
         11   -1    0    0    0    0 -0.00000000000E+00 -0.00000000000E+00 -0.45593999997E+02  0.45594000000E+02  0.51100000000E-03 0. -1.
    9900012    2    1    2    0    0 -0.85386482852E+00  0.23589262193E+02  0.36420337905E+02  0.47787269718E+02  0.19999993950E+02 0.  0.
         12    1    1    2    0    0  0.85386482852E+00 -0.23589262193E+02 -0.36420337905E+02  0.43400730282E+02  0.00000000000E+00 0. -1.
         11    1    3    3    0    0 -0.93492297421E+00 -0.29528073900E+00 -0.16297636406E+01  0.19019467574E+01  0.51100000000E-03 0. -1.
        -11    1    3    3    0    0 -0.55486864322E+00  0.56337254739E+00 -0.41888110236E+00  0.89483488835E+00  0.51100000000E-03 0.  1.
        -12    1    3    3    0    0  0.63592678891E+00  0.23321170384E+02  0.38468982648E+02  0.44990488072E+02  0.00000000000E+00 0.  1.
</event>
<event>
 7    1  0.2599124E-010  0.4778725E+02  0.7816164E-02  0.1312668E+00
        -11   -1    0    0    0    0  0.00000000000E+00  0.00000000000E+00  0.45593999997E+02  0.45594000000E+02  0.51100000000E-03 0.  1.
         11   -1    0    0    0    0 -0.00000000000E+00 -0.00000000000E+00 -0.45593999997E+02  0.45594000000E+02  0.51100000000E-03 0. -1.
    9900012    2    1    2    0    0  0.83843707057E+01 -0.42458963101E+02  0.32501656404E+01  0.47787253503E+02  0.19999920024E+02 0.  0.
         12    1    1    2    0    0 -0.83843707057E+01  0.42458963101E+02 -0.32501656404E+01  0.43400746497E+02  0.00000000000E+00 0. -1.
         11    1    3    3    0    0  0.10593018872E+02 -0.25445747545E+02  0.65265333874E+01  0.28324790471E+02  0.51100000000E-03 0. -1.
        -11    1    3    3    0    0  0.15174118050E+00 -0.13574779203E+02  0.84123509374E+00  0.13601666535E+02  0.51100000000E-03 0.  1.
         12    1    3    3    0    0 -0.23603893464E+01 -0.34384363537E+01 -0.41176028407E+01  0.58607964970E+01  0.00000000000E+00 0. -1.
</event>
<event>
 7    1  0.2599124E-010  0.4778729E+02  0.7816164E-02  0.1312668E+00
        -11   -1    0    0    0    0  0.00000000000E+00  0.00000000000E+00  0.45593999997E+02  0.45594000000E+02  0.51100000000E-03 0.  1.
         11   -1    0    0    0    0 -0.00000000000E+00 -0.00000000000E+00 -0.45593999997E+02  0.45594000000E+02  0.51100000000E-03 0. -1.
    9900012    2    1    2    0    0 -0.18767726979E+02 -0.18789515590E+02  0.34327075145E+02  0.47787290788E+02  0.20000090021E+02 0.  0.
         12    1    1    2    0    0  0.18767726979E+02  0.18789515590E+02 -0.34327075145E+02  0.43400709212E+02  0.00000000000E+00 0. -1.
         11    1    3    3    0    0 -0.42589232323E+01 -0.74403438175E+01  0.17829236338E+02  0.19783296285E+02  0.51100000000E-03 0. -1.
        -11    1    3    3    0    0 -0.14460425484E+02 -0.62580791770E+01  0.16632541593E+02  0.22910890430E+02  0.51100000000E-03 0.  1.
         12    1    3    3    0    0 -0.48378262709E-01 -0.50910925952E+01 -0.13470278655E+00  0.50931040741E+01  0.00000000000E+00 0. -1.
</event>
<event>
 7    1  0.2599124E-010  0.4778727E+02  0.7816164E-02  0.1312668E+00
        -11   -1    0    0    0    0  0.00000000000E+00  0.00000000000E+00  0.45593999997E+02  0.45594000000E+02  0.51100000000E-03 0.  1.
         11   -1    0    0    0    0 -0.00000000000E+00 -0.00000000000E+00 -0.45593999997E+02  0.45594000000E+02  0.51100000000E-03 0. -1.
    9900012    2    1    2    0    0  0.39570798402E+02  0.78974501110E+01  0.15981409188E+02  0.47787271388E+02  0.20000001567E+02 0.  0.
         12    1    1    2    0    0 -0.39570798402E+02 -0.78974501110E+01 -0.15981409188E+02  0.43400728612E+02  0.00000000000E+00 0. -1.
         11    1    3    3    0    0  0.26391671210E+02  0.37256653246E+01  0.74988495479E+01  0.27688149742E+02  0.51100000000E-03 0. -1.
        -11    1    3    3    0    0  0.11825078464E+02  0.75124600148E+01  0.86944037259E+01  0.16488244072E+02  0.51100000000E-03 0.  1.
        -12    1    3    3    0    0  0.13540487276E+01 -0.33406752283E+01 -0.21184408576E+00  0.36108775740E+01  0.00000000000E+00 0.  1.
</event>
<event>
 7    1  0.2599124E-010  0.4778727E+02  0.7816164E-02  0.1312668E+00
        -11   -1    0    0    0    0  0.00000000000E+00  0.00000000000E+00  0.45593999997E+02  0.45594000000E+02  0.51100000000E-03 0. -1.
         11   -1    0    0    0    0 -0.00000000000E+00 -0.00000000000E+00 -0.45593999997E+02  0.45594000000E+02  0.51100000000E-03 0.  1.
    9900012    2    1    2    0    0  0.81205023210E+01  0.42617812024E+02  0.11844058756E+01  0.47787271009E+02  0.19999999838E+02 0.  0.
         12    1    1    2    0    0 -0.81205023210E+01 -0.42617812024E+02 -0.11844058756E+01  0.43400728991E+02  0.00000000000E+00 0. -1.
         11    1    3    3    0    0  0.26898735348E+01  0.39525372591E+01 -0.12164779534E+01  0.49333345001E+01  0.51100000000E-03 0. -1.
        -11    1    3    3    0    0  0.11021557693E+02  0.16103653833E+02  0.18739195482E+01  0.19603927552E+02  0.51100000000E-03 0.  1.
         12    1    3    3    0    0 -0.55909289064E+01  0.22561620932E+02  0.52696428077E+00  0.23250008957E+02  0.00000000000E+00 0. -1.
</event>
<event>
 7    1  0.2599124E-010  0.4778727E+02  0.7816164E-02  0.1312668E+00
        -11   -1    0    0    0    0  0.00000000000E+00  0.00000000000E+00  0.45593999997E+02  0.45594000000E+02  0.51100000000E-03 0.  1.
         11   -1    0    0    0    0 -0.00000000000E+00 -0.00000000000E+00 -0.45593999997E+02  0.45594000000E+02  0.51100000000E-03 0. -1.
    9900012    2    1    2    0    0 -0.35278299260E+02  0.11345354773E+02  0.22590878910E+02  0.47787270933E+02  0.19999999494E+02 0.  0.
         12    1    1    2    0    0  0.35278299260E+02 -0.11345354773E+02 -0.22590878910E+02  0.43400729067E+02  0.00000000000E+00 0. -1.
         11    1    3    3    0    0 -0.50488197219E+01  0.42652871367E+01  0.70433278941E+00  0.66467540862E+01  0.51100000000E-03 0. -1.
        -11    1    3    3    0    0 -0.14158209088E+02 -0.37217541160E+01  0.50658520293E+01  0.15490939136E+02  0.51100000000E-03 0.  1.
        -12    1    3    3    0    0 -0.16071270450E+02  0.10801821753E+02  0.16820694091E+02  0.25649577711E+02  0.00000000000E+00 0.  1.
</event>
<event>
 7    1  0.2599124E-010  0.4778727E+02  0.7816164E-02  0.1312668E+00
        -11   -1    0    0    0    0  0.00000000000E+00  0.00000000000E+00  0.45593999997E+02  0.45594000000E+02  0.51100000000E-03 0.  1.
         11   -1    0    0    0    0 -0.00000000000E+00 -0.00000000000E+00 -0.45593999997E+02  0.45594000000E+02  0.51100000000E-03 0. -1.
    9900012    2    1    2    0    0 -0.25287611655E+02 -0.24244932030E+01  0.35189234042E+02  0.47787266562E+02  0.19999979563E+02 0.  0.
         12    1    1    2    0    0  0.25287611655E+02  0.24244932030E+01 -0.35189234042E+02  0.43400733438E+02  0.00000000000E+00 0. -1.
         11    1    3    3    0    0 -0.12752339898E+02 -0.86961985993E+00  0.93684449223E+01  0.15847591997E+02  0.51100000000E-03 0.  1.
        -11    1    3    3    0    0  0.19984152377E+01  0.21597676258E+01  0.86623723487E+01  0.91484946646E+01  0.51100000000E-03 0. -1.
         12    1    3    3    0    0 -0.14533686994E+02 -0.37146409689E+01  0.17158416771E+02  0.22791179900E+02  0.00000000000E+00 0. -1.
</event>
<event>
 7    1  0.2599124E-010  0.4778727E+02  0.7816164E-02  0.1312668E+00
        -11   -1    0    0    0    0  0.00000000000E+00  0.00000000000E+00  0.45593999997E+02  0.45594000000E+02  0.51100000000E-03 0. -1.
         11   -1    0    0    0    0 -0.00000000000E+00 -0.00000000000E+00 -0.45593999997E+02  0.45594000000E+02  0.51100000000E-03 0.  1.
    9900012    2    1    2    0    0 -0.26003165715E+02 -0.34614878434E+02  0.30445130017E+01  0.47787268490E+02  0.19999988353E+02 0.  0.
         12    1    1    2    0    0  0.26003165715E+02  0.34614878434E+02 -0.30445130017E+01  0.43400731510E+02  0.00000000000E+00 0. -1.
         11    1    3    3    0    0 -0.11432181196E+02 -0.74273669568E+01  0.51388572856E+01  0.14569433800E+02  0.51100000000E-03 0. -1.
        -11    1    3    3    0    0 -0.12032981138E+02 -0.98539931788E+01  0.16923712821E+00  0.15553856696E+02  0.51100000000E-03 0.  1.
         12    1    3    3    0    0 -0.25380033813E+01 -0.17333518298E+02 -0.22635814121E+01  0.17663977994E+02  0.00000000000E+00 0. -1.
</event>
<event>
 7    1  0.2599124E-010  0.4778726E+02  0.7816164E-02  0.1312668E+00
        -11   -1    0    0    0    0  0.00000000000E+00  0.00000000000E+00  0.45593999997E+02  0.45594000000E+02  0.51100000000E-03 0. -1.
         11   -1    0    0    0    0 -0.00000000000E+00 -0.00000000000E+00 -0.45593999997E+02  0.45594000000E+02  0.51100000000E-03 0.  1.
    9900012    2    1    2    0    0  0.30434225340E+02  0.30545348495E+02  0.49359912417E+01  0.47787258114E+02  0.19999941044E+02 0.  0.
         12    1    1    2    0    0 -0.30434225340E+02 -0.30545348495E+02 -0.49359912417E+01  0.43400741886E+02  0.00000000000E+00 0. -1.
         11    1    3    3    0    0  0.12358797983E+02  0.12383168873E+02  0.54531457149E+01  0.18325380142E+02  0.51100000000E-03 0. -1.
        -11    1    3    3    0    0  0.13241521969E+01  0.11063258111E+02  0.11019188398E+01  0.11196574675E+02  0.51100000000E-03 0.  1.
        -12    1    3    3    0    0  0.16751275160E+02  0.70989215119E+01 -0.16190733130E+01  0.18265303296E+02  0.00000000000E+00 0.  1.
</event>
<event>
 7    1  0.2599124E-010  0.4778728E+02  0.7816164E-02  0.1312668E+00
        -11   -1    0    0    0    0  0.00000000000E+00  0.00000000000E+00  0.45593999997E+02  0.45594000000E+02  0.51100000000E-03 0.  1.
         11   -1    0    0    0    0 -0.00000000000E+00 -0.00000000000E+00 -0.45593999997E+02  0.45594000000E+02  0.51100000000E-03 0. -1.
    9900012    2    1    2    0    0 -0.95330045582E+01  0.55749049686E+01  0.41972188953E+02  0.47787281264E+02  0.20000046594E+02 0.  0.
         12    1    1    2    0    0  0.95330045582E+01 -0.55749049686E+01 -0.41972188953E+02  0.43400718736E+02  0.00000000000E+00 0. -1.
         11    1    3    3    0    0 -0.43270985662E+00  0.84921566399E+00 -0.67079086023E+00  0.11654894694E+01  0.51100000000E-03 0. -1.
        -11    1    3    3    0    0 -0.13191414712E+02  0.28460166124E+01  0.24958838849E+02  0.28373524095E+02  0.51100000000E-03 0.  1.
         12    1    3    3    0    0  0.40911200101E+01  0.18796726922E+01  0.17684140964E+02  0.18248267699E+02  0.00000000000E+00 0. -1.
</event>
<event>
 7    1  0.2599124E-010  0.4778727E+02  0.7816164E-02  0.1312668E+00
        -11   -1    0    0    0    0  0.00000000000E+00  0.00000000000E+00  0.45593999997E+02  0.45594000000E+02  0.51100000000E-03 0.  1.
         11   -1    0    0    0    0 -0.00000000000E+00 -0.00000000000E+00 -0.45593999997E+02  0.45594000000E+02  0.51100000000E-03 0. -1.
    9900012    2    1    2    0    0  0.36366269596E+02  0.51497884576E+01  0.23121360866E+02  0.47787271737E+02  0.20000003156E+02 0.  0.
         12    1    1    2    0    0 -0.36366269596E+02 -0.51497884576E+01 -0.23121360866E+02  0.43400728263E+02  0.00000000000E+00 0. -1.
         11    1    3    3    0    0  0.20992273222E-02  0.25089208393E+01  0.25837165195E+01  0.36014274252E+01  0.51100000000E-03 0. -1.
        -11    1    3    3    0    0  0.19705041446E+02  0.54010925998E+01  0.45511361533E+01  0.20932589429E+02  0.51100000000E-03 0.  1.
         12    1    3    3    0    0  0.16659128923E+02 -0.27602249815E+01  0.15986508193E+02  0.23253254883E+02  0.00000000000E+00 0. -1.
</event>
<event>
 7    1  0.2599124E-010  0.4778727E+02  0.7816164E-02  0.1312668E+00
        -11   -1    0    0    0    0  0.00000000000E+00  0.00000000000E+00  0.45593999997E+02  0.45594000000E+02  0.51100000000E-03 0. -1.
         11   -1    0    0    0    0 -0.00000000000E+00 -0.00000000000E+00 -0.45593999997E+02  0.45594000000E+02  0.51100000000E-03 0.  1.
    9900012    2    1    2    0    0  0.43370582505E+02  0.76083353303E+00  0.14271307535E+01  0.47787274238E+02  0.20000014559E+02 0.  0.
         12    1    1    2    0    0 -0.43370582505E+02 -0.76083353303E+00 -0.14271307535E+01  0.43400725762E+02  0.00000000000E+00 0. -1.
         11    1    3    3    0    0  0.24098617674E+02 -0.40983242811E+01 -0.13250086857E+01  0.24480508246E+02  0.51100000000E-03 0. -1.
        -11    1    3    3    0    0  0.18466683029E+02  0.21946603495E+01 -0.10132560243E+01  0.18624220901E+02  0.51100000000E-03 0.  1.
         12    1    3    3    0    0  0.80528180174E+00  0.26644974646E+01  0.37653954636E+01  0.46825450897E+01  0.00000000000E+00 0. -1.
</event>
<event>
 7    1  0.2599124E-010  0.4778727E+02  0.7816164E-02  0.1312668E+00
        -11   -1    0    0    0    0  0.00000000000E+00  0.00000000000E+00  0.45593999997E+02  0.45594000000E+02  0.51100000000E-03 0. -1.
         11   -1    0    0    0    0 -0.00000000000E+00 -0.00000000000E+00 -0.45593999997E+02  0.45594000000E+02  0.51100000000E-03 0.  1.
    9900012    2    1    2    0    0 -0.37864115628E+02 -0.19788425184E+02 -0.76387333728E+01  0.47787271076E+02  0.20000000145E+02 0.  0.
         12    1    1    2    0    0  0.37864115628E+02  0.19788425184E+02  0.76387333728E+01  0.43400728924E+02  0.00000000000E+00 0. -1.
         11    1    3    3    0    0 -0.17243653298E+01  0.26508573983E+01  0.67265547503E+00  0.32331016665E+01  0.51100000000E-03 0. -1.
        -11    1    3    3    0    0 -0.67934965664E+01 -0.28140610362E+01 -0.54147697835E+01  0.91318271547E+01  0.51100000000E-03 0.  1.
        -12    1    3    3    0    0 -0.29346253732E+02 -0.19625221546E+02 -0.28966190643E+01  0.35422342255E+02  0.00000000000E+00 0.  1.
</event>
<event>
 7    1  0.2599124E-010  0.4778724E+02  0.7816164E-02  0.1312668E+00
        -11   -1    0    0    0    0  0.00000000000E+00  0.00000000000E+00  0.45593999997E+02  0.45594000000E+02  0.51100000000E-03 0.  1.
         11   -1    0    0    0    0 -0.00000000000E+00 -0.00000000000E+00 -0.45593999997E+02  0.45594000000E+02  0.51100000000E-03 0. -1.
    9900012    2    1    2    0    0  0.30610442501E+02  0.30308786319E+02 -0.52918918468E+01  0.47787241509E+02  0.19999865335E+02 0.  0.
         12    1    1    2    0    0 -0.30610442501E+02 -0.30308786319E+02  0.52918918468E+01  0.43400758491E+02  0.00000000000E+00 0. -1.
         11    1    3    3    0    0  0.80033763853E+01  0.93640967471E+01  0.35844993599E+01  0.12829223569E+02  0.51100000000E-03 0.  1.
        -11    1    3    3    0    0  0.40882129789E+01  0.90572661032E+01 -0.82952791788E+01  0.12944466445E+02  0.51100000000E-03 0. -1.
         12    1    3    3    0    0  0.18518853137E+02  0.11887423469E+02 -0.58111202785E+00  0.22013551495E+02  0.00000000000E+00 0. -1.
</event>
<event>
 7    1  0.2599124E-010  0.4778727E+02  0.7816164E-02  0.1312668E+00
        -11   -1    0    0    0    0  0.00000000000E+00  0.00000000000E+00  0.45593999997E+02  0.45594000000E+02  0.51100000000E-03 0.  1.
         11   -1    0    0    0    0 -0.00000000000E+00 -0.00000000000E+00 -0.45593999997E+02  0.45594000000E+02  0.51100000000E-03 0. -1.
    9900012    2    1    2    0    0  0.16046109434E+02  0.39223070392E+02  0.93646447558E+01  0.47787269012E+02  0.19999990732E+02 0.  0.
         12    1    1    2    0    0 -0.16046109434E+02 -0.39223070392E+02 -0.93646447558E+01  0.43400730988E+02  0.00000000000E+00 0. -1.
         11    1    3    3    0    0  0.56362404399E+01  0.18093062197E+02  0.74619765836E+01  0.20366816166E+02  0.51100000000E-03 0.  1.
        -11    1    3    3    0    0  0.35352798588E+01  0.16364738129E+01 -0.43362768376E+01  0.58291978259E+01  0.51100000000E-03 0. -1.
         12    1    3    3    0    0  0.68745891352E+01  0.19493534382E+02  0.62389450099E+01  0.21591255020E+02  0.00000000000E+00 0. -1.
</event>
<event>
 7    1  0.2599124E-010  0.4778727E+02  0.7816164E-02  0.1312668E+00
        -11   -1    0    0    0    0  0.00000000000E+00  0.00000000000E+00  0.45593999997E+02  0.45594000000E+02  0.51100000000E-03 0. -1.
         11   -1    0    0    0    0 -0.00000000000E+00 -0.00000000000E+00 -0.45593999997E+02  0.45594000000E+02  0.51100000000E-03 0.  1.
    9900012    2    1    2    0    0 -0.44085924920E+01  0.35205150647E+02 -0.24995696022E+02  0.47787272593E+02  0.20000007062E+02 0.  0.
         12    1    1    2    0    0  0.44085924920E+01 -0.35205150647E+02  0.24995696022E+02  0.43400727407E+02  0.00000000000E+00 0. -1.
         11    1    3    3    0    0 -0.68272675925E+01  0.98893111881E+01 -0.67803782408E+01  0.13797955932E+02  0.51100000000E-03 0. -1.
        -11    1    3    3    0    0 -0.21057676505E+01  0.13685846946E+02 -0.16261512755E+02  0.21358217654E+02  0.51100000000E-03 0.  1.
         12    1    3    3    0    0  0.45244427509E+01  0.11629992512E+02 -0.19538050264E+01  0.12631099007E+02  0.00000000000E+00 0. -1.
</event>
<event>
 7    1  0.2599124E-010  0.4778727E+02  0.7816164E-02  0.1312668E+00
        -11   -1    0    0    0    0  0.00000000000E+00  0.00000000000E+00  0.45593999997E+02  0.45594000000E+02  0.51100000000E-03 0.  1.
         11   -1    0    0    0    0 -0.00000000000E+00 -0.00000000000E+00 -0.45593999997E+02  0.45594000000E+02  0.51100000000E-03 0. -1.
    9900012    2    1    2    0    0  0.23494689231E+02  0.12317833739E+02  0.34349578528E+02  0.47787274256E+02  0.20000014642E+02 0.  0.
         12    1    1    2    0    0 -0.23494689231E+02 -0.12317833739E+02 -0.34349578528E+02  0.43400725744E+02  0.00000000000E+00 0. -1.
         11    1    3    3    0    0  0.81623033855E+01  0.12781627496E+01  0.42149826007E+01  0.92748571502E+01  0.51100000000E-03 0. -1.
        -11    1    3    3    0    0  0.16231266205E+02  0.39786029986E+01  0.23038557403E+02  0.28461525116E+02  0.51100000000E-03 0.  1.
        -12    1    3    3    0    0 -0.89888035909E+00  0.70610679903E+01  0.70960385240E+01  0.10050891990E+02  0.00000000000E+00 0.  1.
</event>
<event>
 7    1  0.2599124E-010  0.4778733E+02  0.7816164E-02  0.1312668E+00
        -11   -1    0    0    0    0  0.00000000000E+00  0.00000000000E+00  0.45593999997E+02  0.45594000000E+02  0.51100000000E-03 0.  1.
         11   -1    0    0    0    0 -0.00000000000E+00 -0.00000000000E+00 -0.45593999997E+02  0.45594000000E+02  0.51100000000E-03 0. -1.
    9900012    2    1    2    0    0 -0.24003280176E+02 -0.22820834874E+02  0.28047648182E+02  0.47787325672E+02  0.20000249068E+02 0.  0.
         12    1    1    2    0    0  0.24003280176E+02  0.22820834874E+02 -0.28047648182E+02  0.43400674328E+02  0.00000000000E+00 0. -1.
         11    1    3    3    0    0 -0.86822973992E+01 -0.79580694963E+01  0.44706195440E+01  0.12597602852E+02  0.51100000000E-03 0. -1.
        -11    1    3    3    0    0 -0.31080291251E+01 -0.11081109370E+02  0.17714292659E+02  0.21124559039E+02  0.51100000000E-03 0.  1.
        -12    1    3    3    0    0 -0.12212953651E+02 -0.37816560075E+01  0.58627359796E+01  0.14065163782E+02  0.00000000000E+00 0.  1.
</event>
<event>
 7    1  0.2599124E-010  0.4778727E+02  0.7816164E-02  0.1312668E+00
        -11   -1    0    0    0    0  0.00000000000E+00  0.00000000000E+00  0.45593999997E+02  0.45594000000E+02  0.51100000000E-03 0.  1.
         11   -1    0    0    0    0 -0.00000000000E+00 -0.00000000000E+00 -0.45593999997E+02  0.45594000000E+02  0.51100000000E-03 0. -1.
    9900012    2    1    2    0    0 -0.18016676154E+02 -0.36202304195E+02  0.15761209547E+02  0.47787272183E+02  0.20000005192E+02 0.  0.
         12    1    1    2    0    0  0.18016676154E+02  0.36202304195E+02 -0.15761209547E+02  0.43400727817E+02  0.00000000000E+00 0. -1.
         11    1    3    3    0    0  0.22529719878E+01 -0.12846748441E+01 -0.10299404818E+01  0.27905286040E+01  0.51100000000E-03 0. -1.
        -11    1    3    3    0    0 -0.29572875030E+01 -0.21742941531E+00  0.10797816203E+01  0.31557492826E+01  0.51100000000E-03 0.  1.
        -12    1    3    3    0    0 -0.17312360639E+02 -0.34700199935E+02  0.15711368409E+02  0.41840994296E+02  0.00000000000E+00 0.  1.
</event>
<event>
 7    1  0.2599124E-010  0.4778727E+02  0.7816164E-02  0.1312668E+00
        -11   -1    0    0    0    0  0.00000000000E+00  0.00000000000E+00  0.45593999997E+02  0.45594000000E+02  0.51100000000E-03 0. -1.
         11   -1    0    0    0    0 -0.00000000000E+00 -0.00000000000E+00 -0.45593999997E+02  0.45594000000E+02  0.51100000000E-03 0.  1.
    9900012    2    1    2    0    0 -0.61077075713E+01  0.40059596110E+02 -0.15541812571E+02  0.47787271086E+02  0.20000000188E+02 0.  0.
         12    1    1    2    0    0  0.61077075713E+01 -0.40059596110E+02  0.15541812571E+02  0.43400728914E+02  0.00000000000E+00 0. -1.
         11    1    3    3    0    0 -0.49775348202E+01  0.11592273982E+02 -0.65354043887E+01  0.14208032227E+02  0.51100000000E-03 0. -1.
        -11    1    3    3    0    0  0.19599386164E+00  0.25508768307E+01 -0.71139122320E+01  0.75599691603E+01  0.51100000000E-03 0.  1.
         12    1    3    3    0    0 -0.13261666128E+01  0.25916445297E+02 -0.18924959507E+01  0.26019269699E+02  0.00000000000E+00 0. -1.
</event>
<event>
 7    1  0.2599124E-010  0.4778727E+02  0.7816164E-02  0.1312668E+00
        -11   -1    0    0    0    0  0.00000000000E+00  0.00000000000E+00  0.45593999997E+02  0.45594000000E+02  0.51100000000E-03 0.  1.
         11   -1    0    0    0    0 -0.00000000000E+00 -0.00000000000E+00 -0.45593999997E+02  0.45594000000E+02  0.51100000000E-03 0. -1.
    9900012    2    1    2    0    0  0.55647015275E+01 -0.27175517771E+02  0.33378866381E+02  0.47787269705E+02  0.19999993894E+02 0.  0.
         12    1    1    2    0    0 -0.55647015275E+01  0.27175517771E+02 -0.33378866381E+02  0.43400730295E+02  0.00000000000E+00 0. -1.
         11    1    3    3    0    0 -0.17697481137E+01  0.17962336262E+01  0.50937732023E+01  0.56837478237E+01  0.51100000000E-03 0. -1.
        -11    1    3    3    0    0  0.55173689562E+01 -0.84353328868E+01  0.12942821185E+02  0.16404658533E+02  0.51100000000E-03 0.  1.
        -12    1    3    3    0    0  0.18170806850E+01 -0.20536418511E+02  0.15342271994E+02  0.25698863349E+02  0.00000000000E+00 0.  1.
</event>
<event>
 7    1  0.2599124E-010  0.4778727E+02  0.7816164E-02  0.1312668E+00
        -11   -1    0    0    0    0  0.00000000000E+00  0.00000000000E+00  0.45593999997E+02  0.45594000000E+02  0.51100000000E-03 0.  1.
         11   -1    0    0    0    0 -0.00000000000E+00 -0.00000000000E+00 -0.45593999997E+02  0.45594000000E+02  0.51100000000E-03 0. -1.
    9900012    2    1    2    0    0  0.21569732028E+02  0.84301299510E+01  0.36705624783E+02  0.47787270496E+02  0.19999997499E+02 0.  0.
         12    1    1    2    0    0 -0.21569732028E+02 -0.84301299510E+01 -0.36705624783E+02  0.43400729504E+02  0.00000000000E+00 0. -1.
         11    1    3    3    0    0  0.55418957848E+01 -0.12419617364E+01  0.65359919504E+01  0.86587683236E+01  0.51100000000E-03 0. -1.
        -11    1    3    3    0    0  0.11519345369E+02 -0.51438448702E+00  0.23417022899E+02  0.26102047254E+02  0.51100000000E-03 0.  1.
         12    1    3    3    0    0  0.45084908739E+01  0.10186476174E+02  0.67526099338E+01  0.13026454918E+02  0.00000000000E+00 0. -1.
</event>
<event>
 7    1  0.2599124E-010  0.4778727E+02  0.7816164E-02  0.1312668E+00
        -11   -1    0    0    0    0  0.00000000000E+00  0.00000000000E+00  0.45593999997E+02  0.45594000000E+02  0.51100000000E-03 0.  1.
         11   -1    0    0    0    0 -0.00000000000E+00 -0.00000000000E+00 -0.45593999997E+02  0.45594000000E+02  0.51100000000E-03 0. -1.
    9900012    2    1    2    0    0 -0.19175505220E+02 -0.22244942336E+02  0.31954436533E+02  0.47787268738E+02  0.19999989483E+02 0.  0.
         12    1    1    2    0    0  0.19175505220E+02  0.22244942336E+02 -0.31954436533E+02  0.43400731262E+02  0.00000000000E+00 0. -1.
         11    1    3    3    0    0 -0.74099102792E+00 -0.54142065652E+01  0.85364267873E+01  0.10135742844E+02  0.51100000000E-03 0. -1.
        -11    1    3    3    0    0 -0.13365128594E+02 -0.16641054523E+02  0.24470189038E+02  0.32470625337E+02  0.51100000000E-03 0.  1.
         12    1    3    3    0    0 -0.50693855977E+01 -0.18968124844E+00 -0.10521792933E+01  0.51809005568E+01  0.00000000000E+00 0. -1.
</event>
<event>
 7    1  0.2599124E-010  0.4778727E+02  0.7816164E-02  0.1312668E+00
        -11   -1    0    0    0    0  0.00000000000E+00  0.00000000000E+00  0.45593999997E+02  0.45594000000E+02  0.51100000000E-03 0. -1.
         11   -1    0    0    0    0 -0.00000000000E+00 -0.00000000000E+00 -0.45593999997E+02  0.45594000000E+02  0.51100000000E-03 0.  1.
    9900012    2    1    2    0    0 -0.16130490507E+02 -0.40148437154E+02  0.33961368672E+01  0.47787268721E+02  0.19999989408E+02 0.  0.
         12    1    1    2    0    0  0.16130490507E+02  0.40148437154E+02 -0.33961368672E+01  0.43400731279E+02  0.00000000000E+00 0. -1.
         11    1    3    3    0    0  0.24699709913E+01 -0.67266027804E+01  0.23694699471E+01  0.75473392500E+01  0.51100000000E-03 0. -1.
        -11    1    3    3    0    0 -0.96167668112E+01 -0.27790181825E+02  0.25961701138E+01  0.29521458455E+02  0.51100000000E-03 0.  1.
         12    1    3    3    0    0 -0.89836946872E+01 -0.56316525484E+01 -0.15695031937E+01  0.10718471017E+02  0.00000000000E+00 0. -1.
</event>
<event>
 7    1  0.2599124E-010  0.4778726E+02  0.7816164E-02  0.1312668E+00
        -11   -1    0    0    0    0  0.00000000000E+00  0.00000000000E+00  0.45593999997E+02  0.45594000000E+02  0.51100000000E-03 0.  1.
         11   -1    0    0    0    0 -0.00000000000E+00 -0.00000000000E+00 -0.45593999997E+02  0.45594000000E+02  0.51100000000E-03 0. -1.
    9900012    2    1    2    0    0 -0.30422982674E+02  0.26438144352E+02  0.16096294730E+02  0.47787262039E+02  0.19999958939E+02 0.  0.
         12    1    1    2    0    0  0.30422982674E+02 -0.26438144352E+02 -0.16096294730E+02  0.43400737961E+02  0.00000000000E+00 0. -1.
         11    1    3    3    0    0 -0.10498838622E+01  0.14829616388E+01  0.52724856025E+01  0.55767854572E+01  0.51100000000E-03 0. -1.
        -11    1    3    3    0    0 -0.59826182917E+01  0.15396836451E+00  0.46174916764E+01  0.75588793828E+01  0.51100000000E-03 0.  1.
        -12    1    3    3    0    0 -0.23390480520E+02  0.24801214349E+02  0.62063174515E+01  0.34651597199E+02  0.00000000000E+00 0.  1.
</event>
<event>
 7    1  0.2599124E-010  0.4778728E+02  0.7816164E-02  0.1312668E+00
        -11   -1    0    0    0    0  0.00000000000E+00  0.00000000000E+00  0.45593999997E+02  0.45594000000E+02  0.51100000000E-03 0.  1.
         11   -1    0    0    0    0 -0.00000000000E+00 -0.00000000000E+00 -0.45593999997E+02  0.45594000000E+02  0.51100000000E-03 0. -1.
    9900012    2    1    2    0    0  0.21049101406E+02 -0.12022570134E+02  0.36000221470E+02  0.47787276405E+02  0.20000024442E+02 0.  0.
         12    1    1    2    0    0 -0.21049101406E+02  0.12022570134E+02 -0.36000221470E+02  0.43400723595E+02  0.00000000000E+00 0. -1.
         11    1    3    3    0    0  0.45592339186E+01 -0.42514294121E+01  0.16048543621E+01  0.64371440682E+01  0.51100000000E-03 0. -1.
        -11    1    3    3    0    0  0.78169361622E+01 -0.31423376660E+01  0.38521619767E+01  0.92637966907E+01  0.51100000000E-03 0.  1.
        -12    1    3    3    0    0  0.86729313253E+01 -0.46288030563E+01  0.30543205131E+02  0.32086335646E+02  0.00000000000E+00 0.  1.
</event>
<event>
 7    1  0.2599124E-010  0.4778728E+02  0.7816164E-02  0.1312668E+00
        -11   -1    0    0    0    0  0.00000000000E+00  0.00000000000E+00  0.45593999997E+02  0.45594000000E+02  0.51100000000E-03 0.  1.
         11   -1    0    0    0    0 -0.00000000000E+00 -0.00000000000E+00 -0.45593999997E+02  0.45594000000E+02  0.51100000000E-03 0. -1.
    9900012    2    1    2    0    0 -0.98528358099E+01  0.13109645532E+02  0.40183097621E+02  0.47787279800E+02  0.20000039919E+02 0.  0.
         12    1    1    2    0    0  0.98528358099E+01 -0.13109645532E+02 -0.40183097621E+02  0.43400720200E+02  0.00000000000E+00 0. -1.
         11    1    3    3    0    0  0.40638281763E+01  0.56701886835E+01  0.15076341643E+02  0.16612098505E+02  0.51100000000E-03 0. -1.
        -11    1    3    3    0    0 -0.49966696407E+01  0.79264723083E+01  0.15002694983E+02  0.17688316137E+02  0.51100000000E-03 0.  1.
         12    1    3    3    0    0 -0.89199943455E+01 -0.48701545984E+00  0.10104060995E+02  0.13486865158E+02  0.00000000000E+00 0. -1.
</event>
<event>
 7    1  0.2599124E-010  0.4778727E+02  0.7816164E-02  0.1312668E+00
        -11   -1    0    0    0    0  0.00000000000E+00  0.00000000000E+00  0.45593999997E+02  0.45594000000E+02  0.51100000000E-03 0.  1.
         11   -1    0    0    0    0 -0.00000000000E+00 -0.00000000000E+00 -0.45593999997E+02  0.45594000000E+02  0.51100000000E-03 0. -1.
    9900012    2    1    2    0    0  0.21158019880E+02 -0.37618158326E+02 -0.45645929743E+01  0.47787272470E+02  0.20000006501E+02 0.  0.
         12    1    1    2    0    0 -0.21158019880E+02  0.37618158326E+02  0.45645929743E+01  0.43400727530E+02  0.00000000000E+00 0. -1.
         11    1    3    3    0    0  0.40843325035E-01  0.10046322050E+01  0.41386587045E+00  0.10873082656E+01  0.51100000000E-03 0.  1.
        -11    1    3    3    0    0  0.44410885202E+01 -0.25135255867E+01  0.32952799327E+01  0.60745327570E+01  0.51100000000E-03 0. -1.
         12    1    3    3    0    0  0.16676088035E+02 -0.36109264944E+02 -0.82737387775E+01  0.40625431448E+02  0.00000000000E+00 0. -1.
</event>
<event>
 7    1  0.2599124E-010  0.4778727E+02  0.7816164E-02  0.1312668E+00
        -11   -1    0    0    0    0  0.00000000000E+00  0.00000000000E+00  0.45593999997E+02  0.45594000000E+02  0.51100000000E-03 0.  1.
         11   -1    0    0    0    0 -0.00000000000E+00 -0.00000000000E+00 -0.45593999997E+02  0.45594000000E+02  0.51100000000E-03 0. -1.
    9900012    2    1    2    0    0  0.33731755952E+02  0.21913048479E+02 -0.16297548954E+02  0.47787272412E+02  0.20000006236E+02 0.  0.
         12    1    1    2    0    0 -0.33731755952E+02 -0.21913048479E+02  0.16297548954E+02  0.43400727588E+02  0.00000000000E+00 0. -1.
         11    1    3    3    0    0  0.14836452130E+02  0.14509113788E+01 -0.10689272779E+02  0.18343554956E+02  0.51100000000E-03 0. -1.
        -11    1    3    3    0    0  0.14916557511E+02  0.10798052242E+02 -0.28418960248E+01  0.18632712993E+02  0.51100000000E-03 0.  1.
        -12    1    3    3    0    0  0.39787463108E+01  0.96640848588E+01 -0.27663801502E+01  0.10811004463E+02  0.00000000000E+00 0.  1.
</event>
<event>
 7    1  0.2599124E-010  0.4778729E+02  0.7816164E-02  0.1312668E+00
        -11   -1    0    0    0    0  0.00000000000E+00  0.00000000000E+00  0.45593999997E+02  0.45594000000E+02  0.51100000000E-03 0.  1.
         11   -1    0    0    0    0 -0.00000000000E+00 -0.00000000000E+00 -0.45593999997E+02  0.45594000000E+02  0.51100000000E-03 0. -1.
    9900012    2    1    2    0    0 -0.77980805492E+01  0.12407815223E+02  0.40851654715E+02  0.47787289961E+02  0.20000086250E+02 0.  0.
         12    1    1    2    0    0  0.77980805492E+01 -0.12407815223E+02 -0.40851654715E+02  0.43400710039E+02  0.00000000000E+00 0. -1.
         11    1    3    3    0    0 -0.84993372459E+00 -0.27989692265E+01  0.61885216769E+01  0.68450286248E+01  0.51100000000E-03 0. -1.
        -11    1    3    3    0    0  0.37183487363E+01  0.20625702399E+01  0.36222862314E+01  0.55858098000E+01  0.51100000000E-03 0.  1.
        -12    1    3    3    0    0 -0.10666495561E+02  0.13144214210E+02  0.31040846807E+02  0.35356451537E+02  0.00000000000E+00 0.  1.
</event>
<event>
 7    1  0.2599124E-010  0.4778727E+02  0.7816164E-02  0.1312668E+00
        -11   -1    0    0    0    0  0.00000000000E+00  0.00000000000E+00  0.45593999997E+02  0.45594000000E+02  0.51100000000E-03 0. -1.
         11   -1    0    0    0    0 -0.00000000000E+00 -0.00000000000E+00 -0.45593999997E+02  0.45594000000E+02  0.51100000000E-03 0.  1.
    9900012    2    1    2    0    0 -0.15909470207E+02 -0.17191389721E+02 -0.36537215118E+02  0.47787271764E+02  0.20000003283E+02 0.  0.
         12    1    1    2    0    0  0.15909470207E+02  0.17191389721E+02  0.36537215118E+02  0.43400728236E+02  0.00000000000E+00 0. -1.
         11    1    3    3    0    0 -0.81165705193E+01 -0.20415167500E+01 -0.80483882434E+01  0.11611333309E+02  0.51100000000E-03 0. -1.
        -11    1    3    3    0    0 -0.46651160967E+01 -0.17669708114E+02 -0.23099448092E+02  0.29454480057E+02  0.51100000000E-03 0.  1.
         12    1    3    3    0    0 -0.31277835906E+01  0.25198351429E+01 -0.53893787830E+01  0.67214583985E+01  0.00000000000E+00 0. -1.
</event>
<event>
 7    1  0.2599124E-010  0.4778728E+02  0.7816164E-02  0.1312668E+00
        -11   -1    0    0    0    0  0.00000000000E+00  0.00000000000E+00  0.45593999997E+02  0.45594000000E+02  0.51100000000E-03 0.  1.
         11   -1    0    0    0    0 -0.00000000000E+00 -0.00000000000E+00 -0.45593999997E+02  0.45594000000E+02  0.51100000000E-03 0. -1.
    9900012    2    1    2    0    0  0.94814928568E+01  0.23366442760E+01  0.42287873939E+02  0.47787275402E+02  0.20000019870E+02 0.  0.
         12    1    1    2    0    0 -0.94814928568E+01 -0.23366442760E+01 -0.42287873939E+02  0.43400724598E+02  0.00000000000E+00 0. -1.
         11    1    3    3    0    0  0.23228413729E+01 -0.58324126142E+01  0.13735142744E+02  0.15101879863E+02  0.51100000000E-03 0. -1.
        -11    1    3    3    0    0 -0.11941875010E+01 -0.13728288104E+01  0.10301592952E+02  0.10461049677E+02  0.51100000000E-03 0.  1.
        -12    1    3    3    0    0  0.83528389849E+01  0.95418857006E+01  0.18251138244E+02  0.22224345863E+02  0.00000000000E+00 0.  1.
</event>
<event>
 7    1  0.2599124E-010  0.4778727E+02  0.7816164E-02  0.1312668E+00
        -11   -1    0    0    0    0  0.00000000000E+00  0.00000000000E+00  0.45593999997E+02  0.45594000000E+02  0.51100000000E-03 0.  1.
         11   -1    0    0    0    0 -0.00000000000E+00 -0.00000000000E+00 -0.45593999997E+02  0.45594000000E+02  0.51100000000E-03 0. -1.
    9900012    2    1    2    0    0  0.11916441242E+02  0.11987552058E+02  0.39973992125E+02  0.47787273939E+02  0.20000013196E+02 0.  0.
         12    1    1    2    0    0 -0.11916441242E+02 -0.11987552058E+02 -0.39973992125E+02  0.43400726061E+02  0.00000000000E+00 0. -1.
         11    1    3    3    0    0 -0.21121794528E+01  0.53869330612E+00 -0.22856479202E-02  0.21797931104E+01  0.51100000000E-03 0. -1.
        -11    1    3    3    0    0  0.73914767591E+01  0.75678562030E+01  0.96401212880E+01  0.14312173661E+02  0.51100000000E-03 0.  1.
         12    1    3    3    0    0  0.66371439360E+01  0.38810025487E+01  0.30336156485E+02  0.31295307167E+02  0.00000000000E+00 0. -1.
</event>
<event>
 7    1  0.2599124E-010  0.4778727E+02  0.7816164E-02  0.1312668E+00
        -11   -1    0    0    0    0  0.00000000000E+00  0.00000000000E+00  0.45593999997E+02  0.45594000000E+02  0.51100000000E-03 0.  1.
         11   -1    0    0    0    0 -0.00000000000E+00 -0.00000000000E+00 -0.45593999997E+02  0.45594000000E+02  0.51100000000E-03 0. -1.
    9900012    2    1    2    0    0  0.40861356655E+02 -0.92171597592E+01  0.11358572734E+02  0.47787266409E+02  0.19999978866E+02 0.  0.
         12    1    1    2    0    0 -0.40861356655E+02  0.92171597592E+01 -0.11358572734E+02  0.43400733591E+02  0.00000000000E+00 0. -1.
         11    1    3    3    0    0  0.10324484815E+02 -0.90827838223E+00  0.35543580992E+01  0.10956889069E+02  0.51100000000E-03 0. -1.
        -11    1    3    3    0    0  0.20582884226E+02 -0.27578136844E+01  0.12790984168E+02  0.24389955630E+02  0.51100000000E-03 0.  1.
         12    1    3    3    0    0  0.99539876131E+01 -0.55510676925E+01 -0.49867695339E+01  0.12440421710E+02  0.00000000000E+00 0. -1.
</event>
<event>
 7    1  0.2599124E-010  0.4778727E+02  0.7816164E-02  0.1312668E+00
        -11   -1    0    0    0    0  0.00000000000E+00  0.00000000000E+00  0.45593999997E+02  0.45594000000E+02  0.51100000000E-03 0. -1.
         11   -1    0    0    0    0 -0.00000000000E+00 -0.00000000000E+00 -0.45593999997E+02  0.45594000000E+02  0.51100000000E-03 0.  1.
    9900012    2    1    2    0    0  0.19435819949E+02  0.18126342634E+02 -0.34311918155E+02  0.47787272796E+02  0.20000007986E+02 0.  0.
         12    1    1    2    0    0 -0.19435819949E+02 -0.18126342634E+02  0.34311918155E+02  0.43400727204E+02  0.00000000000E+00 0. -1.
         11    1    3    3    0    0  0.49129031209E+01  0.93142378501E+01 -0.36602894082E+01  0.11148513920E+02  0.51100000000E-03 0. -1.
        -11    1    3    3    0    0  0.25886035765E+01 -0.12698134369E+01 -0.87593087229E+00  0.30133950612E+01  0.51100000000E-03 0.  1.
        -12    1    3    3    0    0  0.11934313251E+02  0.10081918221E+02 -0.29775697874E+02  0.33625363815E+02  0.00000000000E+00 0.  1.
</event>
<event>
 7    1  0.2599124E-010  0.4778727E+02  0.7816164E-02  0.1312668E+00
        -11   -1    0    0    0    0  0.00000000000E+00  0.00000000000E+00  0.45593999997E+02  0.45594000000E+02  0.51100000000E-03 0.  1.
         11   -1    0    0    0    0 -0.00000000000E+00 -0.00000000000E+00 -0.45593999997E+02  0.45594000000E+02  0.51100000000E-03 0. -1.
    9900012    2    1    2    0    0 -0.74640839921E+01 -0.37303498176E+02  0.20889232556E+02  0.47787267716E+02  0.19999984824E+02 0.  0.
         12    1    1    2    0    0  0.74640839921E+01  0.37303498176E+02 -0.20889232556E+02  0.43400732284E+02  0.00000000000E+00 0. -1.
         11    1    3    3    0    0 -0.62800844489E+00 -0.17230426371E+01 -0.50838832778E+00  0.19030842044E+01  0.51100000000E-03 0. -1.
        -11    1    3    3    0    0 -0.35843568476E+01 -0.28509155403E+02  0.24245841390E+02  0.37596281476E+02  0.51100000000E-03 0.  1.
        -12    1    3    3    0    0 -0.32517186996E+01 -0.70713001355E+01 -0.28482205060E+01  0.82879020360E+01  0.00000000000E+00 0.  1.
</event>
<event>
 7    1  0.2599124E-010  0.4778727E+02  0.7816164E-02  0.1312668E+00
        -11   -1    0    0    0    0  0.00000000000E+00  0.00000000000E+00  0.45593999997E+02  0.45594000000E+02  0.51100000000E-03 0.  1.
         11   -1    0    0    0    0 -0.00000000000E+00 -0.00000000000E+00 -0.45593999997E+02  0.45594000000E+02  0.51100000000E-03 0. -1.
    9900012    2    1    2    0    0 -0.35731629224E+02  0.97841813595E+01  0.22608481133E+02  0.47787274764E+02  0.20000016959E+02 0.  0.
         12    1    1    2    0    0  0.35731629224E+02 -0.97841813595E+01 -0.22608481133E+02  0.43400725236E+02  0.00000000000E+00 0. -1.
         11    1    3    3    0    0 -0.56106480393E+01  0.79730677800E+00 -0.26405940481E+01  0.62520242088E+01  0.51100000000E-03 0. -1.
        -11    1    3    3    0    0 -0.35964391137E+01 -0.94194610138E+00  0.67527900021E+01  0.77085543282E+01  0.51100000000E-03 0.  1.
         12    1    3    3    0    0 -0.26524542071E+02  0.99288206829E+01  0.18496285178E+02  0.33826696227E+02  0.00000000000E+00 0. -1.
</event>
<event>
 7    1  0.2599124E-010  0.4778727E+02  0.7816164E-02  0.1312668E+00
        -11   -1    0    0    0    0  0.00000000000E+00  0.00000000000E+00  0.45593999997E+02  0.45594000000E+02  0.51100000000E-03 0.  1.
         11   -1    0    0    0    0 -0.00000000000E+00 -0.00000000000E+00 -0.45593999997E+02  0.45594000000E+02  0.51100000000E-03 0. -1.
    9900012    2    1    2    0    0 -0.20074948981E+02  0.27865891808E+02  0.26535105127E+02  0.47787270663E+02  0.19999998261E+02 0.  0.
         12    1    1    2    0    0  0.20074948981E+02 -0.27865891808E+02 -0.26535105127E+02  0.43400729337E+02  0.00000000000E+00 0. -1.
         11    1    3    3    0    0 -0.13285454139E+01 -0.25890275608E+01 -0.19721399211E+00  0.29166745185E+01  0.51100000000E-03 0. -1.
        -11    1    3    3    0    0 -0.33961892946E+01  0.83610405423E+01  0.82820024011E+01  0.12248782172E+02  0.51100000000E-03 0.  1.
         12    1    3    3    0    0 -0.15350214273E+02  0.22093878827E+02  0.18450316718E+02  0.32621813972E+02  0.00000000000E+00 0. -1.
</event>
<event>
 7    1  0.2599124E-010  0.4778727E+02  0.7816164E-02  0.1312668E+00
        -11   -1    0    0    0    0  0.00000000000E+00  0.00000000000E+00  0.45593999997E+02  0.45594000000E+02  0.51100000000E-03 0.  1.
         11   -1    0    0    0    0 -0.00000000000E+00 -0.00000000000E+00 -0.45593999997E+02  0.45594000000E+02  0.51100000000E-03 0. -1.
    9900012    2    1    2    0    0 -0.23578521108E+02 -0.32613184817E+02  0.16249824386E+02  0.47787271042E+02  0.19999999989E+02 0.  0.
         12    1    1    2    0    0  0.23578521108E+02  0.32613184817E+02 -0.16249824386E+02  0.43400728958E+02  0.00000000000E+00 0. -1.
         11    1    3    3    0    0 -0.64230849546E+01 -0.28701917913E+01  0.76074240434E+01  0.10361801103E+02  0.51100000000E-03 0. -1.
        -11    1    3    3    0    0 -0.10551067493E+02 -0.85837826848E+01  0.67343321702E+01  0.15177535388E+02  0.51100000000E-03 0.  1.
         12    1    3    3    0    0 -0.66043686602E+01 -0.21159210341E+02  0.19080681722E+01  0.22247934551E+02  0.00000000000E+00 0. -1.
</event>
<event>
 7    1  0.2599124E-010  0.4778727E+02  0.7816164E-02  0.1312668E+00
        -11   -1    0    0    0    0  0.00000000000E+00  0.00000000000E+00  0.45593999997E+02  0.45594000000E+02  0.51100000000E-03 0.  1.
         11   -1    0    0    0    0 -0.00000000000E+00 -0.00000000000E+00 -0.45593999997E+02  0.45594000000E+02  0.51100000000E-03 0. -1.
    9900012    2    1    2    0    0 -0.27148792659E+01 -0.22047001503E+02  0.37285154133E+02  0.47787267709E+02  0.19999984793E+02 0.  0.
         12    1    1    2    0    0  0.27148792659E+01  0.22047001503E+02 -0.37285154133E+02  0.43400732291E+02  0.00000000000E+00 0. -1.
         11    1    3    3    0    0  0.42489266269E+00 -0.47580317104E+01  0.18815168568E+02  0.19412108799E+02  0.51100000000E-03 0. -1.
        -11    1    3    3    0    0  0.36587865368E+01 -0.89123851032E+01  0.13271487048E+02  0.16399685847E+02  0.51100000000E-03 0.  1.
         12    1    3    3    0    0 -0.67985584654E+01 -0.83765846892E+01  0.51984985169E+01  0.11975473063E+02  0.00000000000E+00 0. -1.
</event>
<event>
 7    1  0.2599124E-010  0.4778727E+02  0.7816164E-02  0.1312668E+00
        -11   -1    0    0    0    0  0.00000000000E+00  0.00000000000E+00  0.45593999997E+02  0.45594000000E+02  0.51100000000E-03 0.  1.
         11   -1    0    0    0    0 -0.00000000000E+00 -0.00000000000E+00 -0.45593999997E+02  0.45594000000E+02  0.51100000000E-03 0. -1.
    9900012    2    1    2    0    0 -0.11736540280E+02 -0.22019975054E+02  0.35510532087E+02  0.47787267653E+02  0.19999984539E+02 0.  0.
         12    1    1    2    0    0  0.11736540280E+02  0.22019975054E+02 -0.35510532087E+02  0.43400732347E+02  0.00000000000E+00 0. -1.
         11    1    3    3    0    0 -0.65291656206E+01 -0.44339726858E+01  0.12478535077E+02  0.14764957007E+02  0.51100000000E-03 0. -1.
        -11    1    3    3    0    0 -0.51331597833E+01 -0.13890707130E+02  0.24831089573E+02  0.28911659993E+02  0.51100000000E-03 0.  1.
         12    1    3    3    0    0 -0.74214876005E-01 -0.36952952379E+01 -0.17990925629E+01  0.41106506533E+01  0.00000000000E+00 0. -1.
</event>
<event>
 7    1  0.2599124E-010  0.4778727E+02  0.7816164E-02  0.1312668E+00
        -11   -1    0    0    0    0  0.00000000000E+00  0.00000000000E+00  0.45593999997E+02  0.45594000000E+02  0.51100000000E-03 0.  1.
         11   -1    0    0    0    0 -0.00000000000E+00 -0.00000000000E+00 -0.45593999997E+02  0.45594000000E+02  0.51100000000E-03 0. -1.
    9900012    2    1    2    0    0  0.27687339757E+02  0.26870478431E+02  0.19874911664E+02  0.47787268352E+02  0.19999987723E+02 0.  0.
         12    1    1    2    0    0 -0.27687339757E+02 -0.26870478431E+02 -0.19874911664E+02  0.43400731648E+02  0.00000000000E+00 0. -1.
         11    1    3    3    0    0  0.68737049123E+01  0.25218881276E+01 -0.15579718027E+01  0.74856539694E+01  0.51100000000E-03 0.  1.
        -11    1    3    3    0    0  0.28157567286E+01  0.10607260796E+01  0.67929037852E+01  0.74294796498E+01  0.51100000000E-03 0. -1.
        -12    1    3    3    0    0  0.17997878116E+02  0.23287864224E+02  0.14639979681E+02  0.32872134733E+02  0.00000000000E+00 0.  1.
</event>
<event>
 7    1  0.2599124E-010  0.4778727E+02  0.7816164E-02  0.1312668E+00
        -11   -1    0    0    0    0  0.00000000000E+00  0.00000000000E+00  0.45593999997E+02  0.45594000000E+02  0.51100000000E-03 0.  1.
         11   -1    0    0    0    0 -0.00000000000E+00 -0.00000000000E+00 -0.45593999997E+02  0.45594000000E+02  0.51100000000E-03 0. -1.
    9900012    2    1    2    0    0  0.57565472663E+01  0.32845712933E+02  0.27778488220E+02  0.47787273021E+02  0.20000009012E+02 0.  0.
         12    1    1    2    0    0 -0.57565472663E+01 -0.32845712933E+02 -0.27778488220E+02  0.43400726979E+02  0.00000000000E+00 0. -1.
         11    1    3    3    0    0 -0.20754871793E+01  0.75077477526E+01  0.17615254971E+01  0.79860438070E+01  0.51100000000E-03 0. -1.
        -11    1    3    3    0    0 -0.25904665964E+01  0.15672250669E+02  0.14474628995E+02  0.21490575679E+02  0.51100000000E-03 0.  1.
        -12    1    3    3    0    0  0.10422501042E+02  0.96657145112E+01  0.11542333728E+02  0.18310653535E+02  0.00000000000E+00 0.  1.
</event>
<event>
 7    1  0.2599124E-010  0.4778727E+02  0.7816164E-02  0.1312668E+00
        -11   -1    0    0    0    0  0.00000000000E+00  0.00000000000E+00  0.45593999997E+02  0.45594000000E+02  0.51100000000E-03 0.  1.
         11   -1    0    0    0    0 -0.00000000000E+00 -0.00000000000E+00 -0.45593999997E+02  0.45594000000E+02  0.51100000000E-03 0. -1.
    9900012    2    1    2    0    0  0.30602371278E+02  0.76877062819E+01 -0.29799614146E+02  0.47787274672E+02  0.20000016540E+02 0.  0.
         12    1    1    2    0    0 -0.30602371278E+02 -0.76877062819E+01  0.29799614146E+02  0.43400725328E+02  0.00000000000E+00 0. -1.
         11    1    3    3    0    0  0.12098324577E+02  0.12990988676E+02 -0.13457558841E+02  0.22276470424E+02  0.51100000000E-03 0. -1.
        -11    1    3    3    0    0  0.32005684474E+01 -0.12330725089E+01 -0.12943756460E+01  0.36659943771E+01  0.51100000000E-03 0.  1.
         12    1    3    3    0    0  0.15303478254E+02 -0.40702098848E+01 -0.15047679659E+02  0.21844809871E+02  0.00000000000E+00 0. -1.
</event>
<event>
 7    1  0.2599124E-010  0.4778727E+02  0.7816164E-02  0.1312668E+00
        -11   -1    0    0    0    0  0.00000000000E+00  0.00000000000E+00  0.45593999997E+02  0.45594000000E+02  0.51100000000E-03 0.  1.
         11   -1    0    0    0    0 -0.00000000000E+00 -0.00000000000E+00 -0.45593999997E+02  0.45594000000E+02  0.51100000000E-03 0. -1.
    9900012    2    1    2    0    0 -0.16964821167E+02 -0.33674088811E+02  0.21491249125E+02  0.47787271856E+02  0.20000003701E+02 0.  0.
         12    1    1    2    0    0  0.16964821167E+02  0.33674088811E+02 -0.21491249125E+02  0.43400728144E+02  0.00000000000E+00 0. -1.
         11    1    3    3    0    0 -0.51061251455E+01 -0.38990947399E+00  0.13151806635E+01  0.52871773035E+01  0.51100000000E-03 0. -1.
        -11    1    3    3    0    0 -0.91338887455E+01 -0.14005621821E+02  0.14727482755E+02  0.22281923498E+02  0.51100000000E-03 0.  1.
         12    1    3    3    0    0 -0.27248072757E+01 -0.19278557516E+02  0.54485857060E+01  0.20218171055E+02  0.00000000000E+00 0. -1.
</event>
<event>
 7    1  0.2599124E-010  0.4778727E+02  0.7816164E-02  0.1312668E+00
        -11   -1    0    0    0    0  0.00000000000E+00  0.00000000000E+00  0.45593999997E+02  0.45594000000E+02  0.51100000000E-03 0.  1.
         11   -1    0    0    0    0 -0.00000000000E+00 -0.00000000000E+00 -0.45593999997E+02  0.45594000000E+02  0.51100000000E-03 0. -1.
    9900012    2    1    2    0    0  0.29204119319E+02 -0.30915238820E+02 -0.86597338187E+01  0.47787267676E+02  0.19999984642E+02 0.  0.
         12    1    1    2    0    0 -0.29204119319E+02  0.30915238820E+02  0.86597338187E+01  0.43400732324E+02  0.00000000000E+00 0. -1.
         11    1    3    3    0    0  0.15760461068E+02 -0.17211374069E+02 -0.36968754297E+01  0.23628170023E+02  0.51100000000E-03 0. -1.
        -11    1    3    3    0    0  0.10836830554E+02 -0.78004934028E+01  0.32225964908E+01  0.13735709744E+02  0.51100000000E-03 0.  1.
         12    1    3    3    0    0  0.26068276963E+01 -0.59033713482E+01 -0.81854548798E+01  0.10423387909E+02  0.00000000000E+00 0. -1.
</event>
<event>
 7    1  0.2599124E-010  0.4778728E+02  0.7816164E-02  0.1312668E+00
        -11   -1    0    0    0    0  0.00000000000E+00  0.00000000000E+00  0.45593999997E+02  0.45594000000E+02  0.51100000000E-03 0.  1.
         11   -1    0    0    0    0 -0.00000000000E+00 -0.00000000000E+00 -0.45593999997E+02  0.45594000000E+02  0.51100000000E-03 0. -1.
    9900012    2    1    2    0    0  0.38438986738E+01  0.10141770863E+02  0.42023703549E+02  0.47787277273E+02  0.20000028399E+02 0.  0.
         12    1    1    2    0    0 -0.38438986738E+01 -0.10141770863E+02 -0.42023703549E+02  0.43400722727E+02  0.00000000000E+00 0. -1.
         11    1    3    3    0    0  0.29438606274E+01 -0.10895027329E+01  0.63606342644E+01  0.70930247501E+01  0.51100000000E-03 0.  1.
        -11    1    3    3    0    0  0.10425041934E+01 -0.35074123658E+01  0.14155734908E+02  0.14620998172E+02  0.51100000000E-03 0. -1.
        -12    1    3    3    0    0 -0.14246614702E+00  0.14738685961E+02  0.21507334376E+02  0.26073254351E+02  0.00000000000E+00 0.  1.
</event>
<event>
 7    1  0.2599124E-010  0.4778731E+02  0.7816164E-02  0.1312668E+00
        -11   -1    0    0    0    0  0.00000000000E+00  0.00000000000E+00  0.45593999997E+02  0.45594000000E+02  0.51100000000E-03 0.  1.
         11   -1    0    0    0    0 -0.00000000000E+00 -0.00000000000E+00 -0.45593999997E+02  0.45594000000E+02  0.51100000000E-03 0. -1.
    9900012    2    1    2    0    0 -0.21931769728E+02 -0.14262672372E+02  0.34629373435E+02  0.47787310477E+02  0.20000179788E+02 0.  0.
         12    1    1    2    0    0  0.21931769728E+02  0.14262672372E+02 -0.34629373435E+02  0.43400689523E+02  0.00000000000E+00 0. -1.
         11    1    3    3    0    0 -0.53045723064E+01 -0.20215170440E+01  0.66627818244E+00  0.57156754098E+01  0.51100000000E-03 0. -1.
        -11    1    3    3    0    0  0.22631627306E+01 -0.20431458329E+01  0.67797903545E+01  0.74338353461E+01  0.51100000000E-03 0.  1.
         12    1    3    3    0    0 -0.18890360152E+02 -0.10198009495E+02  0.27183304898E+02  0.34637799721E+02  0.00000000000E+00 0. -1.
</event>
<event>
 7    1  0.2599124E-010  0.4778727E+02  0.7816164E-02  0.1312668E+00
        -11   -1    0    0    0    0  0.00000000000E+00  0.00000000000E+00  0.45593999997E+02  0.45594000000E+02  0.51100000000E-03 0.  1.
         11   -1    0    0    0    0 -0.00000000000E+00 -0.00000000000E+00 -0.45593999997E+02  0.45594000000E+02  0.51100000000E-03 0. -1.
    9900012    2    1    2    0    0 -0.27100097716E+02  0.16676478182E+02  0.29514450639E+02  0.47787274000E+02  0.20000013475E+02 0.  0.
         12    1    1    2    0    0  0.27100097716E+02 -0.16676478182E+02 -0.29514450639E+02  0.43400726000E+02  0.00000000000E+00 0. -1.
         11    1    3    3    0    0 -0.65553552303E+01  0.29484839529E+00  0.11685865154E+02  0.13402203641E+02  0.51100000000E-03 0. -1.
        -11    1    3    3    0    0 -0.12478748572E+02  0.86916086036E+01  0.17570682051E+02  0.23237729968E+02  0.51100000000E-03 0.  1.
         12    1    3    3    0    0 -0.80659939137E+01  0.76900211835E+01  0.25790343441E+00  0.11147340391E+02  0.00000000000E+00 0. -1.
</event>
<event>
 7    1  0.2599124E-010  0.4778727E+02  0.7816164E-02  0.1312668E+00
        -11   -1    0    0    0    0  0.00000000000E+00  0.00000000000E+00  0.45593999997E+02  0.45594000000E+02  0.51100000000E-03 0.  1.
         11   -1    0    0    0    0 -0.00000000000E+00 -0.00000000000E+00 -0.45593999997E+02  0.45594000000E+02  0.51100000000E-03 0. -1.
    9900012    2    1    2    0    0 -0.23543940855E+02 -0.32427529205E+02  0.16666171210E+02  0.47787273460E+02  0.20000011015E+02 0.  0.
         12    1    1    2    0    0  0.23543940855E+02  0.32427529205E+02 -0.16666171210E+02  0.43400726540E+02  0.00000000000E+00 0. -1.
         11    1    3    3    0    0 -0.98979497898E+01 -0.13933628434E+02  0.84861280257E+01  0.19082184899E+02  0.51100000000E-03 0. -1.
        -11    1    3    3    0    0 -0.10552306389E+02 -0.20502964640E+01  0.38892460861E+01  0.11431584365E+02  0.51100000000E-03 0.  1.
         12    1    3    3    0    0 -0.30936846764E+01 -0.16443604307E+02  0.42907970987E+01  0.17273504197E+02  0.00000000000E+00 0. -1.
</event>
<event>
 7    1  0.2599124E-010  0.4778729E+02  0.7816164E-02  0.1312668E+00
        -11   -1    0    0    0    0  0.00000000000E+00  0.00000000000E+00  0.45593999997E+02  0.45594000000E+02  0.51100000000E-03 0. -1.
         11   -1    0    0    0    0 -0.00000000000E+00 -0.00000000000E+00 -0.45593999997E+02  0.45594000000E+02  0.51100000000E-03 0.  1.
    9900012    2    1    2    0    0  0.38988809525E+02 -0.18722884652E+02 -0.35983393573E+01  0.47787288900E+02  0.20000081409E+02 0.  0.
         12    1    1    2    0    0 -0.38988809525E+02  0.18722884652E+02  0.35983393573E+01  0.43400711100E+02  0.00000000000E+00 0. -1.
         11    1    3    3    0    0  0.49402703655E+01 -0.45540910399E+01  0.65524895584E+01  0.93851550950E+01  0.51100000000E-03 0. -1.
        -11    1    3    3    0    0  0.11015481883E+02 -0.28812980637E+01 -0.31503913247E+01  0.11813876815E+02  0.51100000000E-03 0.  1.
         12    1    3    3    0    0  0.23033057277E+02 -0.11287495549E+02 -0.70004375910E+01  0.26588256989E+02  0.00000000000E+00 0. -1.
</event>
<event>
 7    1 -0.2599124E-010  0.4778727E+02  0.7816164E-02  0.1312668E+00
        -11   -1    0    0    0    0  0.00000000000E+00  0.00000000000E+00  0.45593999997E+02  0.45594000000E+02  0.51100000000E-03 0. -1.
         11   -1    0    0    0    0 -0.00000000000E+00 -0.00000000000E+00 -0.45593999997E+02  0.45594000000E+02  0.51100000000E-03 0.  1.
    9900012    2    1    2    0    0  0.74489320873E+01  0.41261252650E+02 -0.11209186177E+02  0.47787269428E+02  0.19999992628E+02 0.  0.
         12    1    1    2    0    0 -0.74489320873E+01 -0.41261252650E+02  0.11209186177E+02  0.43400730572E+02  0.00000000000E+00 0. -1.
         11    1    3    3    0    0  0.46417650214E+00  0.15503496346E+02 -0.11667371335E+01  0.15554264193E+02  0.51100000000E-03 0. -1.
        -11    1    3    3    0    0 -0.38915604778E+01  0.56579312046E+01 -0.58001350355E+01  0.89887705032E+01  0.51100000000E-03 0.  1.
        -12    1    3    3    0    0  0.10876316063E+02  0.20099825099E+02 -0.42423140080E+01  0.23244234731E+02  0.00000000000E+00 0.  1.
</event>
<event>
 7    1  0.2599124E-010  0.4778727E+02  0.7816164E-02  0.1312668E+00
        -11   -1    0    0    0    0  0.00000000000E+00  0.00000000000E+00  0.45593999997E+02  0.45594000000E+02  0.51100000000E-03 0.  1.
         11   -1    0    0    0    0 -0.00000000000E+00 -0.00000000000E+00 -0.45593999997E+02  0.45594000000E+02  0.51100000000E-03 0. -1.
    9900012    2    1    2    0    0  0.30355578137E+02 -0.18082288110E+02  0.25203037127E+02  0.47787270193E+02  0.19999996119E+02 0.  0.
         12    1    1    2    0    0 -0.30355578137E+02  0.18082288110E+02 -0.25203037127E+02  0.43400729807E+02  0.00000000000E+00 0. -1.
         11    1    3    3    0    0 -0.22163204205E+01 -0.22427113162E+01  0.50456071412E+01  0.59497883944E+01  0.51100000000E-03 0. -1.
        -11    1    3    3    0    0  0.57638962052E+01 -0.52515558629E+01  0.34982628293E+01  0.85462963633E+01  0.51100000000E-03 0.  1.
        -12    1    3    3    0    0  0.26808002352E+02 -0.10588020931E+02  0.16659167157E+02  0.33291185436E+02  0.00000000000E+00 0.  1.
</event>
<event>
 7    1  0.2599124E-010  0.4778727E+02  0.7816164E-02  0.1312668E+00
        -11   -1    0    0    0    0  0.00000000000E+00  0.00000000000E+00  0.45593999997E+02  0.45594000000E+02  0.51100000000E-03 0.  1.
         11   -1    0    0    0    0 -0.00000000000E+00 -0.00000000000E+00 -0.45593999997E+02  0.45594000000E+02  0.51100000000E-03 0. -1.
    9900012    2    1    2    0    0  0.32211024429E+01  0.19869692340E+02  0.38450524039E+02  0.47787274505E+02  0.20000015777E+02 0.  0.
         12    1    1    2    0    0 -0.32211024429E+01 -0.19869692340E+02 -0.38450524039E+02  0.43400725495E+02  0.00000000000E+00 0. -1.
         11    1    3    3    0    0  0.30448248635E+00 -0.28419538524E+01  0.26126211531E+01  0.38723637270E+01  0.51100000000E-03 0. -1.
        -11    1    3    3    0    0 -0.10206015702E+01 -0.92617068561E+00  0.14446042502E+01  0.19965724141E+01  0.51100000000E-03 0.  1.
        -12    1    3    3    0    0  0.39372215268E+01  0.23637816878E+02  0.34393298636E+02  0.41918338364E+02  0.00000000000E+00 0.  1.
</event>
<event>
 7    1  0.2599124E-010  0.4778727E+02  0.7816164E-02  0.1312668E+00
        -11   -1    0    0    0    0  0.00000000000E+00  0.00000000000E+00  0.45593999997E+02  0.45594000000E+02  0.51100000000E-03 0.  1.
         11   -1    0    0    0    0 -0.00000000000E+00 -0.00000000000E+00 -0.45593999997E+02  0.45594000000E+02  0.51100000000E-03 0. -1.
    9900012    2    1    2    0    0 -0.44758689651E+01  0.39003607057E+01  0.42992754375E+02  0.47787272524E+02  0.20000006748E+02 0.  0.
         12    1    1    2    0    0  0.44758689651E+01 -0.39003607057E+01 -0.42992754375E+02  0.43400727476E+02  0.00000000000E+00 0. -1.
         11    1    3    3    0    0  0.50228881975E+00 -0.30870106664E+01  0.44694537907E+01  0.54550844505E+01  0.51100000000E-03 0. -1.
        -11    1    3    3    0    0 -0.55661184569E+00  0.26051206381E+01  0.35151721357E+02  0.35252517427E+02  0.51100000000E-03 0.  1.
         12    1    3    3    0    0 -0.44215459391E+01  0.43822507340E+01  0.33715792273E+01  0.70796706472E+01  0.00000000000E+00 0. -1.
</event>
<event>
 7    1  0.2599124E-010  0.4778727E+02  0.7816164E-02  0.1312668E+00
        -11   -1    0    0    0    0  0.00000000000E+00  0.00000000000E+00  0.45593999997E+02  0.45594000000E+02  0.51100000000E-03 0.  1.
         11   -1    0    0    0    0 -0.00000000000E+00 -0.00000000000E+00 -0.45593999997E+02  0.45594000000E+02  0.51100000000E-03 0. -1.
    9900012    2    1    2    0    0  0.96524993257E+01 -0.24817116388E+02  0.34271904397E+02  0.47787269130E+02  0.19999991271E+02 0.  0.
         12    1    1    2    0    0 -0.96524993257E+01  0.24817116388E+02 -0.34271904397E+02  0.43400730870E+02  0.00000000000E+00 0. -1.
         11    1    3    3    0    0 -0.64277946303E+00  0.16649193943E+01  0.41594080899E+01  0.45261239430E+01  0.51100000000E-03 0. -1.
        -11    1    3    3    0    0  0.28267225976E+00 -0.10846275883E+02  0.47877198611E+01  0.11859336653E+02  0.51100000000E-03 0.  1.
        -12    1    3    3    0    0  0.10012606529E+02 -0.15635759900E+02  0.25324776446E+02  0.31401808534E+02  0.00000000000E+00 0.  1.
</event>
<event>
 7    1  0.2599124E-010  0.4778727E+02  0.7816164E-02  0.1312668E+00
        -11   -1    0    0    0    0  0.00000000000E+00  0.00000000000E+00  0.45593999997E+02  0.45594000000E+02  0.51100000000E-03 0.  1.
         11   -1    0    0    0    0 -0.00000000000E+00 -0.00000000000E+00 -0.45593999997E+02  0.45594000000E+02  0.51100000000E-03 0. -1.
    9900012    2    1    2    0    0 -0.42489171441E+02 -0.46222197855E+01  0.75451148480E+01  0.47787270011E+02  0.19999995289E+02 0.  0.
         12    1    1    2    0    0  0.42489171441E+02  0.46222197855E+01 -0.75451148480E+01  0.43400729989E+02  0.00000000000E+00 0. -1.
         11    1    3    3    0    0  0.28990078598E+00  0.12068081786E+01  0.19417414759E+01  0.23045148440E+01  0.51100000000E-03 0. -1.
        -11    1    3    3    0    0 -0.21440040619E+02 -0.69745567664E+01  0.81237746621E+01  0.23964880530E+02  0.51100000000E-03 0.  1.
         12    1    3    3    0    0 -0.21339031609E+02  0.11455288023E+01 -0.25204012900E+01  0.21517874637E+02  0.00000000000E+00 0. -1.
</event>
<event>
 7    1  0.2599124E-010  0.4778727E+02  0.7816164E-02  0.1312668E+00
        -11   -1    0    0    0    0  0.00000000000E+00  0.00000000000E+00  0.45593999997E+02  0.45594000000E+02  0.51100000000E-03 0.  1.
         11   -1    0    0    0    0 -0.00000000000E+00 -0.00000000000E+00 -0.45593999997E+02  0.45594000000E+02  0.51100000000E-03 0. -1.
    9900012    2    1    2    0    0 -0.28834872794E+02 -0.51309091999E+01  0.32028854076E+02  0.47787267153E+02  0.19999982257E+02 0.  0.
         12    1    1    2    0    0  0.28834872794E+02  0.51309091999E+01 -0.32028854076E+02  0.43400732847E+02  0.00000000000E+00 0. -1.
         11    1    3    3    0    0 -0.10625726242E+02 -0.92130513692E+01  0.13906913751E+02  0.19778488922E+02  0.51100000000E-03 0. -1.
        -11    1    3    3    0    0 -0.39733909661E+00  0.33497952618E+01  0.42175193664E+01  0.54005996445E+01  0.51100000000E-03 0.  1.
        -12    1    3    3    0    0 -0.17811807455E+02  0.73234690751E+00  0.13904420958E+02  0.22608178586E+02  0.00000000000E+00 0.  1.
</event>
<event>
 7    1  0.2599124E-010  0.4778726E+02  0.7816164E-02  0.1312668E+00
        -11   -1    0    0    0    0  0.00000000000E+00  0.00000000000E+00  0.45593999997E+02  0.45594000000E+02  0.51100000000E-03 0.  1.
         11   -1    0    0    0    0 -0.00000000000E+00 -0.00000000000E+00 -0.45593999997E+02  0.45594000000E+02  0.51100000000E-03 0. -1.
    9900012    2    1    2    0    0  0.20478757781E+02 -0.92462642631E+01  0.37131538944E+02  0.47787261442E+02  0.19999956218E+02 0.  0.
         12    1    1    2    0    0 -0.20478757781E+02  0.92462642631E+01 -0.37131538944E+02  0.43400738558E+02  0.00000000000E+00 0. -1.
         11    1    3    3    0    0  0.11710652285E+02 -0.64235015796E+01  0.17341461852E+02  0.21888970942E+02  0.51100000000E-03 0. -1.
        -11    1    3    3    0    0  0.65021079036E+01 -0.88205269217E+00  0.72546582493E+00  0.66016456331E+01  0.51100000000E-03 0.  1.
        -12    1    3    3    0    0  0.22659975925E+01 -0.19407099914E+01  0.19064611266E+02  0.19296644866E+02  0.00000000000E+00 0.  1.
</event>
<event>
 7    1  0.2599124E-010  0.4778727E+02  0.7816164E-02  0.1312668E+00
        -11   -1    0    0    0    0  0.00000000000E+00  0.00000000000E+00  0.45593999997E+02  0.45594000000E+02  0.51100000000E-03 0.  1.
         11   -1    0    0    0    0 -0.00000000000E+00 -0.00000000000E+00 -0.45593999997E+02  0.45594000000E+02  0.51100000000E-03 0. -1.
    9900012    2    1    2    0    0  0.27263273958E+02 -0.21292622085E+02  0.26209951318E+02  0.47787269473E+02  0.19999992835E+02 0.  0.
         12    1    1    2    0    0 -0.27263273958E+02  0.21292622085E+02 -0.26209951318E+02  0.43400730527E+02  0.00000000000E+00 0. -1.
         11    1    3    3    0    0 -0.12072189602E+01  0.13080236301E+01  0.16229280074E+01  0.24087754177E+01  0.51100000000E-03 0. -1.
        -11    1    3    3    0    0  0.14970591876E+02 -0.18708062550E+02  0.13670655112E+02  0.27586174743E+02  0.51100000000E-03 0.  1.
         12    1    3    3    0    0  0.13499901042E+02 -0.38925831652E+01  0.10916368199E+02  0.17792319312E+02  0.00000000000E+00 0. -1.
</event>
<event>
 7    1  0.2599124E-010  0.4778727E+02  0.7816164E-02  0.1312668E+00
        -11   -1    0    0    0    0  0.00000000000E+00  0.00000000000E+00  0.45593999997E+02  0.45594000000E+02  0.51100000000E-03 0. -1.
         11   -1    0    0    0    0 -0.00000000000E+00 -0.00000000000E+00 -0.45593999997E+02  0.45594000000E+02  0.51100000000E-03 0.  1.
    9900012    2    1    2    0    0 -0.14779163803E+02 -0.32499379599E+01 -0.40677238822E+02  0.47787268006E+02  0.19999986147E+02 0.  0.
         12    1    1    2    0    0  0.14779163803E+02  0.32499379599E+01  0.40677238822E+02  0.43400731994E+02  0.00000000000E+00 0. -1.
         11    1    3    3    0    0 -0.13663305774E+01  0.63953759799E+01 -0.88505067100E+01  0.11004506461E+02  0.51100000000E-03 0. -1.
        -11    1    3    3    0    0 -0.15436620040E-01  0.95489208774E+00 -0.44792477694E+00  0.10548431426E+01  0.51100000000E-03 0.  1.
        -12    1    3    3    0    0 -0.13397396605E+02 -0.10600206028E+02 -0.31378807335E+02  0.35727918402E+02  0.00000000000E+00 0.  1.
</event>
<event>
 7    1  0.2599124E-010  0.4778727E+02  0.7816164E-02  0.1312668E+00
        -11   -1    0    0    0    0  0.00000000000E+00  0.00000000000E+00  0.45593999997E+02  0.45594000000E+02  0.51100000000E-03 0.  1.
         11   -1    0    0    0    0 -0.00000000000E+00 -0.00000000000E+00 -0.45593999997E+02  0.45594000000E+02  0.51100000000E-03 0. -1.
    9900012    2    1    2    0    0 -0.17019978405E+02 -0.33143376022E+02  0.22258937598E+02  0.47787270259E+02  0.19999996420E+02 0.  0.
         12    1    1    2    0    0  0.17019978405E+02  0.33143376022E+02 -0.22258937598E+02  0.43400729741E+02  0.00000000000E+00 0. -1.
         11    1    3    3    0    0 -0.47832333248E+01 -0.13941469258E+02  0.54795171323E+01  0.15724789168E+02  0.51100000000E-03 0. -1.
        -11    1    3    3    0    0 -0.12458218817E+02 -0.21171682505E+02  0.17260361879E+02  0.30022782160E+02  0.51100000000E-03 0.  1.
         12    1    3    3    0    0  0.22147373650E+00  0.19697757414E+01 -0.48094141328E+00  0.20396989313E+01  0.00000000000E+00 0. -1.
</event>
<event>
 7    1  0.2599124E-010  0.4778729E+02  0.7816164E-02  0.1312668E+00
        -11   -1    0    0    0    0  0.00000000000E+00  0.00000000000E+00  0.45593999997E+02  0.45594000000E+02  0.51100000000E-03 0.  1.
         11   -1    0    0    0    0 -0.00000000000E+00 -0.00000000000E+00 -0.45593999997E+02  0.45594000000E+02  0.51100000000E-03 0. -1.
    9900012    2    1    2    0    0 -0.32730860031E+02 -0.27240349725E+02  0.83830842116E+01  0.47787286268E+02  0.20000069412E+02 0.  0.
         12    1    1    2    0    0  0.32730860031E+02  0.27240349725E+02 -0.83830842116E+01  0.43400713732E+02  0.00000000000E+00 0. -1.
         11    1    3    3    0    0 -0.18570047317E+02 -0.16364832271E+02 -0.27387215783E+01  0.24902911251E+02  0.51100000000E-03 0. -1.
        -11    1    3    3    0    0 -0.28701782267E+01 -0.74995804749E+01  0.29998575743E+01  0.85720928646E+01  0.51100000000E-03 0.  1.
         12    1    3    3    0    0 -0.11290634487E+02 -0.33759369786E+01  0.81219482155E+01  0.14312282153E+02  0.00000000000E+00 0. -1.
</event>
<event>
 7    1  0.2599124E-010  0.4778726E+02  0.7816164E-02  0.1312668E+00
        -11   -1    0    0    0    0  0.00000000000E+00  0.00000000000E+00  0.45593999997E+02  0.45594000000E+02  0.51100000000E-03 0.  1.
         11   -1    0    0    0    0 -0.00000000000E+00 -0.00000000000E+00 -0.45593999997E+02  0.45594000000E+02  0.51100000000E-03 0. -1.
    9900012    2    1    2    0    0  0.10163358252E+02 -0.36137566482E+02  0.21780881585E+02  0.47787258476E+02  0.19999942697E+02 0.  0.
         12    1    1    2    0    0 -0.10163358252E+02  0.36137566482E+02 -0.21780881585E+02  0.43400741524E+02  0.00000000000E+00 0. -1.
         11    1    3    3    0    0  0.31604432272E+01 -0.99713009127E+01 -0.11402506708E+01  0.10522139285E+02  0.51100000000E-03 0. -1.
        -11    1    3    3    0    0 -0.17747516936E+01 -0.12727783770E+02  0.68982966921E+01  0.14585359810E+02  0.51100000000E-03 0.  1.
         12    1    3    3    0    0  0.87776667181E+01 -0.13438481799E+02  0.16022835564E+02  0.22679759381E+02  0.00000000000E+00 0. -1.
</event>
<event>
 7    1  0.2599124E-010  0.4778727E+02  0.7816164E-02  0.1312668E+00
        -11   -1    0    0    0    0  0.00000000000E+00  0.00000000000E+00  0.45593999997E+02  0.45594000000E+02  0.51100000000E-03 0.  1.
         11   -1    0    0    0    0 -0.00000000000E+00 -0.00000000000E+00 -0.45593999997E+02  0.45594000000E+02  0.51100000000E-03 0. -1.
    9900012    2    1    2    0    0 -0.25924275711E+02 -0.23326217405E+02  0.25834921095E+02  0.47787266854E+02  0.19999980896E+02 0.  0.
         12    1    1    2    0    0  0.25924275711E+02  0.23326217405E+02 -0.25834921095E+02  0.43400733146E+02  0.00000000000E+00 0. -1.
         11    1    3    3    0    0  0.24580258893E+01  0.89191425640E-01  0.31879531979E+00  0.24802171477E+01  0.51100000000E-03 0. -1.
        -11    1    3    3    0    0 -0.36006045572E+01 -0.43157536041E+01  0.13692390155E+01  0.57848853136E+01  0.51100000000E-03 0.  1.
        -12    1    3    3    0    0 -0.24781697043E+02 -0.19099655226E+02  0.24146886760E+02  0.39522164393E+02  0.00000000000E+00 0.  1.
</event>
<event>
 7    1  0.2599124E-010  0.4778727E+02  0.7816164E-02  0.1312668E+00
        -11   -1    0    0    0    0  0.00000000000E+00  0.00000000000E+00  0.45593999997E+02  0.45594000000E+02  0.51100000000E-03 0. -1.
         11   -1    0    0    0    0 -0.00000000000E+00 -0.00000000000E+00 -0.45593999997E+02  0.45594000000E+02  0.51100000000E-03 0.  1.
    9900012    2    1    2    0    0 -0.35933534023E+02 -0.24165345820E+02 -0.29052490054E+01  0.47787271000E+02  0.19999999797E+02 0.  0.
         12    1    1    2    0    0  0.35933534023E+02  0.24165345820E+02  0.29052490054E+01  0.43400729000E+02  0.00000000000E+00 0. -1.
         11    1    3    3    0    0 -0.24108143396E+01 -0.36862919776E+01  0.31297017315E+01  0.54033144932E+01  0.51100000000E-03 0. -1.
        -11    1    3    3    0    0 -0.20382573970E+02 -0.20243477618E+02 -0.29012499605E+01  0.28873256819E+02  0.51100000000E-03 0.  1.
        -12    1    3    3    0    0 -0.13140145713E+02 -0.23557622450E+00 -0.31337007764E+01  0.13510699688E+02  0.00000000000E+00 0.  1.
</event>
<event>
 7    1  0.2599124E-010  0.4778726E+02  0.7816164E-02  0.1312668E+00
        -11   -1    0    0    0    0  0.00000000000E+00  0.00000000000E+00  0.45593999997E+02  0.45594000000E+02  0.51100000000E-03 0.  1.
         11   -1    0    0    0    0 -0.00000000000E+00 -0.00000000000E+00 -0.45593999997E+02  0.45594000000E+02  0.51100000000E-03 0. -1.
    9900012    2    1    2    0    0  0.23454433443E+02 -0.35975965988E+02  0.62644547568E+01  0.47787263021E+02  0.19999963418E+02 0.  0.
         12    1    1    2    0    0 -0.23454433443E+02  0.35975965988E+02 -0.62644547568E+01  0.43400736979E+02  0.00000000000E+00 0. -1.
         11    1    3    3    0    0 -0.11929164051E+01 -0.79078545003E+00 -0.24981997548E+01  0.28791306768E+01  0.51100000000E-03 0. -1.
        -11    1    3    3    0    0  0.66090049378E+00 -0.51711021747E+01 -0.90038077896E+00  0.52903471504E+01  0.51100000000E-03 0.  1.
        -12    1    3    3    0    0  0.23986449354E+02 -0.30014078364E+02  0.96630352906E+01  0.39617785194E+02  0.00000000000E+00 0.  1.
</event>
<event>
 7    1  0.2599124E-010  0.4778733E+02  0.7816164E-02  0.1312668E+00
        -11   -1    0    0    0    0  0.00000000000E+00  0.00000000000E+00  0.45593999997E+02  0.45594000000E+02  0.51100000000E-03 0.  1.
         11   -1    0    0    0    0 -0.00000000000E+00 -0.00000000000E+00 -0.45593999997E+02  0.45594000000E+02  0.51100000000E-03 0. -1.
    9900012    2    1    2    0    0  0.17844397590E+02 -0.27690434386E+02  0.28256606341E+02  0.47787326229E+02  0.20000251608E+02 0.  0.
         12    1    1    2    0    0 -0.17844397590E+02  0.27690434386E+02 -0.28256606341E+02  0.43400673771E+02  0.00000000000E+00 0. -1.
         11    1    3    3    0    0 -0.40072305256E+00  0.12262529960E+01 -0.36827638325E+00  0.13416046849E+01  0.51100000000E-03 0. -1.
        -11    1    3    3    0    0  0.10938411874E+02 -0.60518645495E+01  0.11196441215E+02  0.16781961000E+02  0.51100000000E-03 0.  1.
        -12    1    3    3    0    0  0.73067087679E+01 -0.22864822833E+02  0.17428441509E+02  0.29663760544E+02  0.00000000000E+00 0.  1.
</event>
<event>
 7    1  0.2599124E-010  0.4778727E+02  0.7816164E-02  0.1312668E+00
        -11   -1    0    0    0    0  0.00000000000E+00  0.00000000000E+00  0.45593999997E+02  0.45594000000E+02  0.51100000000E-03 0.  1.
         11   -1    0    0    0    0 -0.00000000000E+00 -0.00000000000E+00 -0.45593999997E+02  0.45594000000E+02  0.51100000000E-03 0. -1.
    9900012    2    1    2    0    0  0.75446604730E+01 -0.28519252234E+02  0.31833215157E+02  0.47787271471E+02  0.20000001945E+02 0.  0.
         12    1    1    2    0    0 -0.75446604730E+01  0.28519252234E+02 -0.31833215157E+02  0.43400728529E+02  0.00000000000E+00 0. -1.
         11    1    3    3    0    0 -0.21291045873E+01 -0.36946657382E+01  0.36849503657E+01  0.56358229852E+01  0.51100000000E-03 0. -1.
        -11    1    3    3    0    0 -0.32614028463E+01  0.89465048855E-01  0.23006844564E+01  0.39922301725E+01  0.51100000000E-03 0.  1.
        -12    1    3    3    0    0  0.12935167907E+02 -0.24914051545E+02  0.25847580334E+02  0.38159218313E+02  0.00000000000E+00 0.  1.
</event>
<event>
 7    1  0.2599124E-010  0.4778727E+02  0.7816164E-02  0.1312668E+00
        -11   -1    0    0    0    0  0.00000000000E+00  0.00000000000E+00  0.45593999997E+02  0.45594000000E+02  0.51100000000E-03 0. -1.
         11   -1    0    0    0    0 -0.00000000000E+00 -0.00000000000E+00 -0.45593999997E+02  0.45594000000E+02  0.51100000000E-03 0.  1.
    9900012    2    1    2    0    0 -0.27480593063E+02 -0.23563299593E+02  0.23941831636E+02  0.47787269765E+02  0.19999994168E+02 0.  0.
         12    1    1    2    0    0  0.27480593063E+02  0.23563299593E+02 -0.23941831636E+02  0.43400730235E+02  0.00000000000E+00 0. -1.
         11    1    3    3    0    0 -0.14547628378E+01 -0.49960685565E+01  0.44318843422E+01  0.68351031462E+01  0.51100000000E-03 0. -1.
        -11    1    3    3    0    0 -0.14128230661E+02 -0.19125208899E+02  0.15504235650E+02  0.28385944416E+02  0.51100000000E-03 0.  1.
         12    1    3    3    0    0 -0.11897599564E+02  0.55797786244E+00  0.40057116446E+01  0.12566222203E+02  0.00000000000E+00 0. -1.
</event>
<event>
 7    1  0.2599124E-010  0.4778731E+02  0.7816164E-02  0.1312668E+00
        -11   -1    0    0    0    0  0.00000000000E+00  0.00000000000E+00  0.45593999997E+02  0.45594000000E+02  0.51100000000E-03 0.  1.
         11   -1    0    0    0    0 -0.00000000000E+00 -0.00000000000E+00 -0.45593999997E+02  0.45594000000E+02  0.51100000000E-03 0. -1.
    9900012    2    1    2    0    0  0.76575228126E+00 -0.34512329421E+02  0.26304613929E+02  0.47787309077E+02  0.20000173404E+02 0.  0.
         12    1    1    2    0    0 -0.76575228126E+00  0.34512329421E+02 -0.26304613929E+02  0.43400690923E+02  0.00000000000E+00 0. -1.
         11    1    3    3    0    0 -0.27259886297E+01 -0.42056545797E+01  0.16797331354E+01  0.52858346664E+01  0.51100000000E-03 0. -1.
        -11    1    3    3    0    0 -0.40828833983E+01 -0.26923397950E+01  0.24930442815E+00  0.48970178042E+01  0.51100000000E-03 0.  1.
        -12    1    3    3    0    0  0.75746243092E+01 -0.27614335046E+02  0.24375576366E+02  0.37604456606E+02  0.00000000000E+00 0.  1.
</event>
<event>
 7    1  0.2599124E-010  0.4778727E+02  0.7816164E-02  0.1312668E+00
        -11   -1    0    0    0    0  0.00000000000E+00  0.00000000000E+00  0.45593999997E+02  0.45594000000E+02  0.51100000000E-03 0.  1.
         11   -1    0    0    0    0 -0.00000000000E+00 -0.00000000000E+00 -0.45593999997E+02  0.45594000000E+02  0.51100000000E-03 0. -1.
    9900012    2    1    2    0    0  0.19363030643E+02  0.34044450078E+02  0.18699512415E+02  0.47787270728E+02  0.19999998558E+02 0.  0.
         12    1    1    2    0    0 -0.19363030643E+02 -0.34044450078E+02 -0.18699512415E+02  0.43400729272E+02  0.00000000000E+00 0. -1.
         11    1    3    3    0    0 -0.23678721139E+00  0.11864677235E+01  0.22969471367E+01  0.25961009711E+01  0.51100000000E-03 0. -1.
        -11    1    3    3    0    0  0.13291815178E+02  0.29422032388E+02  0.64595980450E+01  0.32924986678E+02  0.51100000000E-03 0.  1.
        -12    1    3    3    0    0  0.63080026765E+01  0.34359499659E+01  0.99429672328E+01  0.12266183079E+02  0.00000000000E+00 0.  1.
</event>
<event>
 7    1  0.2599124E-010  0.4778727E+02  0.7816164E-02  0.1312668E+00
        -11   -1    0    0    0    0  0.00000000000E+00  0.00000000000E+00  0.45593999997E+02  0.45594000000E+02  0.51100000000E-03 0.  1.
         11   -1    0    0    0    0 -0.00000000000E+00 -0.00000000000E+00 -0.45593999997E+02  0.45594000000E+02  0.51100000000E-03 0. -1.
    9900012    2    1    2    0    0  0.12866623349E+02  0.22041252520E+02  0.35103507690E+02  0.47787273495E+02  0.20000011172E+02 0.  0.
         12    1    1    2    0    0 -0.12866623349E+02 -0.22041252520E+02 -0.35103507690E+02  0.43400726505E+02  0.00000000000E+00 0. -1.
         11    1    3    3    0    0  0.19221674399E+01  0.63613497966E+01 -0.77301742396E+00  0.66902208559E+01  0.51100000000E-03 0. -1.
        -11    1    3    3    0    0  0.22281806461E+01  0.85619516491E+00  0.79498800177E+01  0.83005091235E+01  0.51100000000E-03 0.  1.
        -12    1    3    3    0    0  0.87162752629E+01  0.14823707558E+02  0.27926645096E+02  0.32796543515E+02  0.00000000000E+00 0.  1.
</event>
<event>
 7    1  0.2599124E-010  0.4778728E+02  0.7816164E-02  0.1312668E+00
        -11   -1    0    0    0    0  0.00000000000E+00  0.00000000000E+00  0.45593999997E+02  0.45594000000E+02  0.51100000000E-03 0. -1.
         11   -1    0    0    0    0 -0.00000000000E+00 -0.00000000000E+00 -0.45593999997E+02  0.45594000000E+02  0.51100000000E-03 0.  1.
    9900012    2    1    2    0    0 -0.40882710515E+02 -0.14567606833E+02 -0.10528867818E+00  0.47787282568E+02  0.20000052542E+02 0.  0.
         12    1    1    2    0    0  0.40882710515E+02  0.14567606833E+02  0.10528867818E+00  0.43400717432E+02  0.00000000000E+00 0. -1.
         11    1    3    3    0    0 -0.25913335631E+02 -0.87692365675E+01 -0.52500410509E+01  0.27856119701E+02  0.51100000000E-03 0. -1.
        -11    1    3    3    0    0 -0.15499283518E+02 -0.73358113310E+01  0.32828324099E+01  0.17459063731E+02  0.51100000000E-03 0.  1.
         12    1    3    3    0    0  0.52990863476E+00  0.15374410657E+01  0.18619199628E+01  0.24720991363E+01  0.00000000000E+00 0. -1.
</event>
<event>
 7    1  0.2599124E-010  0.4778724E+02  0.7816164E-02  0.1312668E+00
        -11   -1    0    0    0    0  0.00000000000E+00  0.00000000000E+00  0.45593999997E+02  0.45594000000E+02  0.51100000000E-03 0.  1.
         11   -1    0    0    0    0 -0.00000000000E+00 -0.00000000000E+00 -0.45593999997E+02  0.45594000000E+02  0.51100000000E-03 0. -1.
    9900012    2    1    2    0    0 -0.27532907346E+02 -0.61673369260E+01  0.32977706899E+02  0.47787237518E+02  0.19999847141E+02 0.  0.
         12    1    1    2    0    0  0.27532907346E+02  0.61673369260E+01 -0.32977706899E+02  0.43400762482E+02  0.00000000000E+00 0. -1.
         11    1    3    3    0    0 -0.14082260189E+01 -0.36066419511E+01  0.58903316689E+01  0.70488987873E+01  0.51100000000E-03 0.  1.
        -11    1    3    3    0    0 -0.10947716089E+02  0.43638966655E+01  0.18604852352E+02  0.22023546785E+02  0.51100000000E-03 0. -1.
         12    1    3    3    0    0 -0.15176965238E+02 -0.69245916404E+01  0.84825228774E+01  0.18714791946E+02  0.00000000000E+00 0. -1.
</event>
<event>
 7    1  0.2599124E-010  0.4778730E+02  0.7816164E-02  0.1312668E+00
        -11   -1    0    0    0    0  0.00000000000E+00  0.00000000000E+00  0.45593999997E+02  0.45594000000E+02  0.51100000000E-03 0.  1.
         11   -1    0    0    0    0 -0.00000000000E+00 -0.00000000000E+00 -0.45593999997E+02  0.45594000000E+02  0.51100000000E-03 0. -1.
    9900012    2    1    2    0    0  0.37407108545E+02 -0.12004512756E+02  0.18445078855E+02  0.47787296893E+02  0.20000117853E+02 0.  0.
         12    1    1    2    0    0 -0.37407108545E+02  0.12004512756E+02 -0.18445078855E+02  0.43400703107E+02  0.00000000000E+00 0. -1.
         11    1    3    3    0    0  0.13945813879E+00  0.12620293726E+01  0.31036160285E+01  0.33532967992E+01  0.51100000000E-03 0. -1.
        -11    1    3    3    0    0  0.50918983297E+01  0.13519940943E+01 -0.12157757184E+01  0.54067945669E+01  0.51100000000E-03 0.  1.
        -12    1    3    3    0    0  0.32175752077E+02 -0.14618536223E+02  0.16557238545E+02  0.39027205527E+02  0.00000000000E+00 0.  1.
</event>
<event>
 7    1  0.2599124E-010  0.4778727E+02  0.7816164E-02  0.1312668E+00
        -11   -1    0    0    0    0  0.00000000000E+00  0.00000000000E+00  0.45593999997E+02  0.45594000000E+02  0.51100000000E-03 0. -1.
         11   -1    0    0    0    0 -0.00000000000E+00 -0.00000000000E+00 -0.45593999997E+02  0.45594000000E+02  0.51100000000E-03 0.  1.
    9900012    2    1    2    0    0 -0.11952250047E+01 -0.26595043957E+02 -0.34276787248E+02  0.47787273394E+02  0.20000010711E+02 0.  0.
         12    1    1    2    0    0  0.11952250047E+01  0.26595043957E+02  0.34276787248E+02  0.43400726606E+02  0.00000000000E+00 0. -1.
         11    1    3    3    0    0  0.54331374028E+01 -0.18517811982E+02 -0.14967268240E+02  0.24422273880E+02  0.51100000000E-03 0. -1.
        -11    1    3    3    0    0 -0.35832197014E+01 -0.78926883266E+01 -0.85265709789E+01  0.12158799504E+02  0.51100000000E-03 0.  1.
         12    1    3    3    0    0 -0.30451427060E+01 -0.18454364854E+00 -0.10782948030E+02  0.11206200010E+02  0.00000000000E+00 0. -1.
</event>
<event>
 7    1  0.2599124E-010  0.4778727E+02  0.7816164E-02  0.1312668E+00
        -11   -1    0    0    0    0  0.00000000000E+00  0.00000000000E+00  0.45593999997E+02  0.45594000000E+02  0.51100000000E-03 0.  1.
         11   -1    0    0    0    0 -0.00000000000E+00 -0.00000000000E+00 -0.45593999997E+02  0.45594000000E+02  0.51100000000E-03 0. -1.
    9900012    2    1    2    0    0 -0.21835425270E+02  0.10939309849E+02  0.35877133653E+02  0.47787274017E+02  0.20000013552E+02 0.  0.
         12    1    1    2    0    0  0.21835425270E+02 -0.10939309849E+02 -0.35877133653E+02  0.43400725983E+02  0.00000000000E+00 0. -1.
         11    1    3    3    0    0 -0.82379777127E+01 -0.36879140050E-01  0.11218044496E+02  0.13917979718E+02  0.51100000000E-03 0. -1.
        -11    1    3    3    0    0 -0.54553980818E+01 -0.35709508441E+01  0.76759982373E+01  0.10071445148E+02  0.51100000000E-03 0.  1.
        -12    1    3    3    0    0 -0.81420494754E+01  0.14547139834E+02  0.16983090920E+02  0.23797849151E+02  0.00000000000E+00 0.  1.
</event>
<event>
 7    1  0.2599124E-010  0.4778728E+02  0.7816164E-02  0.1312668E+00
        -11   -1    0    0    0    0  0.00000000000E+00  0.00000000000E+00  0.45593999997E+02  0.45594000000E+02  0.51100000000E-03 0.  1.
         11   -1    0    0    0    0 -0.00000000000E+00 -0.00000000000E+00 -0.45593999997E+02  0.45594000000E+02  0.51100000000E-03 0. -1.
    9900012    2    1    2    0    0 -0.16705574765E+02 -0.41103758517E+01  0.39845344845E+02  0.47787275079E+02  0.20000018396E+02 0.  0.
         12    1    1    2    0    0  0.16705574765E+02  0.41103758517E+01 -0.39845344845E+02  0.43400724921E+02  0.00000000000E+00 0. -1.
         11    1    3    3    0    0 -0.53556321711E+01  0.25901864497E+01  0.27778997100E+01  0.65657131263E+01  0.51100000000E-03 0. -1.
        -11    1    3    3    0    0 -0.54298690288E+01  0.23397345280E+01  0.64344582839E+01  0.87384260024E+01  0.51100000000E-03 0.  1.
        -12    1    3    3    0    0 -0.59200735655E+01 -0.90402968294E+01  0.30632986851E+02  0.32483135950E+02  0.00000000000E+00 0.  1.
</event>
<event>
 7    1  0.2599124E-010  0.4778727E+02  0.7816164E-02  0.1312668E+00
        -11   -1    0    0    0    0  0.00000000000E+00  0.00000000000E+00  0.45593999997E+02  0.45594000000E+02  0.51100000000E-03 0. -1.
         11   -1    0    0    0    0 -0.00000000000E+00 -0.00000000000E+00 -0.45593999997E+02  0.45594000000E+02  0.51100000000E-03 0.  1.
    9900012    2    1    2    0    0 -0.13806159656E+02  0.40825892958E+02 -0.51244206376E+01  0.47787271122E+02  0.20000000354E+02 0.  0.
         12    1    1    2    0    0  0.13806159656E+02 -0.40825892958E+02  0.51244206376E+01  0.43400728878E+02  0.00000000000E+00 0. -1.
         11    1    3    3    0    0  0.18603607284E+00  0.73279973986E+01  0.22462869178E+01  0.76668090150E+01  0.51100000000E-03 0. -1.
        -11    1    3    3    0    0 -0.81513363625E+01  0.32254752873E+02 -0.47777305280E+01  0.33610118665E+02  0.51100000000E-03 0.  1.
         12    1    3    3    0    0 -0.58408593660E+01  0.12431426865E+01 -0.25929770274E+01  0.65103434423E+01  0.00000000000E+00 0. -1.
</event>
<event>
 7    1  0.2599124E-010  0.4778727E+02  0.7816164E-02  0.1312668E+00
        -11   -1    0    0    0    0  0.00000000000E+00  0.00000000000E+00  0.45593999997E+02  0.45594000000E+02  0.51100000000E-03 0.  1.
         11   -1    0    0    0    0 -0.00000000000E+00 -0.00000000000E+00 -0.45593999997E+02  0.45594000000E+02  0.51100000000E-03 0. -1.
    9900012    2    1    2    0    0  0.23183529439E+02  0.35669472515E+02  0.85927820340E+01  0.47787271783E+02  0.20000003366E+02 0.  0.
         12    1    1    2    0    0 -0.23183529439E+02 -0.35669472515E+02 -0.85927820340E+01  0.43400728217E+02  0.00000000000E+00 0. -1.
         11    1    3    3    0    0  0.60362639855E+01  0.88660640516E+01  0.58068122773E+01  0.12196829250E+02  0.51100000000E-03 0. -1.
        -11    1    3    3    0    0  0.37059267694E+01  0.13755097414E+01  0.54197685949E+01  0.67081899311E+01  0.51100000000E-03 0.  1.
         12    1    3    3    0    0  0.13441338684E+02  0.25427898722E+02 -0.26337988382E+01  0.28882252601E+02  0.00000000000E+00 0. -1.
</event>
<event>
 7    1  0.2599124E-010  0.4778727E+02  0.7816164E-02  0.1312668E+00
        -11   -1    0    0    0    0  0.00000000000E+00  0.00000000000E+00  0.45593999997E+02  0.45594000000E+02  0.51100000000E-03 0.  1.
         11   -1    0    0    0    0 -0.00000000000E+00 -0.00000000000E+00 -0.45593999997E+02  0.45594000000E+02  0.51100000000E-03 0. -1.
    9900012    2    1    2    0    0 -0.11814698815E+02  0.13024362565E+02  0.39678736621E+02  0.47787271110E+02  0.20000000300E+02 0.  0.
         12    1    1    2    0    0  0.11814698815E+02 -0.13024362565E+02 -0.39678736621E+02  0.43400728890E+02  0.00000000000E+00 0. -1.
         11    1    3    3    0    0 -0.46460630738E+01 -0.24402737632E+01  0.73343660497E+01  0.90185233679E+01  0.51100000000E-03 0. -1.
        -11    1    3    3    0    0 -0.45365564242E+01  0.23492333418E+01  0.19735497560E+02  0.20386002690E+02  0.51100000000E-03 0.  1.
        -12    1    3    3    0    0 -0.26320793172E+01  0.13115402986E+02  0.12608873011E+02  0.18382745052E+02  0.00000000000E+00 0.  1.
</event>
<event>
 7    1  0.2599124E-010  0.4778727E+02  0.7816164E-02  0.1312668E+00
        -11   -1    0    0    0    0  0.00000000000E+00  0.00000000000E+00  0.45593999997E+02  0.45594000000E+02  0.51100000000E-03 0.  1.
         11   -1    0    0    0    0 -0.00000000000E+00 -0.00000000000E+00 -0.45593999997E+02  0.45594000000E+02  0.51100000000E-03 0. -1.
    9900012    2    1    2    0    0  0.18418570238E+02  0.35356768179E+02 -0.17154560786E+02  0.47787265658E+02  0.19999975440E+02 0.  0.
         12    1    1    2    0    0 -0.18418570238E+02 -0.35356768179E+02  0.17154560786E+02  0.43400734342E+02  0.00000000000E+00 0. -1.
         11    1    3    3    0    0  0.34797132266E+01  0.12725702127E+01  0.16137938899E+01  0.40413079647E+01  0.51100000000E-03 0. -1.
        -11    1    3    3    0    0  0.22768107735E+01  0.76107835563E+00  0.14093908344E+01  0.27837906435E+01  0.51100000000E-03 0.  1.
         12    1    3    3    0    0  0.12662046238E+02  0.33323119611E+02 -0.20177745510E+02  0.40962167050E+02  0.00000000000E+00 0. -1.
</event>
<event>
 7    1  0.2599124E-010  0.4778727E+02  0.7816164E-02  0.1312668E+00
        -11   -1    0    0    0    0  0.00000000000E+00  0.00000000000E+00  0.45593999997E+02  0.45594000000E+02  0.51100000000E-03 0.  1.
         11   -1    0    0    0    0 -0.00000000000E+00 -0.00000000000E+00 -0.45593999997E+02  0.45594000000E+02  0.51100000000E-03 0. -1.
    9900012    2    1    2    0    0 -0.26246141262E+02  0.21063253088E+02  0.27406255135E+02  0.47787269795E+02  0.19999994305E+02 0.  0.
         12    1    1    2    0    0  0.26246141262E+02 -0.21063253088E+02 -0.27406255135E+02  0.43400730205E+02  0.00000000000E+00 0. -1.
         11    1    3    3    0    0 -0.85238109760E+01 -0.29905882760E+00  0.10428268995E+02  0.13471955472E+02  0.51100000000E-03 0. -1.
        -11    1    3    3    0    0 -0.41020683089E+01  0.64591744414E+01  0.10734552393E+02  0.13182507888E+02  0.51100000000E-03 0.  1.
         12    1    3    3    0    0 -0.13620261977E+02  0.14903137474E+02  0.62434337467E+01  0.21132806436E+02  0.00000000000E+00 0. -1.
</event>
<event>
 7    1  0.2599124E-010  0.4778729E+02  0.7816164E-02  0.1312668E+00
        -11   -1    0    0    0    0  0.00000000000E+00  0.00000000000E+00  0.45593999997E+02  0.45594000000E+02  0.51100000000E-03 0.  1.
         11   -1    0    0    0    0 -0.00000000000E+00 -0.00000000000E+00 -0.45593999997E+02  0.45594000000E+02  0.51100000000E-03 0. -1.
    9900012    2    1    2    0    0 -0.23025282404E+02  0.32438395566E+02  0.17355366762E+02  0.47787286963E+02  0.20000072581E+02 0.  0.
         12    1    1    2    0    0  0.23025282404E+02 -0.32438395566E+02 -0.17355366762E+02  0.43400713037E+02  0.00000000000E+00 0. -1.
         11    1    3    3    0    0 -0.50964457555E+01  0.17181854446E+02  0.66038481347E+01  0.19099756333E+02  0.51100000000E-03 0. -1.
        -11    1    3    3    0    0 -0.69968692524E+01  0.10846213742E+02  0.26469781070E+00  0.12909941792E+02  0.51100000000E-03 0.  1.
         12    1    3    3    0    0 -0.10931967396E+02  0.44103273781E+01  0.10486820817E+02  0.15777588839E+02  0.00000000000E+00 0. -1.
</event>
<event>
 7    1  0.2678129E-010  0.4778727E+02  0.7816164E-02  0.1312668E+00
        -11   -1    0    0    0    0  0.00000000000E+00  0.00000000000E+00  0.45593999997E+02  0.45594000000E+02  0.51100000000E-03 0.  1.
         11   -1    0    0    0    0 -0.00000000000E+00 -0.00000000000E+00 -0.45593999997E+02  0.45594000000E+02  0.51100000000E-03 0. -1.
    9900012    2    1    2    0    0  0.19002606196E+02  0.38779944505E+02  0.43174171816E+01  0.47787271559E+02  0.20000002348E+02 0.  0.
         12    1    1    2    0    0 -0.19002606196E+02 -0.38779944505E+02 -0.43174171816E+01  0.43400728441E+02  0.00000000000E+00 0. -1.
         11    1    3    3    0    0  0.69562955265E+01  0.30231612988E+01 -0.14470642201E+00  0.75862040508E+01  0.51100000000E-03 0. -1.
        -11    1    3    3    0    0 -0.56710467906E+00  0.55306386202E+01 -0.34018520014E+01  0.65178346531E+01  0.51100000000E-03 0.  1.
        -12    1    3    3    0    0  0.12613415348E+02  0.30226144586E+02  0.78639756050E+01  0.33683232856E+02  0.00000000000E+00 0.  1.
</event>
<event>
 7    1  0.2599124E-010  0.4778726E+02  0.7816164E-02  0.1312668E+00
        -11   -1    0    0    0    0  0.00000000000E+00  0.00000000000E+00  0.45593999997E+02  0.45594000000E+02  0.51100000000E-03 0.  1.
         11   -1    0    0    0    0 -0.00000000000E+00 -0.00000000000E+00 -0.45593999997E+02  0.45594000000E+02  0.51100000000E-03 0. -1.
    9900012    2    1    2    0    0  0.21190630561E+02  0.36491712076E+02  0.10145735684E+02  0.47787264679E+02  0.19999970977E+02 0.  0.
         12    1    1    2    0    0 -0.21190630561E+02 -0.36491712076E+02 -0.10145735684E+02  0.43400735321E+02  0.00000000000E+00 0. -1.
         11    1    3    3    0    0  0.62045980064E+01  0.51862937741E+01  0.13238187121E+01  0.81943380316E+01  0.51100000000E-03 0. -1.
        -11    1    3    3    0    0  0.95399339412E+01  0.61144047223E+01  0.78816677382E+01  0.13802788534E+02  0.51100000000E-03 0.  1.
         12    1    3    3    0    0  0.54460986133E+01  0.25191013580E+02  0.94024923407E+00  0.25790138114E+02  0.00000000000E+00 0. -1.
</event>
<event>
 7    1  0.2599124E-010  0.4778727E+02  0.7816164E-02  0.1312668E+00
        -11   -1    0    0    0    0  0.00000000000E+00  0.00000000000E+00  0.45593999997E+02  0.45594000000E+02  0.51100000000E-03 0.  1.
         11   -1    0    0    0    0 -0.00000000000E+00 -0.00000000000E+00 -0.45593999997E+02  0.45594000000E+02  0.51100000000E-03 0. -1.
    9900012    2    1    2    0    0  0.30017144560E+02 -0.25851833407E+02  0.17727869532E+02  0.47787267101E+02  0.19999982020E+02 0.  0.
         12    1    1    2    0    0 -0.30017144560E+02  0.25851833407E+02 -0.17727869532E+02  0.43400732899E+02  0.00000000000E+00 0. -1.
         11    1    3    3    0    0  0.86620204212E+00  0.10072431883E+01 -0.13980256288E+01  0.19285540537E+01  0.51100000000E-03 0. -1.
        -11    1    3    3    0    0  0.77143009612E+01 -0.15673533980E+02  0.89030403005E+01  0.19606994507E+02  0.51100000000E-03 0.  1.
         12    1    3    3    0    0  0.21436641556E+02 -0.11185542616E+02  0.10222854860E+02  0.26251718540E+02  0.00000000000E+00 0. -1.
</event>
<event>
 7    1  0.2599124E-010  0.4778727E+02  0.7816164E-02  0.1312668E+00
        -11   -1    0    0    0    0  0.00000000000E+00  0.00000000000E+00  0.45593999997E+02  0.45594000000E+02  0.51100000000E-03 0.  1.
         11   -1    0    0    0    0 -0.00000000000E+00 -0.00000000000E+00 -0.45593999997E+02  0.45594000000E+02  0.51100000000E-03 0. -1.
    9900012    2    1    2    0    0  0.43363759897E+02 -0.75251405784E+00  0.16251792725E+01  0.47787272386E+02  0.20000006116E+02 0.  0.
         12    1    1    2    0    0 -0.43363759897E+02  0.75251405784E+00 -0.16251792725E+01  0.43400727614E+02  0.00000000000E+00 0. -1.
         11    1    3    3    0    0  0.25434411144E+02  0.29831998460E+01 -0.44813181475E+01  0.25997903073E+02  0.51100000000E-03 0.  1.
        -11    1    3    3    0    0  0.10769176789E+02 -0.22274893145E+01 -0.16566664971E+01  0.11121214929E+02  0.51100000000E-03 0. -1.
        -12    1    3    3    0    0  0.71601719637E+01 -0.15082245893E+01  0.77631639171E+01  0.10668154384E+02  0.00000000000E+00 0.  1.
</event>
<event>
 7    1  0.2599124E-010  0.4778726E+02  0.7816164E-02  0.1312668E+00
        -11   -1    0    0    0    0  0.00000000000E+00  0.00000000000E+00  0.45593999997E+02  0.45594000000E+02  0.51100000000E-03 0.  1.
         11   -1    0    0    0    0 -0.00000000000E+00 -0.00000000000E+00 -0.45593999997E+02  0.45594000000E+02  0.51100000000E-03 0. -1.
    9900012    2    1    2    0    0 -0.61025506926E+01  0.39646719127E+02  0.16568658143E+02  0.47787263887E+02  0.19999967365E+02 0.  0.
         12    1    1    2    0    0  0.61025506926E+01 -0.39646719127E+02 -0.16568658143E+02  0.43400736113E+02  0.00000000000E+00 0. -1.
         11    1    3    3    0    0 -0.12207461029E+01  0.13092449052E+02 -0.18044342270E+00  0.13150475403E+02  0.51100000000E-03 0. -1.
        -11    1    3    3    0    0  0.25138471896E+01  0.20334896316E+02  0.96631156691E+01  0.22653989507E+02  0.51100000000E-03 0.  1.
        -12    1    3    3    0    0 -0.73956517792E+01  0.62193737592E+01  0.70859858970E+01  0.11982798977E+02  0.00000000000E+00 0.  1.
</event>
<event>
 7    1  0.2599124E-010  0.4778726E+02  0.7816164E-02  0.1312668E+00
        -11   -1    0    0    0    0  0.00000000000E+00  0.00000000000E+00  0.45593999997E+02  0.45594000000E+02  0.51100000000E-03 0.  1.
         11   -1    0    0    0    0 -0.00000000000E+00 -0.00000000000E+00 -0.45593999997E+02  0.45594000000E+02  0.51100000000E-03 0. -1.
    9900012    2    1    2    0    0 -0.29974309631E+02 -0.29844195707E+02  0.97205285903E+01  0.47787263470E+02  0.19999965464E+02 0.  0.
         12    1    1    2    0    0  0.29974309631E+02  0.29844195707E+02 -0.97205285903E+01  0.43400736530E+02  0.00000000000E+00 0. -1.
         11    1    3    3    0    0 -0.14933937207E+02 -0.24359468316E+01  0.12475773149E+01  0.15182646900E+02  0.51100000000E-03 0. -1.
        -11    1    3    3    0    0 -0.19099934660E+01 -0.14917579940E+01  0.85053259844E+00  0.25684281019E+01  0.51100000000E-03 0.  1.
        -12    1    3    3    0    0 -0.13130378959E+02 -0.25916490882E+02  0.76224186770E+01  0.30036188468E+02  0.00000000000E+00 0.  1.
</event>
<event>
 7    1  0.2599124E-010  0.4778727E+02  0.7816164E-02  0.1312668E+00
        -11   -1    0    0    0    0  0.00000000000E+00  0.00000000000E+00  0.45593999997E+02  0.45594000000E+02  0.51100000000E-03 0.  1.
         11   -1    0    0    0    0 -0.00000000000E+00 -0.00000000000E+00 -0.45593999997E+02  0.45594000000E+02  0.51100000000E-03 0. -1.
    9900012    2    1    2    0    0  0.41103649233E+02 -0.12571101674E+02  0.60067040362E+01  0.47787273382E+02  0.20000010658E+02 0.  0.
         12    1    1    2    0    0 -0.41103649233E+02  0.12571101674E+02 -0.60067040362E+01  0.43400726618E+02  0.00000000000E+00 0. -1.
         11    1    3    3    0    0  0.62885671267E+01 -0.52152894239E+01 -0.16670819930E+01  0.83381342586E+01  0.51100000000E-03 0.  1.
        -11    1    3    3    0    0  0.90382027927E+01 -0.66777716475E+01 -0.28583785103E+01  0.11595346992E+02  0.51100000000E-03 0. -1.
        -12    1    3    3    0    0  0.25776879314E+02 -0.67804060265E+00  0.10532164539E+02  0.27853792131E+02  0.00000000000E+00 0.  1.
</event>
<event>
 7    1  0.2599124E-010  0.4778727E+02  0.7816164E-02  0.1312668E+00
        -11   -1    0    0    0    0  0.00000000000E+00  0.00000000000E+00  0.45593999997E+02  0.45594000000E+02  0.51100000000E-03 0.  1.
         11   -1    0    0    0    0 -0.00000000000E+00 -0.00000000000E+00 -0.45593999997E+02  0.45594000000E+02  0.51100000000E-03 0. -1.
    9900012    2    1    2    0    0 -0.17059750370E+02  0.26368071504E+02  0.29955185482E+02  0.47787269421E+02  0.19999992600E+02 0.  0.
         12    1    1    2    0    0  0.17059750370E+02 -0.26368071504E+02 -0.29955185482E+02  0.43400730579E+02  0.00000000000E+00 0. -1.
         11    1    3    3    0    0 -0.41012629018E+00  0.10284163586E+02  0.12978124697E+02  0.16563935074E+02  0.51100000000E-03 0. -1.
        -11    1    3    3    0    0 -0.13955676761E+02  0.16205236964E+02  0.18365912437E+02  0.28190022327E+02  0.51100000000E-03 0.  1.
         12    1    3    3    0    0 -0.26939473192E+01 -0.12132904649E+00 -0.13888516522E+01  0.30333120196E+01  0.00000000000E+00 0. -1.
</event>
<event>
 7    1  0.2599124E-010  0.4778727E+02  0.7816164E-02  0.1312668E+00
        -11   -1    0    0    0    0  0.00000000000E+00  0.00000000000E+00  0.45593999997E+02  0.45594000000E+02  0.51100000000E-03 0.  1.
         11   -1    0    0    0    0 -0.00000000000E+00 -0.00000000000E+00 -0.45593999997E+02  0.45594000000E+02  0.51100000000E-03 0. -1.
    9900012    2    1    2    0    0  0.28355775403E+02 -0.76867069649E+01  0.31945081805E+02  0.47787265972E+02  0.19999976872E+02 0.  0.
         12    1    1    2    0    0 -0.28355775403E+02  0.76867069649E+01 -0.31945081805E+02  0.43400734028E+02  0.00000000000E+00 0. -1.
         11    1    3    3    0    0  0.26094412730E+01  0.32805448867E+01  0.60512868286E+01  0.73613335106E+01  0.51100000000E-03 0. -1.
        -11    1    3    3    0    0  0.59560508631E+01  0.28555387052E+01  0.80170500303E+01  0.10387575975E+02  0.51100000000E-03 0.  1.
         12    1    3    3    0    0  0.19790283267E+02 -0.13822790557E+02  0.17876744946E+02  0.30038356487E+02  0.00000000000E+00 0. -1.
</event>
<event>
 7    1  0.2599124E-010  0.4778727E+02  0.7816164E-02  0.1312668E+00
        -11   -1    0    0    0    0  0.00000000000E+00  0.00000000000E+00  0.45593999997E+02  0.45594000000E+02  0.51100000000E-03 0.  1.
         11   -1    0    0    0    0 -0.00000000000E+00 -0.00000000000E+00 -0.45593999997E+02  0.45594000000E+02  0.51100000000E-03 0. -1.
    9900012    2    1    2    0    0 -0.60320307422E+01  0.30312443968E+02  0.30469553849E+02  0.47787269984E+02  0.19999995165E+02 0.  0.
         12    1    1    2    0    0  0.60320307422E+01 -0.30312443968E+02 -0.30469553849E+02  0.43400730016E+02  0.00000000000E+00 0. -1.
         11    1    3    3    0    0 -0.37185867311E+01  0.49538197324E+01  0.13308047663E+01  0.63355551300E+01  0.51100000000E-03 0. -1.
        -11    1    3    3    0    0 -0.56110886239E+00  0.15897798374E+02  0.71316341442E+01  0.17433159269E+02  0.51100000000E-03 0.  1.
        -12    1    3    3    0    0 -0.17523351487E+01  0.94608258620E+01  0.22007114938E+02  0.24018555585E+02  0.00000000000E+00 0.  1.
</event>
<event>
 7    1  0.2599124E-010  0.4778727E+02  0.7816164E-02  0.1312668E+00
        -11   -1    0    0    0    0  0.00000000000E+00  0.00000000000E+00  0.45593999997E+02  0.45594000000E+02  0.51100000000E-03 0. -1.
         11   -1    0    0    0    0 -0.00000000000E+00 -0.00000000000E+00 -0.45593999997E+02  0.45594000000E+02  0.51100000000E-03 0.  1.
    9900012    2    1    2    0    0 -0.52712689345E+01  0.14988211882E+02 -0.40387999362E+02  0.47787271157E+02  0.20000000513E+02 0.  0.
         12    1    1    2    0    0  0.52712689345E+01 -0.14988211882E+02  0.40387999362E+02  0.43400728843E+02  0.00000000000E+00 0. -1.
         11    1    3    3    0    0 -0.36255394083E+01  0.56985342347E+00 -0.63630555091E+01  0.73455935498E+01  0.51100000000E-03 0. -1.
        -11    1    3    3    0    0 -0.28237714959E+01 -0.93601816944E+00  0.12782719033E+00  0.29776090285E+01  0.51100000000E-03 0.  1.
        -12    1    3    3    0    0  0.11780419697E+01  0.15354376628E+02 -0.34152771044E+02  0.37464068579E+02  0.00000000000E+00 0.  1.
</event>
<event>
 7    1  0.2599124E-010  0.4778726E+02  0.7816164E-02  0.1312668E+00
        -11   -1    0    0    0    0  0.00000000000E+00  0.00000000000E+00  0.45593999997E+02  0.45594000000E+02  0.51100000000E-03 0. -1.
         11   -1    0    0    0    0 -0.00000000000E+00 -0.00000000000E+00 -0.45593999997E+02  0.45594000000E+02  0.51100000000E-03 0.  1.
    9900012    2    1    2    0    0 -0.42200202994E+02 -0.86266079947E+01 -0.53243162983E+01  0.47787264496E+02  0.19999970145E+02 0.  0.
         12    1    1    2    0    0  0.42200202994E+02  0.86266079947E+01  0.53243162983E+01  0.43400735504E+02  0.00000000000E+00 0. -1.
         11    1    3    3    0    0 -0.31042948441E+02 -0.12559081138E+02 -0.76208784769E+00  0.33495909378E+02  0.51100000000E-03 0. -1.
        -11    1    3    3    0    0 -0.77468973957E+01  0.23643902318E+01  0.35230951645E+00  0.81073351161E+01  0.51100000000E-03 0.  1.
         12    1    3    3    0    0 -0.34103571575E+01  0.15680829114E+01 -0.49145379671E+01  0.61840200023E+01  0.00000000000E+00 0. -1.
</event>
<event>
 7    1  0.2599124E-010  0.4778727E+02  0.7816164E-02  0.1312668E+00
        -11   -1    0    0    0    0  0.00000000000E+00  0.00000000000E+00  0.45593999997E+02  0.45594000000E+02  0.51100000000E-03 0.  1.
         11   -1    0    0    0    0 -0.00000000000E+00 -0.00000000000E+00 -0.45593999997E+02  0.45594000000E+02  0.51100000000E-03 0. -1.
    9900012    2    1    2    0    0  0.15001985236E+02  0.18524746615E+02  0.36268414341E+02  0.47787266400E+02  0.19999978825E+02 0.  0.
         12    1    1    2    0    0 -0.15001985236E+02 -0.18524746615E+02 -0.36268414341E+02  0.43400733600E+02  0.00000000000E+00 0. -1.
         11    1    3    3    0    0  0.61972592516E+01  0.28985270416E+01  0.74668347517E+01  0.10127245564E+02  0.51100000000E-03 0. -1.
        -11    1    3    3    0    0  0.77010656719E+00  0.12541984816E+02  0.73758799105E+01  0.14570451330E+02  0.51100000000E-03 0.  1.
        -12    1    3    3    0    0  0.80346194175E+01  0.30842347570E+01  0.21425699679E+02  0.23089569506E+02  0.00000000000E+00 0.  1.
</event>
<event>
 7    1  0.2599124E-010  0.4778727E+02  0.7816164E-02  0.1312668E+00
        -11   -1    0    0    0    0  0.00000000000E+00  0.00000000000E+00  0.45593999997E+02  0.45594000000E+02  0.51100000000E-03 0. -1.
         11   -1    0    0    0    0 -0.00000000000E+00 -0.00000000000E+00 -0.45593999997E+02  0.45594000000E+02  0.51100000000E-03 0.  1.
    9900012    2    1    2    0    0  0.13153580255E+02  0.11855453994E+02 -0.39623919213E+02  0.47787269168E+02  0.19999991446E+02 0.  0.
         12    1    1    2    0    0 -0.13153580255E+02 -0.11855453994E+02  0.39623919213E+02  0.43400730832E+02  0.00000000000E+00 0. -1.
         11    1    3    3    0    0  0.55216432690E+01  0.48036917468E+01 -0.77036913103E+01  0.10625952139E+02  0.51100000000E-03 0. -1.
        -11    1    3    3    0    0  0.21649780513E+01  0.11656531872E+02 -0.20812248542E+02  0.23952276612E+02  0.51100000000E-03 0.  1.
         12    1    3    3    0    0  0.54669589347E+01 -0.46047696244E+01 -0.11107979360E+02  0.13209040418E+02  0.00000000000E+00 0. -1.
</event>
<event>
 7    1  0.2599124E-010  0.4778727E+02  0.7816164E-02  0.1312668E+00
        -11   -1    0    0    0    0  0.00000000000E+00  0.00000000000E+00  0.45593999997E+02  0.45594000000E+02  0.51100000000E-03 0.  1.
         11   -1    0    0    0    0 -0.00000000000E+00 -0.00000000000E+00 -0.45593999997E+02  0.45594000000E+02  0.51100000000E-03 0. -1.
    9900012    2    1    2    0    0 -0.31800573460E+02 -0.19078079605E+02  0.22547145621E+02  0.47787269943E+02  0.19999994980E+02 0.  0.
         12    1    1    2    0    0  0.31800573460E+02  0.19078079605E+02 -0.22547145621E+02  0.43400730057E+02  0.00000000000E+00 0. -1.
         11    1    3    3    0    0 -0.13745548503E+02 -0.94679118902E+00  0.14733045870E+02  0.20171741573E+02  0.51100000000E-03 0. -1.
        -11    1    3    3    0    0 -0.78056850722E+00  0.38162717589E+00 -0.45248302832E+00  0.97962627971E+00  0.51100000000E-03 0.  1.
        -12    1    3    3    0    0 -0.17274456450E+02 -0.18512915592E+02  0.82665827788E+01  0.26635902091E+02  0.00000000000E+00 0.  1.
</event>
<event>
 7    1  0.2599124E-010  0.4778727E+02  0.7816164E-02  0.1312668E+00
        -11   -1    0    0    0    0  0.00000000000E+00  0.00000000000E+00  0.45593999997E+02  0.45594000000E+02  0.51100000000E-03 0.  1.
         11   -1    0    0    0    0 -0.00000000000E+00 -0.00000000000E+00 -0.45593999997E+02  0.45594000000E+02  0.51100000000E-03 0. -1.
    9900012    2    1    2    0    0  0.29357013091E+02 -0.19848112494E+02 -0.25056764255E+02  0.47787271641E+02  0.20000002718E+02 0.  0.
         12    1    1    2    0    0 -0.29357013091E+02  0.19848112494E+02  0.25056764255E+02  0.43400728359E+02  0.00000000000E+00 0. -1.
         11    1    3    3    0    0  0.12204755932E+02 -0.10032739947E+02 -0.42415959319E+00  0.15804804644E+02  0.51100000000E-03 0. -1.
        -11    1    3    3    0    0  0.40339914956E+01 -0.14208255734E+01 -0.26137098057E+01  0.50123160222E+01  0.51100000000E-03 0.  1.
        -12    1    3    3    0    0  0.13118265663E+02 -0.83945469736E+01 -0.22018894856E+02  0.26970150975E+02  0.00000000000E+00 0.  1.
</event>
<event>
 7    1  0.2599124E-010  0.4778727E+02  0.7816164E-02  0.1312668E+00
        -11   -1    0    0    0    0  0.00000000000E+00  0.00000000000E+00  0.45593999997E+02  0.45594000000E+02  0.51100000000E-03 0.  1.
         11   -1    0    0    0    0 -0.00000000000E+00 -0.00000000000E+00 -0.45593999997E+02  0.45594000000E+02  0.51100000000E-03 0. -1.
    9900012    2    1    2    0    0  0.41819231196E+02 -0.10135912610E+02  0.56602538281E+01  0.47787270794E+02  0.19999998858E+02 0.  0.
         12    1    1    2    0    0 -0.41819231196E+02  0.10135912610E+02 -0.56602538281E+01  0.43400729206E+02  0.00000000000E+00 0. -1.
         11    1    3    3    0    0  0.34072867820E+01 -0.18985552722E+01  0.14506530839E+01  0.41615513894E+01  0.51100000000E-03 0. -1.
        -11    1    3    3    0    0  0.39933630488E+02 -0.95056706332E+01  0.52574622026E+01  0.41384701609E+02  0.51100000000E-03 0.  1.
         12    1    3    3    0    0 -0.15216860746E+01  0.12683132957E+01 -0.10478614583E+01  0.22410177959E+01  0.00000000000E+00 0. -1.
</event>
<event>
 7    1  0.2599124E-010  0.4778727E+02  0.7816164E-02  0.1312668E+00
        -11   -1    0    0    0    0  0.00000000000E+00  0.00000000000E+00  0.45593999997E+02  0.45594000000E+02  0.51100000000E-03 0.  1.
         11   -1    0    0    0    0 -0.00000000000E+00 -0.00000000000E+00 -0.45593999997E+02  0.45594000000E+02  0.51100000000E-03 0. -1.
    9900012    2    1    2    0    0 -0.27218350059E+02 -0.80093160562E+01  0.32842590920E+02  0.47787268417E+02  0.19999988019E+02 0.  0.
         12    1    1    2    0    0  0.27218350059E+02  0.80093160562E+01 -0.32842590920E+02  0.43400731583E+02  0.00000000000E+00 0. -1.
         11    1    3    3    0    0 -0.16098706730E+01  0.24630302702E+01 -0.66723044752E+00  0.30171838570E+01  0.51100000000E-03 0. -1.
        -11    1    3    3    0    0 -0.13409095772E+02 -0.33883638098E+01  0.90331771418E+01  0.16519175169E+02  0.51100000000E-03 0.  1.
        -12    1    3    3    0    0 -0.12199383614E+02 -0.70839825166E+01  0.24476644226E+02  0.28250909391E+02  0.00000000000E+00 0.  1.
</event>
<event>
 7    1  0.2599124E-010  0.4778727E+02  0.7816164E-02  0.1312668E+00
        -11   -1    0    0    0    0  0.00000000000E+00  0.00000000000E+00  0.45593999997E+02  0.45594000000E+02  0.51100000000E-03 0.  1.
         11   -1    0    0    0    0 -0.00000000000E+00 -0.00000000000E+00 -0.45593999997E+02  0.45594000000E+02  0.51100000000E-03 0. -1.
    9900012    2    1    2    0    0  0.30471531144E+02  0.30195083980E+02 -0.65852584847E+01  0.47787274935E+02  0.20000017740E+02 0.  0.
         12    1    1    2    0    0 -0.30471531144E+02 -0.30195083980E+02  0.65852584847E+01  0.43400725065E+02  0.00000000000E+00 0. -1.
         11    1    3    3    0    0  0.34539258735E+01  0.40244130964E+01  0.38735056824E+01  0.65673092848E+01  0.51100000000E-03 0. -1.
        -11    1    3    3    0    0  0.16425495972E+02  0.10872352537E+02  0.35032559477E+00  0.19700956726E+02  0.51100000000E-03 0.  1.
         12    1    3    3    0    0  0.10592109298E+02  0.15298318347E+02 -0.10809089762E+02  0.21519008925E+02  0.00000000000E+00 0. -1.
</event>
