<event>
 7    1  0.7578565E-012  0.5930196E+02  0.7816164E-02  0.1266605E+00
        -11   -1    0    0    0    0  0.00000000000E+00  0.00000000000E+00  0.45593999997E+02  0.45594000000E+02  0.51100000000E-03 0.  1.
         11   -1    0    0    0    0 -0.00000000000E+00 -0.00000000000E+00 -0.45593999997E+02  0.45594000000E+02  0.51100000000E-03 0. -1.
    9900012    2    1    2    0    0 -0.15600907616E+02  0.10440871885E+02 -0.25774398405E+02  0.59301957014E+02  0.50000023683E+02 0.  0.
         12    1    1    2    0    0  0.15600907616E+02 -0.10440871885E+02  0.25774398405E+02  0.31886042986E+02  0.00000000000E+00 0. -1.
         11    1    3    3    0    0 -0.16445120409E+02  0.11378159117E+02 -0.36404847009E+02  0.41535736134E+02  0.51100000000E-03 0. -1.
        -11    1    3    3    0    0  0.25260847058E+01  0.51370274693E+01  0.98803219732E+01  0.11418884259E+02  0.51100000000E-03 0.  1.
         12    1    3    3    0    0 -0.16818719130E+01 -0.60743147011E+01  0.75012663073E+00  0.63473366211E+01  0.00000000000E+00 0. -1.
</event>
<event>
 7    1  0.7578565E-012  0.5930190E+02  0.7816164E-02  0.1266605E+00
        -11   -1    0    0    0    0  0.00000000000E+00  0.00000000000E+00  0.45593999997E+02  0.45594000000E+02  0.51100000000E-03 0. -1.
         11   -1    0    0    0    0 -0.00000000000E+00 -0.00000000000E+00 -0.45593999997E+02  0.45594000000E+02  0.51100000000E-03 0.  1.
    9900012    2    1    2    0    0  0.21488277919E+02  0.23247535243E+02 -0.38117273171E+01  0.59301901964E+02  0.49999923285E+02 0.  0.
         12    1    1    2    0    0 -0.21488277919E+02 -0.23247535243E+02  0.38117273171E+01  0.31886098036E+02  0.00000000000E+00 0. -1.
         11    1    3    3    0    0 -0.23553130119E+01 -0.28517951519E+01  0.40432625929E+01  0.54797999624E+01  0.51100000000E-03 0. -1.
        -11    1    3    3    0    0  0.11533675694E+02  0.57554428355E+01 -0.22474853756E+02  0.25908875870E+02  0.51100000000E-03 0.  1.
        -12    1    3    3    0    0  0.12309915238E+02  0.20343887560E+02  0.14619863846E+02  0.27913226131E+02  0.00000000000E+00 0.  1.
</event>
<event>
 7    1  0.7578565E-012  0.5930195E+02  0.7816164E-02  0.1266605E+00
        -11   -1    0    0    0    0  0.00000000000E+00  0.00000000000E+00  0.45593999997E+02  0.45594000000E+02  0.51100000000E-03 0.  1.
         11   -1    0    0    0    0 -0.00000000000E+00 -0.00000000000E+00 -0.45593999997E+02  0.45594000000E+02  0.51100000000E-03 0. -1.
    9900012    2    1    2    0    0  0.92697952687E+01  0.26054014821E+02  0.15873865351E+02  0.59301946720E+02  0.50000004910E+02 0.  0.
         12    1    1    2    0    0 -0.92697952687E+01 -0.26054014821E+02 -0.15873865351E+02  0.31886053280E+02  0.00000000000E+00 0. -1.
         11    1    3    3    0    0  0.16164245715E+02  0.14004648503E+02  0.18413602627E+02  0.28221867075E+02  0.51100000000E-03 0. -1.
        -11    1    3    3    0    0 -0.12264563819E+02  0.17991965091E+02  0.20124202476E+01  0.21867331091E+02  0.51100000000E-03 0.  1.
         12    1    3    3    0    0  0.53701133724E+01 -0.59425987734E+01 -0.45521575230E+01  0.92127485544E+01  0.00000000000E+00 0. -1.
</event>
<event>
 7    1  0.7578565E-012  0.5930193E+02  0.7816164E-02  0.1266605E+00
        -11   -1    0    0    0    0  0.00000000000E+00  0.00000000000E+00  0.45593999997E+02  0.45594000000E+02  0.51100000000E-03 0. -1.
         11   -1    0    0    0    0 -0.00000000000E+00 -0.00000000000E+00 -0.45593999997E+02  0.45594000000E+02  0.51100000000E-03 0.  1.
    9900012    2    1    2    0    0  0.59050329995E+01 -0.29636096803E+02  0.10176129588E+02  0.59301933108E+02  0.49999980085E+02 0.  0.
         12    1    1    2    0    0 -0.59050329995E+01  0.29636096803E+02 -0.10176129588E+02  0.31886066892E+02  0.00000000000E+00 0. -1.
         11    1    3    3    0    0  0.88088205000E+00 -0.10098582012E+02  0.53542415894E+01  0.11464083701E+02  0.51100000000E-03 0. -1.
        -11    1    3    3    0    0 -0.10525260486E+00  0.11742262160E+02 -0.73840320132E+01  0.13871399633E+02  0.51100000000E-03 0.  1.
        -12    1    3    3    0    0  0.51294035544E+01 -0.31279776951E+02  0.12205920012E+02  0.33966449774E+02  0.00000000000E+00 0.  1.
</event>
<event>
 7    1  0.7578565E-012  0.5930193E+02  0.7816164E-02  0.1266605E+00
        -11   -1    0    0    0    0  0.00000000000E+00  0.00000000000E+00  0.45593999997E+02  0.45594000000E+02  0.51100000000E-03 0.  1.
         11   -1    0    0    0    0 -0.00000000000E+00 -0.00000000000E+00 -0.45593999997E+02  0.45594000000E+02  0.51100000000E-03 0. -1.
    9900012    2    1    2    0    0 -0.16432026534E+02  0.15739642357E+01  0.27280626680E+02  0.59301930134E+02  0.49999974662E+02 0.  0.
         12    1    1    2    0    0  0.16432026534E+02 -0.15739642357E+01 -0.27280626680E+02  0.31886069866E+02  0.00000000000E+00 0. -1.
         11    1    3    3    0    0 -0.25367448906E+02 -0.15632297828E+02  0.12114448654E+02  0.32165759214E+02  0.51100000000E-03 0. -1.
        -11    1    3    3    0    0 -0.96173185390E+00  0.10419892322E+02  0.78514287901E+01  0.13082202356E+02  0.51100000000E-03 0.  1.
         12    1    3    3    0    0  0.98971542260E+01  0.67863697413E+01  0.73147492357E+01  0.14053968565E+02  0.00000000000E+00 0. -1.
</event>
<event>
 7    1  0.7578565E-012  0.5930196E+02  0.7816164E-02  0.1266605E+00
        -11   -1    0    0    0    0  0.00000000000E+00  0.00000000000E+00  0.45593999997E+02  0.45594000000E+02  0.51100000000E-03 0.  1.
         11   -1    0    0    0    0 -0.00000000000E+00 -0.00000000000E+00 -0.45593999997E+02  0.45594000000E+02  0.51100000000E-03 0. -1.
    9900012    2    1    2    0    0 -0.19994709673E+02 -0.92230154800E+01  0.23062247649E+02  0.59301957661E+02  0.50000024864E+02 0.  0.
         12    1    1    2    0    0  0.19994709673E+02  0.92230154800E+01 -0.23062247649E+02  0.31886042339E+02  0.00000000000E+00 0. -1.
         11    1    3    3    0    0 -0.22793111482E+02  0.62417562451E+01 -0.45721498776E+01  0.24070521532E+02  0.51100000000E-03 0. -1.
        -11    1    3    3    0    0 -0.17480279505E+01 -0.10515926139E+02  0.26302310525E+02  0.28380483496E+02  0.51100000000E-03 0.  1.
         12    1    3    3    0    0  0.45464297598E+01 -0.49488455865E+01  0.13320870013E+01  0.68509526330E+01  0.00000000000E+00 0. -1.
</event>
<event>
 7    1  0.7578565E-012  0.5930186E+02  0.7816164E-02  0.1266605E+00
        -11   -1    0    0    0    0  0.00000000000E+00  0.00000000000E+00  0.45593999997E+02  0.45594000000E+02  0.51100000000E-03 0.  1.
         11   -1    0    0    0    0 -0.00000000000E+00 -0.00000000000E+00 -0.45593999997E+02  0.45594000000E+02  0.51100000000E-03 0. -1.
    9900012    2    1    2    0    0  0.18753547205E+02  0.24733564181E+02  0.72994082836E+01  0.59301857380E+02  0.49999841975E+02 0.  0.
         12    1    1    2    0    0 -0.18753547205E+02 -0.24733564181E+02 -0.72994082836E+01  0.31886142620E+02  0.00000000000E+00 0. -1.
         11    1    3    3    0    0  0.25023821674E+02 -0.62558452502E+01  0.34400840647E+01  0.26022325599E+02  0.51100000000E-03 0. -1.
        -11    1    3    3    0    0 -0.86587904274E+01  0.20548428230E+02  0.34273344584E+01  0.22560123585E+02  0.51100000000E-03 0.  1.
         12    1    3    3    0    0  0.23885159587E+01  0.10440981201E+02  0.43198976043E+00  0.10719408196E+02  0.00000000000E+00 0. -1.
</event>
<event>
 7    1  0.7578565E-012  0.5930191E+02  0.7816164E-02  0.1266605E+00
        -11   -1    0    0    0    0  0.00000000000E+00  0.00000000000E+00  0.45593999997E+02  0.45594000000E+02  0.51100000000E-03 0. -1.
         11   -1    0    0    0    0 -0.00000000000E+00 -0.00000000000E+00 -0.45593999997E+02  0.45594000000E+02  0.51100000000E-03 0.  1.
    9900012    2    1    2    0    0 -0.95677406155E+00  0.94338297930E+01 -0.30443555854E+02  0.59301911275E+02  0.49999940266E+02 0.  0.
         12    1    1    2    0    0  0.95677406155E+00 -0.94338297930E+01  0.30443555854E+02  0.31886088725E+02  0.00000000000E+00 0. -1.
         11    1    3    3    0    0 -0.10587158501E+02  0.10180809182E+02 -0.26876595326E+01  0.14931855704E+02  0.51100000000E-03 0. -1.
        -11    1    3    3    0    0  0.20174019303E+02 -0.79995253733E+01 -0.15672383559E+02  0.26769517510E+02  0.51100000000E-03 0.  1.
         12    1    3    3    0    0 -0.10543634863E+02  0.72525459843E+01 -0.12083512762E+02  0.17600538061E+02  0.00000000000E+00 0. -1.
</event>
<event>
 7    1  0.7578565E-012  0.5930196E+02  0.7816164E-02  0.1266605E+00
        -11   -1    0    0    0    0  0.00000000000E+00  0.00000000000E+00  0.45593999997E+02  0.45594000000E+02  0.51100000000E-03 0. -1.
         11   -1    0    0    0    0 -0.00000000000E+00 -0.00000000000E+00 -0.45593999997E+02  0.45594000000E+02  0.51100000000E-03 0.  1.
    9900012    2    1    2    0    0 -0.29831699411E+02 -0.10441595831E+02 -0.42145194722E+01  0.59301962497E+02  0.50000033684E+02 0.  0.
         12    1    1    2    0    0  0.29831699411E+02  0.10441595831E+02  0.42145194722E+01  0.31886037503E+02  0.00000000000E+00 0. -1.
         11    1    3    3    0    0 -0.20788370060E+02 -0.95322195547E+01  0.12249392136E+02  0.25943537680E+02  0.51100000000E-03 0. -1.
        -11    1    3    3    0    0 -0.68798260719E+01 -0.27373687939E+01 -0.24101142360E+02  0.25212898644E+02  0.51100000000E-03 0.  1.
        -12    1    3    3    0    0 -0.21635032791E+01  0.18279925175E+01  0.76372307520E+01  0.81455261734E+01  0.00000000000E+00 0.  1.
</event>
<event>
 7    1  0.7578565E-012  0.5930194E+02  0.7816164E-02  0.1266605E+00
        -11   -1    0    0    0    0  0.00000000000E+00  0.00000000000E+00  0.45593999997E+02  0.45594000000E+02  0.51100000000E-03 0.  1.
         11   -1    0    0    0    0 -0.00000000000E+00 -0.00000000000E+00 -0.45593999997E+02  0.45594000000E+02  0.51100000000E-03 0. -1.
    9900012    2    1    2    0    0 -0.31872827702E+02  0.89019252732E+00 -0.22601326287E+00  0.59301942382E+02  0.49999996998E+02 0.  0.
         12    1    1    2    0    0  0.31872827702E+02 -0.89019252732E+00  0.22601326288E+00  0.31886057618E+02  0.00000000000E+00 0. -1.
         11    1    3    3    0    0 -0.22802126209E+01  0.62703714179E+01 -0.19350448775E+02  0.20468434122E+02  0.51100000000E-03 0. -1.
        -11    1    3    3    0    0 -0.63615353716E+01 -0.74594006545E+01  0.93393902921E+01  0.13540162543E+02  0.51100000000E-03 0.  1.
         12    1    3    3    0    0 -0.23231079709E+02  0.20792217640E+01  0.97850452205E+01  0.25293345717E+02  0.00000000000E+00 0. -1.
</event>
<event>
 7    1  0.7578565E-012  0.5930193E+02  0.7816164E-02  0.1266605E+00
        -11   -1    0    0    0    0  0.00000000000E+00  0.00000000000E+00  0.45593999997E+02  0.45594000000E+02  0.51100000000E-03 0.  1.
         11   -1    0    0    0    0 -0.00000000000E+00 -0.00000000000E+00 -0.45593999997E+02  0.45594000000E+02  0.51100000000E-03 0. -1.
    9900012    2    1    2    0    0 -0.25653730794E+02 -0.17145549021E+02  0.80397571081E+01  0.59301930169E+02  0.49999974725E+02 0.  0.
         12    1    1    2    0    0  0.25653730794E+02  0.17145549021E+02 -0.80397571081E+01  0.31886069831E+02  0.00000000000E+00 0. -1.
         11    1    3    3    0    0 -0.20314681927E+02  0.10708552999E+02  0.40478335810E+00  0.22967874498E+02  0.51100000000E-03 0. -1.
        -11    1    3    3    0    0 -0.12597749154E+02 -0.20370112241E+02  0.94567014359E+01  0.25750222500E+02  0.51100000000E-03 0.  1.
        -12    1    3    3    0    0  0.72587002863E+01 -0.74839897787E+01 -0.18217276859E+01  0.10583833172E+02  0.00000000000E+00 0.  1.
</event>
<event>
 7    1  0.7578565E-012  0.5930195E+02  0.7816164E-02  0.1266605E+00
        -11   -1    0    0    0    0  0.00000000000E+00  0.00000000000E+00  0.45593999997E+02  0.45594000000E+02  0.51100000000E-03 0. -1.
         11   -1    0    0    0    0 -0.00000000000E+00 -0.00000000000E+00 -0.45593999997E+02  0.45594000000E+02  0.51100000000E-03 0.  1.
    9900012    2    1    2    0    0  0.22190783736E+02 -0.34340386291E+00 -0.22894790072E+02  0.59301949422E+02  0.50000009839E+02 0.  0.
         12    1    1    2    0    0 -0.22190783736E+02  0.34340386291E+00  0.22894790072E+02  0.31886050578E+02  0.00000000000E+00 0. -1.
         11    1    3    3    0    0 -0.73485070110E+01  0.82902056644E+01 -0.91943213012E+01  0.14396652726E+02  0.51100000000E-03 0. -1.
        -11    1    3    3    0    0  0.26984880786E+02  0.51911710729E+01 -0.14006072356E+02  0.30843185815E+02  0.51100000000E-03 0.  1.
         12    1    3    3    0    0  0.25544099611E+01 -0.13824780600E+02  0.30560358583E+00  0.14062110882E+02  0.00000000000E+00 0. -1.
</event>
<event>
 7    1  0.7578565E-012  0.5930193E+02  0.7816164E-02  0.1266605E+00
        -11   -1    0    0    0    0  0.00000000000E+00  0.00000000000E+00  0.45593999997E+02  0.45594000000E+02  0.51100000000E-03 0. -1.
         11   -1    0    0    0    0 -0.00000000000E+00 -0.00000000000E+00 -0.45593999997E+02  0.45594000000E+02  0.51100000000E-03 0.  1.
    9900012    2    1    2    0    0  0.27967602292E+02  0.15278777658E+02  0.10458445310E+01  0.59301927563E+02  0.49999969973E+02 0.  0.
         12    1    1    2    0    0 -0.27967602292E+02 -0.15278777658E+02 -0.10458445310E+01  0.31886072437E+02  0.00000000000E+00 0. -1.
         11    1    3    3    0    0  0.13013382359E+02  0.16593787148E+02 -0.45006045543E+01  0.21562869335E+02  0.51100000000E-03 0. -1.
        -11    1    3    3    0    0  0.81372563640E+01 -0.14493427622E+02 -0.72614553306E+01  0.18138443129E+02  0.51100000000E-03 0.  1.
        -12    1    3    3    0    0  0.68169635691E+01  0.13178418131E+02  0.12807904416E+02  0.19600615099E+02  0.00000000000E+00 0.  1.
</event>
<event>
 7    1  0.7578565E-012  0.5930194E+02  0.7816164E-02  0.1266605E+00
        -11   -1    0    0    0    0  0.00000000000E+00  0.00000000000E+00  0.45593999997E+02  0.45594000000E+02  0.51100000000E-03 0.  1.
         11   -1    0    0    0    0 -0.00000000000E+00 -0.00000000000E+00 -0.45593999997E+02  0.45594000000E+02  0.51100000000E-03 0. -1.
    9900012    2    1    2    0    0  0.31662572142E+02 -0.29516948335E+00  0.37570019396E+01  0.59301942494E+02  0.49999997203E+02 0.  0.
         12    1    1    2    0    0 -0.31662572142E+02  0.29516948335E+00 -0.37570019396E+01  0.31886057506E+02  0.00000000000E+00 0. -1.
         11    1    3    3    0    0 -0.97353705762E+01 -0.34645793927E+01  0.16878572202E+01  0.10470416080E+02  0.51100000000E-03 0. -1.
        -11    1    3    3    0    0  0.40435691561E+02 -0.45907680242E+01  0.36321966923E+01  0.40857228933E+02  0.51100000000E-03 0.  1.
        -12    1    3    3    0    0  0.96225115780E+00  0.77601779335E+01 -0.15630519729E+01  0.79742974813E+01  0.00000000000E+00 0.  1.
</event>
<event>
 7    1  0.7578565E-012  0.5930189E+02  0.7816164E-02  0.1266605E+00
        -11   -1    0    0    0    0  0.00000000000E+00  0.00000000000E+00  0.45593999997E+02  0.45594000000E+02  0.51100000000E-03 0.  1.
         11   -1    0    0    0    0 -0.00000000000E+00 -0.00000000000E+00 -0.45593999997E+02  0.45594000000E+02  0.51100000000E-03 0. -1.
    9900012    2    1    2    0    0  0.25449884768E+01  0.15226971169E+02  0.27899575615E+02  0.59301891162E+02  0.49999903585E+02 0.  0.
         12    1    1    2    0    0 -0.25449884768E+01 -0.15226971169E+02 -0.27899575615E+02  0.31886108838E+02  0.00000000000E+00 0. -1.
         11    1    3    3    0    0  0.22442021749E+01  0.10356571348E+02  0.30234958504E+02  0.32038222945E+02  0.51100000000E-03 0.  1.
        -11    1    3    3    0    0 -0.25024414668E+01 -0.80653961704E+01 -0.90869983395E+01  0.12405094428E+02  0.51100000000E-03 0. -1.
        -12    1    3    3    0    0  0.28032277687E+01  0.12935795991E+02  0.67516154509E+01  0.14858573789E+02  0.00000000000E+00 0.  1.
</event>
<event>
 7    1  0.7578565E-012  0.5930193E+02  0.7816164E-02  0.1266605E+00
        -11   -1    0    0    0    0  0.00000000000E+00  0.00000000000E+00  0.45593999997E+02  0.45594000000E+02  0.51100000000E-03 0.  1.
         11   -1    0    0    0    0 -0.00000000000E+00 -0.00000000000E+00 -0.45593999997E+02  0.45594000000E+02  0.51100000000E-03 0. -1.
    9900012    2    1    2    0    0  0.31583420134E+02 -0.41403062764E+01  0.14377456989E+01  0.59301926612E+02  0.49999968238E+02 0.  0.
         12    1    1    2    0    0 -0.31583420134E+02  0.41403062764E+01 -0.14377456989E+01  0.31886073388E+02  0.00000000000E+00 0. -1.
         11    1    3    3    0    0  0.10070856347E+02 -0.18328080153E+02 -0.29696122860E+01  0.21122482502E+02  0.51100000000E-03 0. -1.
        -11    1    3    3    0    0  0.20002947473E+02  0.78552389382E+01 -0.89818121290E+01  0.23291535710E+02  0.51100000000E-03 0.  1.
         12    1    3    3    0    0  0.15096163144E+01  0.63325349387E+01  0.13389170114E+02  0.14887908399E+02  0.00000000000E+00 0. -1.
</event>
<event>
 7    1  0.7578565E-012  0.5930197E+02  0.7816164E-02  0.1266605E+00
        -11   -1    0    0    0    0  0.00000000000E+00  0.00000000000E+00  0.45593999997E+02  0.45594000000E+02  0.51100000000E-03 0.  1.
         11   -1    0    0    0    0 -0.00000000000E+00 -0.00000000000E+00 -0.45593999997E+02  0.45594000000E+02  0.51100000000E-03 0. -1.
    9900012    2    1    2    0    0  0.19358328502E+02 -0.13265808362E+02  0.21586859064E+02  0.59301967977E+02  0.50000043678E+02 0.  0.
         12    1    1    2    0    0 -0.19358328502E+02  0.13265808362E+02 -0.21586859064E+02  0.31886032023E+02  0.00000000000E+00 0. -1.
         11    1    3    3    0    0  0.14757634562E+02  0.13386267229E+01  0.41403321667E+01  0.15385774276E+02  0.51100000000E-03 0. -1.
        -11    1    3    3    0    0 -0.11854986934E+02  0.31100561370E+01 -0.25756168421E+01  0.12523855906E+02  0.51100000000E-03 0.  1.
        -12    1    3    3    0    0  0.16455680875E+02 -0.17714491222E+02  0.20022143739E+02  0.31392337795E+02  0.00000000000E+00 0.  1.
</event>
<event>
 7    1  0.7578565E-012  0.5930191E+02  0.7816164E-02  0.1266605E+00
        -11   -1    0    0    0    0  0.00000000000E+00  0.00000000000E+00  0.45593999997E+02  0.45594000000E+02  0.51100000000E-03 0.  1.
         11   -1    0    0    0    0 -0.00000000000E+00 -0.00000000000E+00 -0.45593999997E+02  0.45594000000E+02  0.51100000000E-03 0. -1.
    9900012    2    1    2    0    0  0.13117401430E+02  0.22464011847E+02  0.18439750683E+02  0.59301914418E+02  0.49999945998E+02 0.  0.
         12    1    1    2    0    0 -0.13117401430E+02 -0.22464011847E+02 -0.18439750683E+02  0.31886085582E+02  0.00000000000E+00 0. -1.
         11    1    3    3    0    0  0.16568381924E+02 -0.21170866776E+01 -0.21185409158E+01  0.16836910389E+02  0.51100000000E-03 0. -1.
        -11    1    3    3    0    0  0.25176904565E+01  0.24347050420E+02  0.25025840819E+02  0.35005861486E+02  0.51100000000E-03 0.  1.
        -12    1    3    3    0    0 -0.59686709511E+01  0.23404810417E+00 -0.44675492201E+01  0.74591425427E+01  0.00000000000E+00 0.  1.
</event>
<event>
 7    1  0.7578565E-012  0.5930195E+02  0.7816164E-02  0.1266605E+00
        -11   -1    0    0    0    0  0.00000000000E+00  0.00000000000E+00  0.45593999997E+02  0.45594000000E+02  0.51100000000E-03 0.  1.
         11   -1    0    0    0    0 -0.00000000000E+00 -0.00000000000E+00 -0.45593999997E+02  0.45594000000E+02  0.51100000000E-03 0. -1.
    9900012    2    1    2    0    0 -0.24968870213E+02 -0.15744230367E+02  0.12057976914E+02  0.59301951690E+02  0.50000013974E+02 0.  0.
         12    1    1    2    0    0  0.24968870213E+02  0.15744230367E+02 -0.12057976914E+02  0.31886048310E+02  0.00000000000E+00 0. -1.
         11    1    3    3    0    0 -0.20525967446E+02 -0.20880785628E+02 -0.57494379236E+01  0.29839212200E+02  0.51100000000E-03 0. -1.
        -11    1    3    3    0    0 -0.72779821748E+01  0.13012690697E+02  0.13168565219E+02  0.19892467265E+02  0.51100000000E-03 0.  1.
         12    1    3    3    0    0  0.28350794078E+01 -0.78761354363E+01  0.46388496184E+01  0.95702722240E+01  0.00000000000E+00 0. -1.
</event>
<event>
 7    1  0.7578565E-012  0.5930195E+02  0.7816164E-02  0.1266605E+00
        -11   -1    0    0    0    0  0.00000000000E+00  0.00000000000E+00  0.45593999997E+02  0.45594000000E+02  0.51100000000E-03 0.  1.
         11   -1    0    0    0    0 -0.00000000000E+00 -0.00000000000E+00 -0.45593999997E+02  0.45594000000E+02  0.51100000000E-03 0. -1.
    9900012    2    1    2    0    0  0.20701341443E+02 -0.16829712284E+02  0.17462399356E+02  0.59301950631E+02  0.50000012042E+02 0.  0.
         12    1    1    2    0    0 -0.20701341443E+02  0.16829712284E+02 -0.17462399356E+02  0.31886049369E+02  0.00000000000E+00 0. -1.
         11    1    3    3    0    0  0.16033701122E+01  0.98577821583E+01 -0.27151884546E+01  0.10349826733E+02  0.51100000000E-03 0. -1.
        -11    1    3    3    0    0  0.20790015396E+02 -0.27111955773E+02  0.60253333529E+01  0.34692759018E+02  0.51100000000E-03 0.  1.
        -12    1    3    3    0    0 -0.16920440648E+01  0.42446133096E+00  0.14152254458E+02  0.14259364880E+02  0.00000000000E+00 0.  1.
</event>
<event>
 7    1  0.7578565E-012  0.5930198E+02  0.7816164E-02  0.1266605E+00
        -11   -1    0    0    0    0  0.00000000000E+00  0.00000000000E+00  0.45593999997E+02  0.45594000000E+02  0.51100000000E-03 0.  1.
         11   -1    0    0    0    0 -0.00000000000E+00 -0.00000000000E+00 -0.45593999997E+02  0.45594000000E+02  0.51100000000E-03 0. -1.
    9900012    2    1    2    0    0 -0.18964596481E+02  0.71671445907E+00  0.25623205693E+02  0.59301980034E+02  0.50000065667E+02 0.  0.
         12    1    1    2    0    0  0.18964596481E+02 -0.71671445907E+00 -0.25623205693E+02  0.31886019966E+02  0.00000000000E+00 0. -1.
         11    1    3    3    0    0  0.11391671422E+02 -0.30479411445E+01  0.16498141674E+02  0.20279270252E+02  0.51100000000E-03 0.  1.
        -11    1    3    3    0    0 -0.30208372228E+02 -0.25915982926E+01  0.34764984531E+01  0.30517997578E+02  0.51100000000E-03 0. -1.
         12    1    3    3    0    0 -0.14789567446E+00  0.63562538961E+01  0.56485655657E+01  0.85047122040E+01  0.00000000000E+00 0. -1.
</event>
<event>
 7    1  0.7578565E-012  0.5930190E+02  0.7816164E-02  0.1266605E+00
        -11   -1    0    0    0    0  0.00000000000E+00  0.00000000000E+00  0.45593999997E+02  0.45594000000E+02  0.51100000000E-03 0. -1.
         11   -1    0    0    0    0 -0.00000000000E+00 -0.00000000000E+00 -0.45593999997E+02  0.45594000000E+02  0.51100000000E-03 0.  1.
    9900012    2    1    2    0    0 -0.16621559734E+02  0.25916926679E+02  0.82921658917E+01  0.59301900338E+02  0.49999920321E+02 0.  0.
         12    1    1    2    0    0  0.16621559734E+02 -0.25916926679E+02 -0.82921658917E+01  0.31886099662E+02  0.00000000000E+00 0. -1.
         11    1    3    3    0    0 -0.26635185175E+01 -0.81791610683E+01  0.37616520789E+01  0.93884521247E+01  0.51100000000E-03 0. -1.
        -11    1    3    3    0    0 -0.23620900588E+02  0.31201379217E+02  0.64018212894E+01  0.39654209432E+02  0.51100000000E-03 0.  1.
        -12    1    3    3    0    0  0.96628593709E+01  0.28947085300E+01 -0.18713074766E+01  0.10259238781E+02  0.00000000000E+00 0.  1.
</event>
<event>
 7    1  0.7578565E-012  0.5930190E+02  0.7816164E-02  0.1266605E+00
        -11   -1    0    0    0    0  0.00000000000E+00  0.00000000000E+00  0.45593999997E+02  0.45594000000E+02  0.51100000000E-03 0. -1.
         11   -1    0    0    0    0 -0.00000000000E+00 -0.00000000000E+00 -0.45593999997E+02  0.45594000000E+02  0.51100000000E-03 0.  1.
    9900012    2    1    2    0    0 -0.70361081559E+01  0.27672331346E+02 -0.14193606082E+02  0.59301902815E+02  0.49999924838E+02 0.  0.
         12    1    1    2    0    0  0.70361081559E+01 -0.27672331346E+02  0.14193606082E+02  0.31886097185E+02  0.00000000000E+00 0. -1.
         11    1    3    3    0    0  0.24122001389E+00  0.84105224377E+01 -0.23927597570E+02  0.25363852241E+02  0.51100000000E-03 0. -1.
        -11    1    3    3    0    0 -0.28668420384E+01  0.22903838175E+02  0.51441979667E+00  0.23088291717E+02  0.51100000000E-03 0.  1.
        -12    1    3    3    0    0 -0.44104861313E+01 -0.36420292663E+01  0.92195716916E+01  0.10849758858E+02  0.00000000000E+00 0.  1.
</event>
<event>
 7    1  0.7578565E-012  0.5930195E+02  0.7816164E-02  0.1266605E+00
        -11   -1    0    0    0    0  0.00000000000E+00  0.00000000000E+00  0.45593999997E+02  0.45594000000E+02  0.51100000000E-03 0. -1.
         11   -1    0    0    0    0 -0.00000000000E+00 -0.00000000000E+00 -0.45593999997E+02  0.45594000000E+02  0.51100000000E-03 0.  1.
    9900012    2    1    2    0    0 -0.93178117123E+01  0.22001238798E+02 -0.21115026839E+02  0.59301945334E+02  0.50000002383E+02 0.  0.
         12    1    1    2    0    0  0.93178117123E+01 -0.22001238798E+02  0.21115026839E+02  0.31886054666E+02  0.00000000000E+00 0. -1.
         11    1    3    3    0    0  0.77847367753E+00 -0.20188670627E+01  0.12919352114E+01  0.25201076039E+01  0.51100000000E-03 0. -1.
        -11    1    3    3    0    0 -0.28164698464E+02  0.13735870200E+02 -0.12274564010E+02  0.33653963981E+02  0.51100000000E-03 0.  1.
        -12    1    3    3    0    0  0.18068413074E+02  0.10284235660E+02 -0.10132398040E+02  0.23127873750E+02  0.00000000000E+00 0.  1.
</event>
<event>
 7    1  0.7578565E-012  0.5930195E+02  0.7816164E-02  0.1266605E+00
        -11   -1    0    0    0    0  0.00000000000E+00  0.00000000000E+00  0.45593999997E+02  0.45594000000E+02  0.51100000000E-03 0.  1.
         11   -1    0    0    0    0 -0.00000000000E+00 -0.00000000000E+00 -0.45593999997E+02  0.45594000000E+02  0.51100000000E-03 0. -1.
    9900012    2    1    2    0    0 -0.22901744630E+02 -0.11358377519E+02  0.19058263569E+02  0.59301951998E+02  0.50000014535E+02 0.  0.
         12    1    1    2    0    0  0.22901744630E+02  0.11358377519E+02 -0.19058263569E+02  0.31886048002E+02  0.00000000000E+00 0. -1.
         11    1    3    3    0    0 -0.19486640759E+02  0.10847304011E+02  0.11830676825E+01  0.22333670137E+02  0.51100000000E-03 0. -1.
        -11    1    3    3    0    0 -0.10452002728E+02 -0.22379046928E+02  0.10702332060E+02  0.26918506909E+02  0.51100000000E-03 0.  1.
         12    1    3    3    0    0  0.70368988578E+01  0.17336539804E+00  0.71728638265E+01  0.10049774951E+02  0.00000000000E+00 0. -1.
</event>
<event>
 7    1  0.7578565E-012  0.5930193E+02  0.7816164E-02  0.1266605E+00
        -11   -1    0    0    0    0  0.00000000000E+00  0.00000000000E+00  0.45593999997E+02  0.45594000000E+02  0.51100000000E-03 0.  1.
         11   -1    0    0    0    0 -0.00000000000E+00 -0.00000000000E+00 -0.45593999997E+02  0.45594000000E+02  0.51100000000E-03 0. -1.
    9900012    2    1    2    0    0 -0.15436154445E+01  0.71396323779E+00  0.31840685176E+02  0.59301925851E+02  0.49999966851E+02 0.  0.
         12    1    1    2    0    0  0.15436154445E+01 -0.71396323779E+00 -0.31840685176E+02  0.31886074149E+02  0.00000000000E+00 0. -1.
         11    1    3    3    0    0 -0.18976417817E+02 -0.10704414806E+02  0.14913322726E+02  0.26402577990E+02  0.51100000000E-03 0. -1.
        -11    1    3    3    0    0  0.18016881137E+02  0.55785892676E+01  0.48544091431E+01  0.19475470534E+02  0.51100000000E-03 0.  1.
        -12    1    3    3    0    0 -0.58407876499E+00  0.58397887767E+01  0.12072953306E+02  0.13423877327E+02  0.00000000000E+00 0.  1.
</event>
<event>
 7    1  0.7578565E-012  0.5930195E+02  0.7816164E-02  0.1266605E+00
        -11   -1    0    0    0    0  0.00000000000E+00  0.00000000000E+00  0.45593999997E+02  0.45594000000E+02  0.51100000000E-03 0.  1.
         11   -1    0    0    0    0 -0.00000000000E+00 -0.00000000000E+00 -0.45593999997E+02  0.45594000000E+02  0.51100000000E-03 0. -1.
    9900012    2    1    2    0    0 -0.17551579929E+02 -0.28105544507E+01  0.26471923019E+02  0.59301954735E+02  0.50000019528E+02 0.  0.
         12    1    1    2    0    0  0.17551579929E+02  0.28105544507E+01 -0.26471923019E+02  0.31886045265E+02  0.00000000000E+00 0. -1.
         11    1    3    3    0    0 -0.86589648900E+01 -0.18614405544E+02  0.15502570989E+02  0.25725541283E+02  0.51100000000E-03 0. -1.
        -11    1    3    3    0    0  0.12925612459E+01  0.10805290129E+02 -0.65519773311E+01  0.12702496469E+02  0.51100000000E-03 0.  1.
        -12    1    3    3    0    0 -0.10185176285E+02  0.49985609653E+01  0.17521329360E+02  0.20873916983E+02  0.00000000000E+00 0.  1.
</event>
<event>
 7    1  0.7578565E-012  0.5930195E+02  0.7816164E-02  0.1266605E+00
        -11   -1    0    0    0    0  0.00000000000E+00  0.00000000000E+00  0.45593999997E+02  0.45594000000E+02  0.51100000000E-03 0. -1.
         11   -1    0    0    0    0 -0.00000000000E+00 -0.00000000000E+00 -0.45593999997E+02  0.45594000000E+02  0.51100000000E-03 0.  1.
    9900012    2    1    2    0    0 -0.12929909239E+02  0.26300774490E+02 -0.12562119887E+02  0.59301950578E+02  0.50000011946E+02 0.  0.
         12    1    1    2    0    0  0.12929909239E+02 -0.26300774490E+02  0.12562119887E+02  0.31886049422E+02  0.00000000000E+00 0. -1.
         11    1    3    3    0    0  0.24572809415E+01  0.11796362842E+02  0.18187425398E+02  0.21816847820E+02  0.51100000000E-03 0. -1.
        -11    1    3    3    0    0 -0.10880478978E+02  0.12085072581E+02 -0.22130920282E+02  0.27462910167E+02  0.51100000000E-03 0.  1.
         12    1    3    3    0    0 -0.45067112029E+01  0.24193390666E+01 -0.86186250035E+01  0.10022192591E+02  0.00000000000E+00 0. -1.
</event>
<event>
 7    1  0.7578565E-012  0.5930195E+02  0.7816164E-02  0.1266605E+00
        -11   -1    0    0    0    0  0.00000000000E+00  0.00000000000E+00  0.45593999997E+02  0.45594000000E+02  0.51100000000E-03 0.  1.
         11   -1    0    0    0    0 -0.00000000000E+00 -0.00000000000E+00 -0.45593999997E+02  0.45594000000E+02  0.51100000000E-03 0. -1.
    9900012    2    1    2    0    0 -0.12847384722E+02 -0.14846242616E+02  0.25124762635E+02  0.59301954284E+02  0.50000018704E+02 0.  0.
         12    1    1    2    0    0  0.12847384722E+02  0.14846242616E+02 -0.25124762635E+02  0.31886045716E+02  0.00000000000E+00 0. -1.
         11    1    3    3    0    0 -0.11513062122E+02 -0.17693008291E+02  0.19958567319E+02  0.29050603290E+02  0.51100000000E-03 0.  1.
        -11    1    3    3    0    0  0.28680203306E+01  0.15403741279E+02 -0.88343753357E+00  0.15693350444E+02  0.51100000000E-03 0. -1.
         12    1    3    3    0    0 -0.42023429296E+01 -0.12556975604E+02  0.60496328492E+01  0.14558000550E+02  0.00000000000E+00 0. -1.
</event>
<event>
 7    1  0.7578565E-012  0.5930194E+02  0.7816164E-02  0.1266605E+00
        -11   -1    0    0    0    0  0.00000000000E+00  0.00000000000E+00  0.45593999997E+02  0.45594000000E+02  0.51100000000E-03 0. -1.
         11   -1    0    0    0    0 -0.00000000000E+00 -0.00000000000E+00 -0.45593999997E+02  0.45594000000E+02  0.51100000000E-03 0.  1.
    9900012    2    1    2    0    0 -0.20563042789E+02  0.15300804536E+02 -0.18967530707E+02  0.59301943968E+02  0.49999999891E+02 0.  0.
         12    1    1    2    0    0  0.20563042789E+02 -0.15300804536E+02  0.18967530707E+02  0.31886056032E+02  0.00000000000E+00 0. -1.
         11    1    3    3    0    0 -0.15741048359E+02  0.29468303756E+02 -0.23639973361E+02  0.40926884446E+02  0.51100000000E-03 0. -1.
        -11    1    3    3    0    0 -0.30005347324E+01 -0.34437370567E+01 -0.26330291381E+01  0.52721320449E+01  0.51100000000E-03 0.  1.
         12    1    3    3    0    0 -0.18214596971E+01 -0.10723762163E+02  0.73054717922E+01  0.13102927477E+02  0.00000000000E+00 0. -1.
</event>
<event>
 7    1  0.7578565E-012  0.5930178E+02  0.7816164E-02  0.1266605E+00
        -11   -1    0    0    0    0  0.00000000000E+00  0.00000000000E+00  0.45593999997E+02  0.45594000000E+02  0.51100000000E-03 0.  1.
         11   -1    0    0    0    0 -0.00000000000E+00 -0.00000000000E+00 -0.45593999997E+02  0.45594000000E+02  0.51100000000E-03 0. -1.
    9900012    2    1    2    0    0 -0.19128891731E+02  0.16406636774E+02  0.19535583431E+02  0.59301776500E+02  0.49999694469E+02 0.  0.
         12    1    1    2    0    0  0.19128891731E+02 -0.16406636774E+02 -0.19535583431E+02  0.31886223500E+02  0.00000000000E+00 0. -1.
         11    1    3    3    0    0  0.94225822356E+01  0.13597270874E+02  0.10800809718E+02  0.19756728526E+02  0.51100000000E-03 0. -1.
        -11    1    3    3    0    0 -0.19116298579E+02 -0.57772325168E+01  0.15337415062E+02  0.25180261872E+02  0.51100000000E-03 0.  1.
        -12    1    3    3    0    0 -0.94351753883E+01  0.85865984162E+01 -0.66026413492E+01  0.14364786102E+02  0.00000000000E+00 0.  1.
</event>
<event>
 7    1  0.7578565E-012  0.5930193E+02  0.7816164E-02  0.1266605E+00
        -11   -1    0    0    0    0  0.00000000000E+00  0.00000000000E+00  0.45593999997E+02  0.45594000000E+02  0.51100000000E-03 0. -1.
         11   -1    0    0    0    0 -0.00000000000E+00 -0.00000000000E+00 -0.45593999997E+02  0.45594000000E+02  0.51100000000E-03 0.  1.
    9900012    2    1    2    0    0 -0.64092642228E+01 -0.30667607712E+02  0.59279717541E+01  0.59301926555E+02  0.49999968133E+02 0.  0.
         12    1    1    2    0    0  0.64092642228E+01  0.30667607712E+02 -0.59279717541E+01  0.31886073445E+02  0.00000000000E+00 0. -1.
         11    1    3    3    0    0  0.48054314565E+01  0.42414723922E+01  0.15878741813E+02  0.17123571513E+02  0.51100000000E-03 0. -1.
        -11    1    3    3    0    0 -0.26898730406E+01 -0.10897819410E+02 -0.12225916350E+02  0.16597316521E+02  0.51100000000E-03 0.  1.
        -12    1    3    3    0    0 -0.85248226386E+01 -0.24011260694E+02  0.22751462910E+01  0.25581038521E+02  0.00000000000E+00 0.  1.
</event>
<event>
 7    1  0.7578565E-012  0.5930193E+02  0.7816164E-02  0.1266605E+00
        -11   -1    0    0    0    0  0.00000000000E+00  0.00000000000E+00  0.45593999997E+02  0.45594000000E+02  0.51100000000E-03 0.  1.
         11   -1    0    0    0    0 -0.00000000000E+00 -0.00000000000E+00 -0.45593999997E+02  0.45594000000E+02  0.51100000000E-03 0. -1.
    9900012    2    1    2    0    0  0.25952238417E+02 -0.18399561256E+02  0.21584690811E+01  0.59301929028E+02  0.49999972645E+02 0.  0.
         12    1    1    2    0    0 -0.25952238417E+02  0.18399561256E+02 -0.21584690811E+01  0.31886070972E+02  0.00000000000E+00 0. -1.
         11    1    3    3    0    0 -0.59692235424E+01 -0.23622439105E+02 -0.53370467078E+01  0.24942640734E+02  0.51100000000E-03 0. -1.
        -11    1    3    3    0    0  0.28027058120E+02  0.49646342829E+01  0.33406154270E+01  0.28658738495E+02  0.51100000000E-03 0.  1.
         12    1    3    3    0    0  0.38944038394E+01  0.25824356620E+00  0.41549003619E+01  0.57005497999E+01  0.00000000000E+00 0. -1.
</event>
<event>
 7    1  0.7578565E-012  0.5930192E+02  0.7816164E-02  0.1266605E+00
        -11   -1    0    0    0    0  0.00000000000E+00  0.00000000000E+00  0.45593999997E+02  0.45594000000E+02  0.51100000000E-03 0.  1.
         11   -1    0    0    0    0 -0.00000000000E+00 -0.00000000000E+00 -0.45593999997E+02  0.45594000000E+02  0.51100000000E-03 0. -1.
    9900012    2    1    2    0    0  0.28115912938E+02  0.12158002977E+02  0.88544198946E+01  0.59301916070E+02  0.49999949011E+02 0.  0.
         12    1    1    2    0    0 -0.28115912938E+02 -0.12158002977E+02 -0.88544198946E+01  0.31886083930E+02  0.00000000000E+00 0. -1.
         11    1    3    3    0    0  0.27579812429E+02  0.19191360960E+02  0.62460791944E+01  0.34175545273E+02  0.51100000000E-03 0.  1.
        -11    1    3    3    0    0 -0.10264677909E+02 -0.92231591895E+01 -0.74889938893E-02  0.13799649791E+02  0.51100000000E-03 0. -1.
         12    1    3    3    0    0  0.10800778418E+02  0.21898012061E+01  0.26158296941E+01  0.11326721006E+02  0.00000000000E+00 0. -1.
</event>
<event>
 7    1  0.7578565E-012  0.5930195E+02  0.7816164E-02  0.1266605E+00
        -11   -1    0    0    0    0  0.00000000000E+00  0.00000000000E+00  0.45593999997E+02  0.45594000000E+02  0.51100000000E-03 0. -1.
         11   -1    0    0    0    0 -0.00000000000E+00 -0.00000000000E+00 -0.45593999997E+02  0.45594000000E+02  0.51100000000E-03 0.  1.
    9900012    2    1    2    0    0 -0.20914803205E+02 -0.24067812363E+02  0.17831662784E+00  0.59301946907E+02  0.50000005251E+02 0.  0.
         12    1    1    2    0    0  0.20914803205E+02  0.24067812363E+02 -0.17831662784E+00  0.31886053093E+02  0.00000000000E+00 0. -1.
         11    1    3    3    0    0  0.89708859013E+00  0.41033398755E+01  0.11674685788E+02  0.12407274260E+02  0.51100000000E-03 0. -1.
        -11    1    3    3    0    0 -0.76383631964E+01 -0.30040641454E+02 -0.59629532876E+01  0.31564878321E+02  0.51100000000E-03 0.  1.
        -12    1    3    3    0    0 -0.14173528598E+02  0.18694892152E+01 -0.55334158721E+01  0.15329794326E+02  0.00000000000E+00 0.  1.
</event>
<event>
 7    1  0.7578565E-012  0.5930196E+02  0.7816164E-02  0.1266605E+00
        -11   -1    0    0    0    0  0.00000000000E+00  0.00000000000E+00  0.45593999997E+02  0.45594000000E+02  0.51100000000E-03 0.  1.
         11   -1    0    0    0    0 -0.00000000000E+00 -0.00000000000E+00 -0.45593999997E+02  0.45594000000E+02  0.51100000000E-03 0. -1.
    9900012    2    1    2    0    0 -0.28268956814E+02  0.86453906703E+01 -0.11951685408E+02  0.59301960998E+02  0.50000030949E+02 0.  0.
         12    1    1    2    0    0  0.28268956814E+02 -0.86453906703E+01  0.11951685408E+02  0.31886039002E+02  0.00000000000E+00 0. -1.
         11    1    3    3    0    0  0.51376281770E+00  0.91602422058E+01 -0.93464741831E+01  0.13096967948E+02  0.51100000000E-03 0. -1.
        -11    1    3    3    0    0 -0.19178412553E+02  0.80009092956E+01  0.14118726015E+02  0.25122987126E+02  0.51100000000E-03 0.  1.
        -12    1    3    3    0    0 -0.96043070786E+01 -0.85157608310E+01 -0.16723937239E+02  0.21082005924E+02  0.00000000000E+00 0.  1.
</event>
<event>
 7    1  0.7578565E-012  0.5930193E+02  0.7816164E-02  0.1266605E+00
        -11   -1    0    0    0    0  0.00000000000E+00  0.00000000000E+00  0.45593999997E+02  0.45594000000E+02  0.51100000000E-03 0. -1.
         11   -1    0    0    0    0 -0.00000000000E+00 -0.00000000000E+00 -0.45593999997E+02  0.45594000000E+02  0.51100000000E-03 0.  1.
    9900012    2    1    2    0    0  0.30403878174E+02 -0.41034270071E+01 -0.86883409789E+01  0.59301934232E+02  0.49999982135E+02 0.  0.
         12    1    1    2    0    0 -0.30403878174E+02  0.41034270071E+01  0.86883409789E+01  0.31886065768E+02  0.00000000000E+00 0. -1.
         11    1    3    3    0    0 -0.75790376375E+00  0.47861393736E+01  0.63397722130E+01  0.79796152911E+01  0.51100000000E-03 0. -1.
        -11    1    3    3    0    0  0.37131515833E+02 -0.23921325465E+01 -0.43370763610E+01  0.37460405735E+02  0.51100000000E-03 0.  1.
        -12    1    3    3    0    0 -0.59697338957E+01 -0.64974338342E+01 -0.10691036831E+02  0.13861913206E+02  0.00000000000E+00 0.  1.
</event>
<event>
 7    1  0.7578565E-012  0.5930198E+02  0.7816164E-02  0.1266605E+00
        -11   -1    0    0    0    0  0.00000000000E+00  0.00000000000E+00  0.45593999997E+02  0.45594000000E+02  0.51100000000E-03 0.  1.
         11   -1    0    0    0    0 -0.00000000000E+00 -0.00000000000E+00 -0.45593999997E+02  0.45594000000E+02  0.51100000000E-03 0. -1.
    9900012    2    1    2    0    0  0.16643987859E+02  0.11452731360E+02  0.24668424144E+02  0.59301975832E+02  0.50000058004E+02 0.  0.
         12    1    1    2    0    0 -0.16643987859E+02 -0.11452731360E+02 -0.24668424144E+02  0.31886024168E+02  0.00000000000E+00 0. -1.
         11    1    3    3    0    0 -0.53674836552E+01 -0.69978582086E+01 -0.95795731115E+01  0.13021064532E+02  0.51100000000E-03 0. -1.
        -11    1    3    3    0    0  0.16867290611E+02  0.18360035157E+02  0.23036277431E+02  0.33945050621E+02  0.51100000000E-03 0.  1.
         12    1    3    3    0    0  0.51441809034E+01  0.90554411853E-01  0.11211719825E+02  0.12335860679E+02  0.00000000000E+00 0. -1.
</event>
<event>
 7    1  0.7578565E-012  0.5930195E+02  0.7816164E-02  0.1266605E+00
        -11   -1    0    0    0    0  0.00000000000E+00  0.00000000000E+00  0.45593999997E+02  0.45594000000E+02  0.51100000000E-03 0.  1.
         11   -1    0    0    0    0 -0.00000000000E+00 -0.00000000000E+00 -0.45593999997E+02  0.45594000000E+02  0.51100000000E-03 0. -1.
    9900012    2    1    2    0    0 -0.24147022726E+02  0.20695635592E+02 -0.23091335593E+01  0.59301950748E+02  0.50000012256E+02 0.  0.
         12    1    1    2    0    0  0.24147022726E+02 -0.20695635592E+02  0.23091335593E+01  0.31886049252E+02  0.00000000000E+00 0. -1.
         11    1    3    3    0    0  0.10726692033E+02  0.87942162686E+01  0.94427483423E+01  0.16779918303E+02  0.51100000000E-03 0. -1.
        -11    1    3    3    0    0 -0.25017946405E+02  0.10258280806E+02  0.74874057295E-01  0.27039518742E+02  0.51100000000E-03 0.  1.
         12    1    3    3    0    0 -0.98557683547E+01  0.16431385178E+01 -0.11826755959E+02  0.15482513703E+02  0.00000000000E+00 0. -1.
</event>
<event>
 7    1  0.7578565E-012  0.5930197E+02  0.7816164E-02  0.1266605E+00
        -11   -1    0    0    0    0  0.00000000000E+00  0.00000000000E+00  0.45593999997E+02  0.45594000000E+02  0.51100000000E-03 0.  1.
         11   -1    0    0    0    0 -0.00000000000E+00 -0.00000000000E+00 -0.45593999997E+02  0.45594000000E+02  0.51100000000E-03 0. -1.
    9900012    2    1    2    0    0  0.21809810765E+02 -0.14144798300E+02  0.18465523240E+02  0.59301973075E+02  0.50000052975E+02 0.  0.
         12    1    1    2    0    0 -0.21809810765E+02  0.14144798300E+02 -0.18465523240E+02  0.31886026925E+02  0.00000000000E+00 0. -1.
         11    1    3    3    0    0  0.11271373446E+02 -0.20669659015E+02 -0.56724468401E+01  0.24216839525E+02  0.51100000000E-03 0. -1.
        -11    1    3    3    0    0  0.13107795344E+02  0.17459830494E+01  0.26145934715E+02  0.29299704059E+02  0.51100000000E-03 0.  1.
         12    1    3    3    0    0 -0.25693580259E+01  0.47788776663E+01 -0.20079646344E+01  0.57854294903E+01  0.00000000000E+00 0. -1.
</event>
<event>
 7    1  0.7578565E-012  0.5930186E+02  0.7816164E-02  0.1266605E+00
        -11   -1    0    0    0    0  0.00000000000E+00  0.00000000000E+00  0.45593999997E+02  0.45594000000E+02  0.51100000000E-03 0. -1.
         11   -1    0    0    0    0 -0.00000000000E+00 -0.00000000000E+00 -0.45593999997E+02  0.45594000000E+02  0.51100000000E-03 0.  1.
    9900012    2    1    2    0    0 -0.38399631770E+01 -0.28444598694E+02 -0.13888309655E+02  0.59301864186E+02  0.49999854388E+02 0.  0.
         12    1    1    2    0    0  0.38399631770E+01  0.28444598694E+02  0.13888309655E+02  0.31886135814E+02  0.00000000000E+00 0. -1.
         11    1    3    3    0    0 -0.29951269660E+00  0.33871430689E+01 -0.13135989998E+01  0.36452693478E+01  0.51100000000E-03 0. -1.
        -11    1    3    3    0    0 -0.82493721503E+01 -0.19395646895E+02  0.14438135845E+02  0.25548053278E+02  0.51100000000E-03 0.  1.
        -12    1    3    3    0    0  0.47089216698E+01 -0.12436094868E+02 -0.27012846500E+02  0.30108541560E+02  0.00000000000E+00 0.  1.
</event>
<event>
 7    1  0.7578565E-012  0.5930197E+02  0.7816164E-02  0.1266605E+00
        -11   -1    0    0    0    0  0.00000000000E+00  0.00000000000E+00  0.45593999997E+02  0.45594000000E+02  0.51100000000E-03 0.  1.
         11   -1    0    0    0    0 -0.00000000000E+00 -0.00000000000E+00 -0.45593999997E+02  0.45594000000E+02  0.51100000000E-03 0. -1.
    9900012    2    1    2    0    0  0.10635357733E+02 -0.57766277586E+00  0.30054523712E+02  0.59301969768E+02  0.50000046945E+02 0.  0.
         12    1    1    2    0    0 -0.10635357733E+02  0.57766277586E+00 -0.30054523712E+02  0.31886030232E+02  0.00000000000E+00 0. -1.
         11    1    3    3    0    0  0.16323537008E+02  0.13922844394E+02  0.27531103053E+00  0.21456450146E+02  0.51100000000E-03 0. -1.
        -11    1    3    3    0    0  0.58147653751E+01 -0.55901747765E+01  0.15423852345E+02  0.17405653444E+02  0.51100000000E-03 0.  1.
         12    1    3    3    0    0 -0.11502944650E+02 -0.89103323933E+01  0.14355360336E+02  0.20439866178E+02  0.00000000000E+00 0. -1.
</event>
<event>
 7    1  0.7578565E-012  0.5930195E+02  0.7816164E-02  0.1266605E+00
        -11   -1    0    0    0    0  0.00000000000E+00  0.00000000000E+00  0.45593999997E+02  0.45594000000E+02  0.51100000000E-03 0. -1.
         11   -1    0    0    0    0 -0.00000000000E+00 -0.00000000000E+00 -0.45593999997E+02  0.45594000000E+02  0.51100000000E-03 0.  1.
    9900012    2    1    2    0    0  0.29285591616E+02 -0.12546568977E+02  0.12874919806E+01  0.59301954385E+02  0.50000018889E+02 0.  0.
         12    1    1    2    0    0 -0.29285591616E+02  0.12546568977E+02 -0.12874919806E+01  0.31886045615E+02  0.00000000000E+00 0. -1.
         11    1    3    3    0    0  0.13073896845E+02  0.38908948262E+01 -0.12215857066E+02  0.18311007765E+02  0.51100000000E-03 0.  1.
        -11    1    3    3    0    0 -0.80810523325E+01 -0.33795252448E+01  0.98319246304E+01  0.13167814545E+02  0.51100000000E-03 0. -1.
        -12    1    3    3    0    0  0.24292747104E+02 -0.13057938558E+02  0.36714244160E+01  0.27823132075E+02  0.00000000000E+00 0.  1.
</event>
<event>
 7    1  0.7578565E-012  0.5930195E+02  0.7816164E-02  0.1266605E+00
        -11   -1    0    0    0    0  0.00000000000E+00  0.00000000000E+00  0.45593999997E+02  0.45594000000E+02  0.51100000000E-03 0.  1.
         11   -1    0    0    0    0 -0.00000000000E+00 -0.00000000000E+00 -0.45593999997E+02  0.45594000000E+02  0.51100000000E-03 0. -1.
    9900012    2    1    2    0    0  0.31325930019E+02  0.27450557229E+01  0.52793223893E+01  0.59301945566E+02  0.50000002805E+02 0.  0.
         12    1    1    2    0    0 -0.31325930019E+02 -0.27450557229E+01 -0.52793223893E+01  0.31886054434E+02  0.00000000000E+00 0. -1.
         11    1    3    3    0    0  0.10713114868E+01  0.49694553329E+01 -0.49760655133E+01  0.71136785745E+01  0.51100000000E-03 0. -1.
        -11    1    3    3    0    0  0.29066934285E+02 -0.71056664532E+01  0.23484039490E+02  0.38037840048E+02  0.51100000000E-03 0.  1.
        -12    1    3    3    0    0  0.11876842472E+01  0.48812668431E+01 -0.13228651587E+02  0.14150426944E+02  0.00000000000E+00 0.  1.
</event>
<event>
 7    1  0.7578565E-012  0.5930198E+02  0.7816164E-02  0.1266605E+00
        -11   -1    0    0    0    0  0.00000000000E+00  0.00000000000E+00  0.45593999997E+02  0.45594000000E+02  0.51100000000E-03 0. -1.
         11   -1    0    0    0    0 -0.00000000000E+00 -0.00000000000E+00 -0.45593999997E+02  0.45594000000E+02  0.51100000000E-03 0.  1.
    9900012    2    1    2    0    0 -0.24859483878E+02 -0.96938727259E+01 -0.17457173316E+02  0.59301984143E+02  0.50000073160E+02 0.  0.
         12    1    1    2    0    0  0.24859483878E+02  0.96938727259E+01  0.17457173316E+02  0.31886015857E+02  0.00000000000E+00 0. -1.
         11    1    3    3    0    0  0.60208384018E+01  0.50850045906E+01 -0.18413943803E+02  0.20029505570E+02  0.51100000000E-03 0. -1.
        -11    1    3    3    0    0 -0.25802407389E+02 -0.18098085207E+02 -0.35487266020E+01  0.31715900995E+02  0.51100000000E-03 0.  1.
        -12    1    3    3    0    0 -0.50779148908E+01  0.33192078901E+01  0.45054970893E+01  0.75565775770E+01  0.00000000000E+00 0.  1.
</event>
<event>
 7    1  0.7578565E-012  0.5930194E+02  0.7816164E-02  0.1266605E+00
        -11   -1    0    0    0    0  0.00000000000E+00  0.00000000000E+00  0.45593999997E+02  0.45594000000E+02  0.51100000000E-03 0.  1.
         11   -1    0    0    0    0 -0.00000000000E+00 -0.00000000000E+00 -0.45593999997E+02  0.45594000000E+02  0.51100000000E-03 0. -1.
    9900012    2    1    2    0    0 -0.74534050158E+01  0.25873764083E+02  0.17079687614E+02  0.59301942810E+02  0.49999997779E+02 0.  0.
         12    1    1    2    0    0  0.74534050158E+01 -0.25873764083E+02 -0.17079687614E+02  0.31886057190E+02  0.00000000000E+00 0. -1.
         11    1    3    3    0    0  0.16466280395E+02 -0.34529382383E+01  0.34247567946E+01  0.17169453454E+02  0.51100000000E-03 0. -1.
        -11    1    3    3    0    0 -0.20271933785E+02  0.15426226618E+02  0.92520087799E+01  0.27102018998E+02  0.51100000000E-03 0.  1.
         12    1    3    3    0    0 -0.36477516261E+01  0.13900475703E+02  0.44029220394E+01  0.15030470358E+02  0.00000000000E+00 0. -1.
</event>
<event>
 7    1  0.7578565E-012  0.5930188E+02  0.7816164E-02  0.1266605E+00
        -11   -1    0    0    0    0  0.00000000000E+00  0.00000000000E+00  0.45593999997E+02  0.45594000000E+02  0.51100000000E-03 0.  1.
         11   -1    0    0    0    0 -0.00000000000E+00 -0.00000000000E+00 -0.45593999997E+02  0.45594000000E+02  0.51100000000E-03 0. -1.
    9900012    2    1    2    0    0  0.17284585346E+02 -0.20595478470E+02  0.17140422822E+02  0.59301878905E+02  0.49999881232E+02 0.  0.
         12    1    1    2    0    0 -0.17284585346E+02  0.20595478470E+02 -0.17140422822E+02  0.31886121095E+02  0.00000000000E+00 0. -1.
         11    1    3    3    0    0  0.19861085777E+02 -0.18749681434E+02 -0.32525649385E+01  0.27506225860E+02  0.51100000000E-03 0. -1.
        -11    1    3    3    0    0 -0.12283233604E+02 -0.56979017204E+01  0.14351256853E+02  0.19730749740E+02  0.51100000000E-03 0.  1.
        -12    1    3    3    0    0  0.97067331730E+01  0.38521046849E+01  0.60417309069E+01  0.12064903305E+02  0.00000000000E+00 0.  1.
</event>
<event>
 7    1  0.7578565E-012  0.5930191E+02  0.7816164E-02  0.1266605E+00
        -11   -1    0    0    0    0  0.00000000000E+00  0.00000000000E+00  0.45593999997E+02  0.45594000000E+02  0.51100000000E-03 0.  1.
         11   -1    0    0    0    0 -0.00000000000E+00 -0.00000000000E+00 -0.45593999997E+02  0.45594000000E+02  0.51100000000E-03 0. -1.
    9900012    2    1    2    0    0  0.25562534203E+02  0.10375204525E+02  0.15988583630E+02  0.59301908513E+02  0.49999935230E+02 0.  0.
         12    1    1    2    0    0 -0.25562534203E+02 -0.10375204525E+02 -0.15988583630E+02  0.31886091487E+02  0.00000000000E+00 0. -1.
         11    1    3    3    0    0 -0.10947189222E+01 -0.41542314794E+01  0.22068982797E+02  0.22483239327E+02  0.51100000000E-03 0. -1.
        -11    1    3    3    0    0  0.23644899832E+02  0.12029219992E+02 -0.12479097512E+02  0.29317423090E+02  0.51100000000E-03 0.  1.
        -12    1    3    3    0    0  0.30123532936E+01  0.25002160125E+01  0.63986983451E+01  0.75012460955E+01  0.00000000000E+00 0.  1.
</event>
<event>
 7    1  0.1258241E-011  0.5930202E+02  0.7816164E-02  0.1266605E+00
        -11   -1    0    0    0    0  0.00000000000E+00  0.00000000000E+00  0.45593999997E+02  0.45594000000E+02  0.51100000000E-03 0. -1.
         11   -1    0    0    0    0 -0.00000000000E+00 -0.00000000000E+00 -0.45593999997E+02  0.45594000000E+02  0.51100000000E-03 0.  1.
    9900012    2    1    2    0    0  0.18101287477E+02 -0.10138391418E+02 -0.24213060600E+02  0.59302017304E+02  0.50000133639E+02 0.  0.
         12    1    1    2    0    0 -0.18101287477E+02  0.10138391418E+02  0.24213060600E+02  0.31885982696E+02  0.00000000000E+00 0. -1.
         11    1    3    3    0    0  0.44385200663E+01 -0.27428429498E+01  0.98314267076E+01  0.11130166180E+02  0.51100000000E-03 0. -1.
        -11    1    3    3    0    0 -0.46046379162E+01 -0.67723125930E+01 -0.27602605762E+02  0.28791852204E+02  0.51100000000E-03 0.  1.
         12    1    3    3    0    0  0.18267405326E+02 -0.62323587565E+00 -0.64418815448E+01  0.19379998920E+02  0.00000000000E+00 0. -1.
</event>
<event>
 7    1  0.7578565E-012  0.5930197E+02  0.7816164E-02  0.1266605E+00
        -11   -1    0    0    0    0  0.00000000000E+00  0.00000000000E+00  0.45593999997E+02  0.45594000000E+02  0.51100000000E-03 0. -1.
         11   -1    0    0    0    0 -0.00000000000E+00 -0.00000000000E+00 -0.45593999997E+02  0.45594000000E+02  0.51100000000E-03 0.  1.
    9900012    2    1    2    0    0  0.12017690999E+02  0.16144919036E+02 -0.24731266057E+02  0.59301971266E+02  0.50000049676E+02 0.  0.
         12    1    1    2    0    0 -0.12017690999E+02 -0.16144919036E+02  0.24731266057E+02  0.31886028734E+02  0.00000000000E+00 0. -1.
         11    1    3    3    0    0  0.18242918882E+01  0.10766096767E+02  0.14258246936E+02  0.17959245152E+02  0.51100000000E-03 0. -1.
        -11    1    3    3    0    0  0.75223125676E+01  0.53590317128E+01 -0.18474834782E+02  0.20654876609E+02  0.51100000000E-03 0.  1.
         12    1    3    3    0    0  0.26710865436E+01  0.19790556927E-01 -0.20514678212E+02  0.20687849504E+02  0.00000000000E+00 0. -1.
</event>
<event>
 7    1  0.7578565E-012  0.5930194E+02  0.7816164E-02  0.1266605E+00
        -11   -1    0    0    0    0  0.00000000000E+00  0.00000000000E+00  0.45593999997E+02  0.45594000000E+02  0.51100000000E-03 0.  1.
         11   -1    0    0    0    0 -0.00000000000E+00 -0.00000000000E+00 -0.45593999997E+02  0.45594000000E+02  0.51100000000E-03 0. -1.
    9900012    2    1    2    0    0  0.15502476336E+02 -0.27735976390E+02  0.26664110180E+01  0.59301938679E+02  0.49999990245E+02 0.  0.
         12    1    1    2    0    0 -0.15502476336E+02  0.27735976390E+02 -0.26664110180E+01  0.31886061321E+02  0.00000000000E+00 0. -1.
         11    1    3    3    0    0  0.62589651820E+01 -0.20765850357E+02  0.18382268136E+02  0.28430669501E+02  0.51100000000E-03 0.  1.
        -11    1    3    3    0    0 -0.22751357308E+00  0.49977370899E+01 -0.14753775817E+02  0.15578929346E+02  0.51100000000E-03 0. -1.
         12    1    3    3    0    0  0.94710247272E+01 -0.11967863122E+02 -0.96208130099E+00  0.15292339832E+02  0.00000000000E+00 0. -1.
</event>
<event>
 7    1  0.7578565E-012  0.5930191E+02  0.7816164E-02  0.1266605E+00
        -11   -1    0    0    0    0  0.00000000000E+00  0.00000000000E+00  0.45593999997E+02  0.45594000000E+02  0.51100000000E-03 0.  1.
         11   -1    0    0    0    0 -0.00000000000E+00 -0.00000000000E+00 -0.45593999997E+02  0.45594000000E+02  0.51100000000E-03 0. -1.
    9900012    2    1    2    0    0  0.11094294418E+01 -0.31662338775E+02 -0.36039360013E+01  0.59301907654E+02  0.49999933663E+02 0.  0.
         12    1    1    2    0    0 -0.11094294418E+01  0.31662338775E+02  0.36039360013E+01  0.31886092346E+02  0.00000000000E+00 0. -1.
         11    1    3    3    0    0  0.62316722814E+01 -0.18654724137E+02 -0.17499429191E+02  0.26326080117E+02  0.51100000000E-03 0. -1.
        -11    1    3    3    0    0 -0.14841014155E+02 -0.13142158871E+02  0.11673863170E+02  0.23005458538E+02  0.51100000000E-03 0.  1.
        -12    1    3    3    0    0  0.97187713153E+01  0.13454423329E+00  0.22216300198E+01  0.99703689989E+01  0.00000000000E+00 0.  1.
</event>
<event>
 7    1  0.7578565E-012  0.5930186E+02  0.7816164E-02  0.1266605E+00
        -11   -1    0    0    0    0  0.00000000000E+00  0.00000000000E+00  0.45593999997E+02  0.45594000000E+02  0.51100000000E-03 0. -1.
         11   -1    0    0    0    0 -0.00000000000E+00 -0.00000000000E+00 -0.45593999997E+02  0.45594000000E+02  0.51100000000E-03 0.  1.
    9900012    2    1    2    0    0 -0.58008685403E+01 -0.28705093061E+02 -0.12613235616E+02  0.59301856360E+02  0.49999840116E+02 0.  0.
         12    1    1    2    0    0  0.58008685403E+01  0.28705093061E+02  0.12613235616E+02  0.31886143640E+02  0.00000000000E+00 0. -1.
         11    1    3    3    0    0 -0.75736117545E+00  0.14001508110E+00  0.37191577856E+00  0.85529046556E+00  0.51100000000E-03 0. -1.
        -11    1    3    3    0    0 -0.25275775196E+02 -0.70027622757E+01 -0.11494894700E+02  0.28636272378E+02  0.51100000000E-03 0.  1.
        -12    1    3    3    0    0  0.20232267831E+02 -0.21842345867E+02 -0.14902566950E+01  0.29810293517E+02  0.00000000000E+00 0.  1.
</event>
<event>
 7    1  0.7578565E-012  0.5930195E+02  0.7816164E-02  0.1266605E+00
        -11   -1    0    0    0    0  0.00000000000E+00  0.00000000000E+00  0.45593999997E+02  0.45594000000E+02  0.51100000000E-03 0.  1.
         11   -1    0    0    0    0 -0.00000000000E+00 -0.00000000000E+00 -0.45593999997E+02  0.45594000000E+02  0.51100000000E-03 0. -1.
    9900012    2    1    2    0    0  0.80262643738E+01  0.70954569448E+01  0.30032548461E+02  0.59301946683E+02  0.50000004843E+02 0.  0.
         12    1    1    2    0    0 -0.80262643738E+01 -0.70954569448E+01 -0.30032548461E+02  0.31886053317E+02  0.00000000000E+00 0. -1.
         11    1    3    3    0    0  0.14615645519E+02  0.80337457788E+00 -0.43908165755E+01  0.15282073652E+02  0.51100000000E-03 0. -1.
        -11    1    3    3    0    0 -0.11596409735E+02  0.85766545826E+01  0.69681145080E+01  0.16018437584E+02  0.51100000000E-03 0.  1.
         12    1    3    3    0    0  0.50070285900E+01 -0.22845722156E+01  0.27455250529E+02  0.28001435447E+02  0.00000000000E+00 0. -1.
</event>
<event>
 7    1  0.7578565E-012  0.5930193E+02  0.7816164E-02  0.1266605E+00
        -11   -1    0    0    0    0  0.00000000000E+00  0.00000000000E+00  0.45593999997E+02  0.45594000000E+02  0.51100000000E-03 0.  1.
         11   -1    0    0    0    0 -0.00000000000E+00 -0.00000000000E+00 -0.45593999997E+02  0.45594000000E+02  0.51100000000E-03 0. -1.
    9900012    2    1    2    0    0 -0.23899277931E+02 -0.84507323351E+01  0.19342466422E+02  0.59301931413E+02  0.49999976994E+02 0.  0.
         12    1    1    2    0    0  0.23899277931E+02  0.84507323351E+01 -0.19342466422E+02  0.31886068587E+02  0.00000000000E+00 0. -1.
         11    1    3    3    0    0  0.59311753175E+01  0.40988750186E+00 -0.68599167481E+01  0.90777368580E+01  0.51100000000E-03 0. -1.
        -11    1    3    3    0    0 -0.22157745626E+02  0.85099867647E+01  0.12666025088E+02  0.26903787052E+02  0.51100000000E-03 0.  1.
        -12    1    3    3    0    0 -0.76727076231E+01 -0.17370606602E+02  0.13536358082E+02  0.23320407503E+02  0.00000000000E+00 0.  1.
</event>
<event>
 7    1  0.7578565E-012  0.5930195E+02  0.7816164E-02  0.1266605E+00
        -11   -1    0    0    0    0  0.00000000000E+00  0.00000000000E+00  0.45593999997E+02  0.45594000000E+02  0.51100000000E-03 0.  1.
         11   -1    0    0    0    0 -0.00000000000E+00 -0.00000000000E+00 -0.45593999997E+02  0.45594000000E+02  0.51100000000E-03 0. -1.
    9900012    2    1    2    0    0  0.17379282866E+02  0.24377590398E+02  0.10973335464E+02  0.59301945403E+02  0.50000002509E+02 0.  0.
         12    1    1    2    0    0 -0.17379282866E+02 -0.24377590398E+02 -0.10973335464E+02  0.31886054597E+02  0.00000000000E+00 0. -1.
         11    1    3    3    0    0 -0.11150999465E+01  0.24435964209E+02 -0.23967489810E+01  0.24578531296E+02  0.51100000000E-03 0. -1.
        -11    1    3    3    0    0  0.64890086994E-01 -0.76520074801E+01  0.12641869646E+02  0.14777492940E+02  0.51100000000E-03 0.  1.
        -12    1    3    3    0    0  0.18429492725E+02  0.75936336692E+01  0.72821479892E+00  0.19945921167E+02  0.00000000000E+00 0.  1.
</event>
<event>
 7    1  0.7578565E-012  0.5930193E+02  0.7816164E-02  0.1266605E+00
        -11   -1    0    0    0    0  0.00000000000E+00  0.00000000000E+00  0.45593999997E+02  0.45594000000E+02  0.51100000000E-03 0.  1.
         11   -1    0    0    0    0 -0.00000000000E+00 -0.00000000000E+00 -0.45593999997E+02  0.45594000000E+02  0.51100000000E-03 0. -1.
    9900012    2    1    2    0    0  0.17778277513E+02  0.24650432727E+02 -0.96442005518E+01  0.59301927974E+02  0.49999970722E+02 0.  0.
         12    1    1    2    0    0 -0.17778277513E+02 -0.24650432727E+02  0.96442005518E+01  0.31886072026E+02  0.00000000000E+00 0. -1.
         11    1    3    3    0    0 -0.21031523856E+01  0.18677875813E+02 -0.23023134094E+02  0.29721221352E+02  0.51100000000E-03 0. -1.
        -11    1    3    3    0    0 -0.14145744294E+01  0.26727019153E+01  0.61451214574E+01  0.68488593453E+01  0.51100000000E-03 0.  1.
         12    1    3    3    0    0  0.21296004328E+02  0.32998549979E+01  0.72338120849E+01  0.22731847277E+02  0.00000000000E+00 0. -1.
</event>
<event>
 7    1  0.7578565E-012  0.5930197E+02  0.7816164E-02  0.1266605E+00
        -11   -1    0    0    0    0  0.00000000000E+00  0.00000000000E+00  0.45593999997E+02  0.45594000000E+02  0.51100000000E-03 0. -1.
         11   -1    0    0    0    0 -0.00000000000E+00 -0.00000000000E+00 -0.45593999997E+02  0.45594000000E+02  0.51100000000E-03 0.  1.
    9900012    2    1    2    0    0  0.13842442012E+02  0.25632643594E+02  0.12964302975E+02  0.59301972180E+02  0.50000051343E+02 0.  0.
         12    1    1    2    0    0 -0.13842442012E+02 -0.25632643594E+02 -0.12964302975E+02  0.31886027820E+02  0.00000000000E+00 0. -1.
         11    1    3    3    0    0 -0.13186593844E+02  0.26122397135E+01  0.16638791364E+02  0.21390638884E+02  0.51100000000E-03 0. -1.
        -11    1    3    3    0    0  0.10578083412E+02  0.14070462660E+02 -0.69008024598E+01  0.18907534027E+02  0.51100000000E-03 0.  1.
         12    1    3    3    0    0  0.16450952445E+02  0.89499412206E+01  0.32263140703E+01  0.19003799269E+02  0.00000000000E+00 0. -1.
</event>
<event>
 7    1  0.7578565E-012  0.5930194E+02  0.7816164E-02  0.1266605E+00
        -11   -1    0    0    0    0  0.00000000000E+00  0.00000000000E+00  0.45593999997E+02  0.45594000000E+02  0.51100000000E-03 0.  1.
         11   -1    0    0    0    0 -0.00000000000E+00 -0.00000000000E+00 -0.45593999997E+02  0.45594000000E+02  0.51100000000E-03 0. -1.
    9900012    2    1    2    0    0  0.21357421972E+02 -0.27813095624E+01  0.23512667116E+02  0.59301942372E+02  0.49999996980E+02 0.  0.
         12    1    1    2    0    0 -0.21357421972E+02  0.27813095624E+01 -0.23512667116E+02  0.31886057628E+02  0.00000000000E+00 0. -1.
         11    1    3    3    0    0  0.32524408689E+01 -0.19476424944E+02  0.25565686407E+01  0.19910940302E+02  0.51100000000E-03 0. -1.
        -11    1    3    3    0    0  0.21698103987E+02  0.18994817448E+02  0.16510440803E+02  0.33229587152E+02  0.51100000000E-03 0.  1.
        -12    1    3    3    0    0 -0.35931228844E+01 -0.22997020666E+01  0.44456576720E+01  0.61614149182E+01  0.00000000000E+00 0.  1.
</event>
<event>
 7    1  0.7578565E-012  0.5930194E+02  0.7816164E-02  0.1266605E+00
        -11   -1    0    0    0    0  0.00000000000E+00  0.00000000000E+00  0.45593999997E+02  0.45594000000E+02  0.51100000000E-03 0. -1.
         11   -1    0    0    0    0 -0.00000000000E+00 -0.00000000000E+00 -0.45593999997E+02  0.45594000000E+02  0.51100000000E-03 0.  1.
    9900012    2    1    2    0    0 -0.31252989555E+01 -0.27290726385E+02 -0.16191649887E+02  0.59301940879E+02  0.49999994258E+02 0.  0.
         12    1    1    2    0    0  0.31252989555E+01  0.27290726385E+02  0.16191649887E+02  0.31886059121E+02  0.00000000000E+00 0. -1.
         11    1    3    3    0    0 -0.69544794064E+01 -0.31112300527E+02 -0.49233455202E+01  0.32258012327E+02  0.51100000000E-03 0. -1.
        -11    1    3    3    0    0  0.31168794008E+01  0.90411539415E+01 -0.16846326692E+02  0.19371528723E+02  0.51100000000E-03 0.  1.
         12    1    3    3    0    0  0.71230105013E+00 -0.52195797996E+01  0.55780223259E+01  0.76723998292E+01  0.00000000000E+00 0. -1.
</event>
<event>
 7    1  0.7578565E-012  0.5930200E+02  0.7816164E-02  0.1266605E+00
        -11   -1    0    0    0    0  0.00000000000E+00  0.00000000000E+00  0.45593999997E+02  0.45594000000E+02  0.51100000000E-03 0.  1.
         11   -1    0    0    0    0 -0.00000000000E+00 -0.00000000000E+00 -0.45593999997E+02  0.45594000000E+02  0.51100000000E-03 0. -1.
    9900012    2    1    2    0    0 -0.50857174992E+01 -0.19690879586E+02  0.24558533211E+02  0.59302002841E+02  0.50000107262E+02 0.  0.
         12    1    1    2    0    0  0.50857174992E+01  0.19690879586E+02 -0.24558533211E+02  0.31885997159E+02  0.00000000000E+00 0. -1.
         11    1    3    3    0    0  0.12829753531E+02  0.23987314899E+01  0.17864301694E+02  0.22124415556E+02  0.51100000000E-03 0. -1.
        -11    1    3    3    0    0 -0.10891164348E+00 -0.18316558584E+02  0.43403977387E+01  0.18824113071E+02  0.51100000000E-03 0.  1.
         12    1    3    3    0    0 -0.17806559387E+02 -0.37730524912E+01  0.23538337780E+01  0.18353474215E+02  0.00000000000E+00 0. -1.
</event>
<event>
 7    1  0.7578565E-012  0.5930193E+02  0.7816164E-02  0.1266605E+00
        -11   -1    0    0    0    0  0.00000000000E+00  0.00000000000E+00  0.45593999997E+02  0.45594000000E+02  0.51100000000E-03 0.  1.
         11   -1    0    0    0    0 -0.00000000000E+00 -0.00000000000E+00 -0.45593999997E+02  0.45594000000E+02  0.51100000000E-03 0. -1.
    9900012    2    1    2    0    0 -0.74414156542E+00 -0.68612047616E+01  0.31130234936E+02  0.59301930869E+02  0.49999976002E+02 0.  0.
         12    1    1    2    0    0  0.74414156542E+00  0.68612047616E+01 -0.31130234936E+02  0.31886069131E+02  0.00000000000E+00 0. -1.
         11    1    3    3    0    0 -0.87045553044E+01 -0.22840599805E+02  0.68278861203E+01  0.25378776795E+02  0.51100000000E-03 0. -1.
        -11    1    3    3    0    0  0.82767989331E+01  0.12940702028E+02  0.79665663138E+01  0.17304142528E+02  0.51100000000E-03 0.  1.
        -12    1    3    3    0    0 -0.31638519405E+00  0.30386930154E+01  0.16335782502E+02  0.16619011546E+02  0.00000000000E+00 0.  1.
</event>
<event>
 7    1  0.7578565E-012  0.5930191E+02  0.7816164E-02  0.1266605E+00
        -11   -1    0    0    0    0  0.00000000000E+00  0.00000000000E+00  0.45593999997E+02  0.45594000000E+02  0.51100000000E-03 0.  1.
         11   -1    0    0    0    0 -0.00000000000E+00 -0.00000000000E+00 -0.45593999997E+02  0.45594000000E+02  0.51100000000E-03 0. -1.
    9900012    2    1    2    0    0  0.22950090182E+02  0.21195064517E+02  0.63863482093E+01  0.59301908319E+02  0.49999934876E+02 0.  0.
         12    1    1    2    0    0 -0.22950090182E+02 -0.21195064517E+02 -0.63863482093E+01  0.31886091681E+02  0.00000000000E+00 0. -1.
         11    1    3    3    0    0 -0.13848379161E+02  0.44264673469E+01  0.23708012188E+01  0.14730645514E+02  0.51100000000E-03 0. -1.
        -11    1    3    3    0    0  0.15284231581E+02  0.14710855781E+02 -0.38728526193E+01  0.21564229653E+02  0.51100000000E-03 0.  1.
         12    1    3    3    0    0  0.21514237761E+02  0.20577413895E+01  0.78883996098E+01  0.23007033153E+02  0.00000000000E+00 0. -1.
</event>
<event>
 7    1  0.7578565E-012  0.5930193E+02  0.7816164E-02  0.1266605E+00
        -11   -1    0    0    0    0  0.00000000000E+00  0.00000000000E+00  0.45593999997E+02  0.45594000000E+02  0.51100000000E-03 0. -1.
         11   -1    0    0    0    0 -0.00000000000E+00 -0.00000000000E+00 -0.45593999997E+02  0.45594000000E+02  0.51100000000E-03 0.  1.
    9900012    2    1    2    0    0  0.16854227536E+02  0.26278330967E+02 -0.64889166398E+01  0.59301926184E+02  0.49999967457E+02 0.  0.
         12    1    1    2    0    0 -0.16854227536E+02 -0.26278330967E+02  0.64889166398E+01  0.31886073816E+02  0.00000000000E+00 0. -1.
         11    1    3    3    0    0  0.11980703562E+01  0.82112488078E+01  0.15066228721E+02  0.17200326383E+02  0.51100000000E-03 0. -1.
        -11    1    3    3    0    0  0.23200695757E+02  0.16285564938E+02 -0.17957964450E+02  0.33555631367E+02  0.51100000000E-03 0.  1.
        -12    1    3    3    0    0 -0.75445385776E+01  0.17815172214E+01 -0.35971809109E+01  0.85459684334E+01  0.00000000000E+00 0.  1.
</event>
<event>
 7    1  0.7578565E-012  0.5930195E+02  0.7816164E-02  0.1266605E+00
        -11   -1    0    0    0    0  0.00000000000E+00  0.00000000000E+00  0.45593999997E+02  0.45594000000E+02  0.51100000000E-03 0.  1.
         11   -1    0    0    0    0 -0.00000000000E+00 -0.00000000000E+00 -0.45593999997E+02  0.45594000000E+02  0.51100000000E-03 0. -1.
    9900012    2    1    2    0    0  0.23058502050E+02  0.21274797105E+02 -0.56928492293E+01  0.59301952252E+02  0.50000014999E+02 0.  0.
         12    1    1    2    0    0 -0.23058502050E+02 -0.21274797105E+02  0.56928492293E+01  0.31886047748E+02  0.00000000000E+00 0. -1.
         11    1    3    3    0    0 -0.51090828687E+01 -0.11147710274E+02 -0.55490316809E+01  0.13459789187E+02  0.51100000000E-03 0. -1.
        -11    1    3    3    0    0  0.28188574816E+02  0.27707032845E+02  0.37822638551E+01  0.39706182634E+02  0.51100000000E-03 0.  1.
         12    1    3    3    0    0 -0.20989897580E-01  0.47154745343E+01 -0.39260814034E+01  0.61359804307E+01  0.00000000000E+00 0. -1.
</event>
<event>
 7    1  0.7578565E-012  0.5930195E+02  0.7816164E-02  0.1266605E+00
        -11   -1    0    0    0    0  0.00000000000E+00  0.00000000000E+00  0.45593999997E+02  0.45594000000E+02  0.51100000000E-03 0.  1.
         11   -1    0    0    0    0 -0.00000000000E+00 -0.00000000000E+00 -0.45593999997E+02  0.45594000000E+02  0.51100000000E-03 0. -1.
    9900012    2    1    2    0    0 -0.88778687311E+01 -0.25292213482E+02  0.17268695429E+02  0.59301945715E+02  0.50000003078E+02 0.  0.
         12    1    1    2    0    0  0.88778687311E+01  0.25292213482E+02 -0.17268695429E+02  0.31886054285E+02  0.00000000000E+00 0. -1.
         11    1    3    3    0    0  0.10521558069E+02 -0.30451355990E+02  0.17153484270E+00  0.32218281926E+02  0.51100000000E-03 0. -1.
        -11    1    3    3    0    0 -0.17516910070E+02  0.34783456318E+01  0.12368613423E+02  0.21723803190E+02  0.51100000000E-03 0.  1.
         12    1    3    3    0    0 -0.18825167296E+01  0.16807968759E+01  0.47285471632E+01  0.53598605998E+01  0.00000000000E+00 0. -1.
</event>
<event>
 7    1  0.7578565E-012  0.5930196E+02  0.7816164E-02  0.1266605E+00
        -11   -1    0    0    0    0  0.00000000000E+00  0.00000000000E+00  0.45593999997E+02  0.45594000000E+02  0.51100000000E-03 0.  1.
         11   -1    0    0    0    0 -0.00000000000E+00 -0.00000000000E+00 -0.45593999997E+02  0.45594000000E+02  0.51100000000E-03 0. -1.
    9900012    2    1    2    0    0  0.69977381515E+01 -0.17297009366E+02  0.25856622962E+02  0.59301955667E+02  0.50000021227E+02 0.  0.
         12    1    1    2    0    0 -0.69977381515E+01  0.17297009366E+02 -0.25856622962E+02  0.31886044333E+02  0.00000000000E+00 0. -1.
         11    1    3    3    0    0 -0.53424871360E+01 -0.90459907672E+01  0.11333661208E+02  0.15453931358E+02  0.51100000000E-03 0. -1.
        -11    1    3    3    0    0  0.27675760434E+01  0.14712621902E+02 -0.13656357436E+00  0.14971284856E+02  0.51100000000E-03 0.  1.
        -12    1    3    3    0    0  0.95726492441E+01 -0.22963640501E+02  0.14659525328E+02  0.28876739453E+02  0.00000000000E+00 0.  1.
</event>
<event>
 7    1  0.7578565E-012  0.5930195E+02  0.7816164E-02  0.1266605E+00
        -11   -1    0    0    0    0  0.00000000000E+00  0.00000000000E+00  0.45593999997E+02  0.45594000000E+02  0.51100000000E-03 0.  1.
         11   -1    0    0    0    0 -0.00000000000E+00 -0.00000000000E+00 -0.45593999997E+02  0.45594000000E+02  0.51100000000E-03 0. -1.
    9900012    2    1    2    0    0 -0.80189714116E+01  0.12439314677E+02  0.28243222702E+02  0.59301951629E+02  0.50000013863E+02 0.  0.
         12    1    1    2    0    0  0.80189714116E+01 -0.12439314677E+02 -0.28243222702E+02  0.31886048371E+02  0.00000000000E+00 0. -1.
         11    1    3    3    0    0 -0.11560783883E+02 -0.14720039103E+02  0.34319107134E+01  0.19029169361E+02  0.51100000000E-03 0. -1.
        -11    1    3    3    0    0  0.91772837726E+00  0.47196044894E+01  0.14799937789E+02  0.15561331907E+02  0.51100000000E-03 0.  1.
         12    1    3    3    0    0  0.26240840939E+01  0.22439749290E+02  0.10011374200E+02  0.24711450360E+02  0.00000000000E+00 0. -1.
</event>
<event>
 7    1  0.7578565E-012  0.5930196E+02  0.7816164E-02  0.1266605E+00
        -11   -1    0    0    0    0  0.00000000000E+00  0.00000000000E+00  0.45593999997E+02  0.45594000000E+02  0.51100000000E-03 0.  1.
         11   -1    0    0    0    0 -0.00000000000E+00 -0.00000000000E+00 -0.45593999997E+02  0.45594000000E+02  0.51100000000E-03 0. -1.
    9900012    2    1    2    0    0 -0.41690180608E+01  0.29988098561E+02  0.10002635765E+02  0.59301960905E+02  0.50000030780E+02 0.  0.
         12    1    1    2    0    0  0.41690180608E+01 -0.29988098561E+02 -0.10002635765E+02  0.31886039095E+02  0.00000000000E+00 0. -1.
         11    1    3    3    0    0 -0.11905806211E+02  0.15267313651E+02  0.13378302708E+02  0.23533339569E+02  0.51100000000E-03 0. -1.
        -11    1    3    3    0    0  0.18517585878E+02  0.65932117625E+01  0.44632868013E+01  0.20156695102E+02  0.51100000000E-03 0.  1.
         12    1    3    3    0    0 -0.10780797729E+02  0.81275731477E+01 -0.78389537445E+01  0.15611926234E+02  0.00000000000E+00 0. -1.
</event>
<event>
 7    1  0.7578565E-012  0.5930194E+02  0.7816164E-02  0.1266605E+00
        -11   -1    0    0    0    0  0.00000000000E+00  0.00000000000E+00  0.45593999997E+02  0.45594000000E+02  0.51100000000E-03 0.  1.
         11   -1    0    0    0    0 -0.00000000000E+00 -0.00000000000E+00 -0.45593999997E+02  0.45594000000E+02  0.51100000000E-03 0. -1.
    9900012    2    1    2    0    0 -0.75359919105E+01  0.85407342223E+01 -0.29782296663E+02  0.59301944903E+02  0.50000001596E+02 0.  0.
         12    1    1    2    0    0  0.75359919105E+01 -0.85407342223E+01  0.29782296663E+02  0.31886055097E+02  0.00000000000E+00 0. -1.
         11    1    3    3    0    0 -0.88472474109E+01  0.94020749174E+01 -0.22174903719E+02  0.25659289833E+02  0.51100000000E-03 0. -1.
        -11    1    3    3    0    0  0.95788560358E+01  0.27979956084E+01  0.98256706592E+01  0.14004537356E+02  0.51100000000E-03 0.  1.
        -12    1    3    3    0    0 -0.82676005354E+01 -0.36593363035E+01 -0.17433063603E+02  0.19638117715E+02  0.00000000000E+00 0.  1.
</event>
<event>
 7    1  0.7578565E-012  0.5930192E+02  0.7816164E-02  0.1266605E+00
        -11   -1    0    0    0    0  0.00000000000E+00  0.00000000000E+00  0.45593999997E+02  0.45594000000E+02  0.51100000000E-03 0.  1.
         11   -1    0    0    0    0 -0.00000000000E+00 -0.00000000000E+00 -0.45593999997E+02  0.45594000000E+02  0.51100000000E-03 0. -1.
    9900012    2    1    2    0    0  0.80654847113E+01  0.27583651540E+02 -0.13813478415E+02  0.59301920563E+02  0.49999957207E+02 0.  0.
         12    1    1    2    0    0 -0.80654847113E+01 -0.27583651540E+02  0.13813478415E+02  0.31886079437E+02  0.00000000000E+00 0. -1.
         11    1    3    3    0    0  0.43573172280E+01  0.92071569495E+01 -0.29530276394E+02  0.31237720414E+02  0.51100000000E-03 0. -1.
        -11    1    3    3    0    0  0.11599674960E+01 -0.67099368141E+00  0.67073676207E+01  0.68399223514E+01  0.51100000000E-03 0.  1.
         12    1    3    3    0    0  0.25481999873E+01  0.19047488272E+02  0.90094303585E+01  0.21224277798E+02  0.00000000000E+00 0. -1.
</event>
<event>
 7    1  0.7578565E-012  0.5930193E+02  0.7816164E-02  0.1266605E+00
        -11   -1    0    0    0    0  0.00000000000E+00  0.00000000000E+00  0.45593999997E+02  0.45594000000E+02  0.51100000000E-03 0. -1.
         11   -1    0    0    0    0 -0.00000000000E+00 -0.00000000000E+00 -0.45593999997E+02  0.45594000000E+02  0.51100000000E-03 0.  1.
    9900012    2    1    2    0    0 -0.10869637521E+01  0.16141000641E+02 -0.27477407183E+02  0.59301932550E+02  0.49999979068E+02 0.  0.
         12    1    1    2    0    0  0.10869637521E+01 -0.16141000641E+02  0.27477407183E+02  0.31886067450E+02  0.00000000000E+00 0. -1.
         11    1    3    3    0    0  0.95517117841E+01 -0.14264048638E+02 -0.15031630010E+02  0.22817716419E+02  0.51100000000E-03 0. -1.
        -11    1    3    3    0    0 -0.20009425232E+01  0.16915182185E+02 -0.11267457374E+02  0.20422604028E+02  0.51100000000E-03 0.  1.
         12    1    3    3    0    0 -0.86377330131E+01  0.13489867094E+02 -0.11783197982E+01  0.16061612104E+02  0.00000000000E+00 0. -1.
</event>
<event>
 7    1  0.7578565E-012  0.5930195E+02  0.7816164E-02  0.1266605E+00
        -11   -1    0    0    0    0  0.00000000000E+00  0.00000000000E+00  0.45593999997E+02  0.45594000000E+02  0.51100000000E-03 0. -1.
         11   -1    0    0    0    0 -0.00000000000E+00 -0.00000000000E+00 -0.45593999997E+02  0.45594000000E+02  0.51100000000E-03 0.  1.
    9900012    2    1    2    0    0 -0.78165657806E+01  0.19349412779E+02 -0.24108542479E+02  0.59301948254E+02  0.50000007707E+02 0.  0.
         12    1    1    2    0    0  0.78165657806E+01 -0.19349412779E+02  0.24108542479E+02  0.31886051746E+02  0.00000000000E+00 0. -1.
         11    1    3    3    0    0 -0.72573320384E+01  0.15620800862E+01  0.84379934292E+01  0.11238714156E+02  0.51100000000E-03 0. -1.
        -11    1    3    3    0    0 -0.72538764514E+01  0.20617209636E+02 -0.34220697763E+02  0.40604731404E+02  0.51100000000E-03 0.  1.
        -12    1    3    3    0    0  0.66946427092E+01 -0.28298769434E+01  0.16741618544E+01  0.74585026938E+01  0.00000000000E+00 0.  1.
</event>
<event>
 7    1  0.7578565E-012  0.5930191E+02  0.7816164E-02  0.1266605E+00
        -11   -1    0    0    0    0  0.00000000000E+00  0.00000000000E+00  0.45593999997E+02  0.45594000000E+02  0.51100000000E-03 0. -1.
         11   -1    0    0    0    0 -0.00000000000E+00 -0.00000000000E+00 -0.45593999997E+02  0.45594000000E+02  0.51100000000E-03 0.  1.
    9900012    2    1    2    0    0 -0.20322482462E+02  0.14341636845E+02 -0.19950857763E+02  0.59301912653E+02  0.49999942780E+02 0.  0.
         12    1    1    2    0    0  0.20322482462E+02 -0.14341636845E+02  0.19950857763E+02  0.31886087347E+02  0.00000000000E+00 0. -1.
         11    1    3    3    0    0  0.10886386465E+01 -0.82081084979E+01 -0.10811299300E+02  0.13617722718E+02  0.51100000000E-03 0. -1.
        -11    1    3    3    0    0 -0.14442135982E+01  0.23991050219E+02 -0.94495764292E+00  0.24053049468E+02  0.51100000000E-03 0.  1.
        -12    1    3    3    0    0 -0.19966907510E+02 -0.14413048756E+01 -0.81946008207E+01  0.21631140466E+02  0.00000000000E+00 0.  1.
</event>
<event>
 7    1  0.7578565E-012  0.5930198E+02  0.7816164E-02  0.1266605E+00
        -11   -1    0    0    0    0  0.00000000000E+00  0.00000000000E+00  0.45593999997E+02  0.45594000000E+02  0.51100000000E-03 0. -1.
         11   -1    0    0    0    0 -0.00000000000E+00 -0.00000000000E+00 -0.45593999997E+02  0.45594000000E+02  0.51100000000E-03 0.  1.
    9900012    2    1    2    0    0 -0.47154855640E+01 -0.29146862468E+02 -0.12039231817E+02  0.59301976438E+02  0.50000059109E+02 0.  0.
         12    1    1    2    0    0  0.47154855640E+01  0.29146862468E+02  0.12039231817E+02  0.31886023562E+02  0.00000000000E+00 0. -1.
         11    1    3    3    0    0 -0.76801422422E+01 -0.21295729050E+02 -0.19045580523E+01  0.22718274633E+02  0.51100000000E-03 0. -1.
        -11    1    3    3    0    0  0.35859477756E+01  0.13125267711E+02 -0.72000464712E+01  0.15393906047E+02  0.51100000000E-03 0.  1.
        -12    1    3    3    0    0 -0.62129109740E+00 -0.20976401129E+02 -0.29346272939E+01  0.21189795759E+02  0.00000000000E+00 0.  1.
</event>
<event>
 7    1  0.7578565E-012  0.5930194E+02  0.7816164E-02  0.1266605E+00
        -11   -1    0    0    0    0  0.00000000000E+00  0.00000000000E+00  0.45593999997E+02  0.45594000000E+02  0.51100000000E-03 0. -1.
         11   -1    0    0    0    0 -0.00000000000E+00 -0.00000000000E+00 -0.45593999997E+02  0.45594000000E+02  0.51100000000E-03 0.  1.
    9900012    2    1    2    0    0  0.15731948220E+02  0.16948502861E+02 -0.21953929282E+02  0.59301937920E+02  0.49999988861E+02 0.  0.
         12    1    1    2    0    0 -0.15731948220E+02 -0.16948502861E+02  0.21953929282E+02  0.31886062080E+02  0.00000000000E+00 0. -1.
         11    1    3    3    0    0  0.13158582278E+02 -0.13348083741E+02 -0.19332164007E+02  0.26926793210E+02  0.51100000000E-03 0.  1.
        -11    1    3    3    0    0 -0.16846785754E+01  0.25977936220E+02 -0.80837706864E+00  0.26045053002E+02  0.51100000000E-03 0. -1.
         12    1    3    3    0    0  0.42580445174E+01  0.43186503827E+01 -0.18133882062E+01  0.63300917076E+01  0.00000000000E+00 0. -1.
</event>
<event>
 7    1  0.7578565E-012  0.5930194E+02  0.7816164E-02  0.1266605E+00
        -11   -1    0    0    0    0  0.00000000000E+00  0.00000000000E+00  0.45593999997E+02  0.45594000000E+02  0.51100000000E-03 0. -1.
         11   -1    0    0    0    0 -0.00000000000E+00 -0.00000000000E+00 -0.45593999997E+02  0.45594000000E+02  0.51100000000E-03 0.  1.
    9900012    2    1    2    0    0  0.85897481162E+01 -0.22217669610E+02 -0.21196987942E+02  0.59301938571E+02  0.49999990049E+02 0.  0.
         12    1    1    2    0    0 -0.85897481162E+01  0.22217669610E+02  0.21196987942E+02  0.31886061429E+02  0.00000000000E+00 0. -1.
         11    1    3    3    0    0  0.14290414303E+02 -0.26447880333E+01  0.49539487283E+01  0.15354232411E+02  0.51100000000E-03 0. -1.
        -11    1    3    3    0    0 -0.48958839267E+01 -0.27033205838E+02 -0.22918831888E+02  0.35777601271E+02  0.51100000000E-03 0.  1.
         12    1    3    3    0    0 -0.80478225967E+00  0.74603242615E+01 -0.32321047826E+01  0.81701048891E+01  0.00000000000E+00 0. -1.
</event>
<event>
 7    1  0.7578565E-012  0.5930194E+02  0.7816164E-02  0.1266605E+00
        -11   -1    0    0    0    0  0.00000000000E+00  0.00000000000E+00  0.45593999997E+02  0.45594000000E+02  0.51100000000E-03 0. -1.
         11   -1    0    0    0    0 -0.00000000000E+00 -0.00000000000E+00 -0.45593999997E+02  0.45594000000E+02  0.51100000000E-03 0.  1.
    9900012    2    1    2    0    0 -0.10482645128E+02 -0.58319013493E+01 -0.29543590946E+02  0.59301942103E+02  0.49999996490E+02 0.  0.
         12    1    1    2    0    0  0.10482645128E+02  0.58319013493E+01  0.29543590946E+02  0.31886057897E+02  0.00000000000E+00 0. -1.
         11    1    3    3    0    0 -0.19948466136E+01  0.14398230952E+02 -0.26266305624E+02  0.30020114572E+02  0.51100000000E-03 0. -1.
        -11    1    3    3    0    0  0.24709623468E+01 -0.13460961689E+02  0.42901517781E+01  0.14342543256E+02  0.51100000000E-03 0.  1.
        -12    1    3    3    0    0 -0.10958760861E+02 -0.67691706116E+01 -0.75674371000E+01  0.14939284274E+02  0.00000000000E+00 0.  1.
</event>
<event>
 7    1  0.7578565E-012  0.5930192E+02  0.7816164E-02  0.1266605E+00
        -11   -1    0    0    0    0  0.00000000000E+00  0.00000000000E+00  0.45593999997E+02  0.45594000000E+02  0.51100000000E-03 0.  1.
         11   -1    0    0    0    0 -0.00000000000E+00 -0.00000000000E+00 -0.45593999997E+02  0.45594000000E+02  0.51100000000E-03 0. -1.
    9900012    2    1    2    0    0 -0.26796959854E+02  0.85342450838E+01  0.15027024399E+02  0.59301923746E+02  0.49999963011E+02 0.  0.
         12    1    1    2    0    0  0.26796959854E+02 -0.85342450838E+01 -0.15027024399E+02  0.31886076254E+02  0.00000000000E+00 0. -1.
         11    1    3    3    0    0 -0.25905602593E+01 -0.14581770197E+01  0.20086095841E+02  0.20304889289E+02  0.51100000000E-03 0. -1.
        -11    1    3    3    0    0 -0.17000018564E+02  0.14838312806E+01 -0.15987828652E+02  0.23384034120E+02  0.51100000000E-03 0.  1.
         12    1    3    3    0    0 -0.72063810309E+01  0.85085908229E+01  0.10928757210E+02  0.15613000337E+02  0.00000000000E+00 0. -1.
</event>
<event>
 7    1  0.7578565E-012  0.5930194E+02  0.7816164E-02  0.1266605E+00
        -11   -1    0    0    0    0  0.00000000000E+00  0.00000000000E+00  0.45593999997E+02  0.45594000000E+02  0.51100000000E-03 0.  1.
         11   -1    0    0    0    0 -0.00000000000E+00 -0.00000000000E+00 -0.45593999997E+02  0.45594000000E+02  0.51100000000E-03 0. -1.
    9900012    2    1    2    0    0  0.13201990797E+02 -0.23994903063E+02  0.16330114106E+02  0.59301944103E+02  0.50000000136E+02 0.  0.
         12    1    1    2    0    0 -0.13201990797E+02  0.23994903063E+02 -0.16330114106E+02  0.31886055897E+02  0.00000000000E+00 0. -1.
         11    1    3    3    0    0 -0.14016164101E+02  0.41118080313E+01  0.14052982733E+01  0.14674286521E+02  0.51100000000E-03 0. -1.
        -11    1    3    3    0    0  0.10460503824E+02 -0.24559153299E+01  0.74932964467E+01  0.13099738633E+02  0.51100000000E-03 0.  1.
        -12    1    3    3    0    0  0.16757651074E+02 -0.25650795764E+02  0.74315193861E+01  0.31527918949E+02  0.00000000000E+00 0.  1.
</event>
<event>
 7    1  0.7578565E-012  0.5930195E+02  0.7816164E-02  0.1266605E+00
        -11   -1    0    0    0    0  0.00000000000E+00  0.00000000000E+00  0.45593999997E+02  0.45594000000E+02  0.51100000000E-03 0. -1.
         11   -1    0    0    0    0 -0.00000000000E+00 -0.00000000000E+00 -0.45593999997E+02  0.45594000000E+02  0.51100000000E-03 0.  1.
    9900012    2    1    2    0    0 -0.16721171347E+02  0.26802533856E+02  0.43297653151E+01  0.59301948818E+02  0.50000008736E+02 0.  0.
         12    1    1    2    0    0  0.16721171347E+02 -0.26802533856E+02 -0.43297653151E+01  0.31886051182E+02  0.00000000000E+00 0. -1.
         11    1    3    3    0    0 -0.11549157625E+02  0.34384941527E+02  0.95458727198E+01  0.37507744959E+02  0.51100000000E-03 0. -1.
        -11    1    3    3    0    0 -0.10043767505E+02 -0.60184325127E+01  0.30254904885E+01  0.12093485377E+02  0.51100000000E-03 0.  1.
         12    1    3    3    0    0  0.48717537829E+01 -0.15639751588E+01 -0.82415978932E+01  0.97007184812E+01  0.00000000000E+00 0. -1.
</event>
<event>
 7    1  0.7578565E-012  0.5930195E+02  0.7816164E-02  0.1266605E+00
        -11   -1    0    0    0    0  0.00000000000E+00  0.00000000000E+00  0.45593999997E+02  0.45594000000E+02  0.51100000000E-03 0. -1.
         11   -1    0    0    0    0 -0.00000000000E+00 -0.00000000000E+00 -0.45593999997E+02  0.45594000000E+02  0.51100000000E-03 0.  1.
    9900012    2    1    2    0    0  0.17724492970E+02 -0.63024319782E+01 -0.25745717396E+02  0.59301948753E+02  0.50000008618E+02 0.  0.
         12    1    1    2    0    0 -0.17724492970E+02  0.63024319782E+01  0.25745717396E+02  0.31886051247E+02  0.00000000000E+00 0. -1.
         11    1    3    3    0    0 -0.12043793081E+02 -0.63629236234E+01  0.38893792003E+01  0.14165698699E+02  0.51100000000E-03 0. -1.
        -11    1    3    3    0    0  0.13174043320E+02 -0.21763136591E+01 -0.30164402041E+01  0.13689071200E+02  0.51100000000E-03 0.  1.
         12    1    3    3    0    0  0.16594242730E+02  0.22368053043E+01 -0.26618656392E+02  0.31447178854E+02  0.00000000000E+00 0. -1.
</event>
<event>
 7    1  0.7578565E-012  0.5930192E+02  0.7816164E-02  0.1266605E+00
        -11   -1    0    0    0    0  0.00000000000E+00  0.00000000000E+00  0.45593999997E+02  0.45594000000E+02  0.51100000000E-03 0.  1.
         11   -1    0    0    0    0 -0.00000000000E+00 -0.00000000000E+00 -0.45593999997E+02  0.45594000000E+02  0.51100000000E-03 0. -1.
    9900012    2    1    2    0    0  0.28080513786E+01  0.29264000739E+02  0.12347272788E+02  0.59301920952E+02  0.49999957915E+02 0.  0.
         12    1    1    2    0    0 -0.28080513786E+01 -0.29264000739E+02 -0.12347272788E+02  0.31886079048E+02  0.00000000000E+00 0. -1.
         11    1    3    3    0    0  0.76462601886E+01 -0.13439881576E+01 -0.40151825555E+01  0.87403255234E+01  0.51100000000E-03 0. -1.
        -11    1    3    3    0    0 -0.72998961213E+01  0.29176443926E+02  0.26467189214E+02  0.40063268322E+02  0.51100000000E-03 0.  1.
        -12    1    3    3    0    0  0.24616873112E+01  0.14315449708E+01 -0.10104733871E+02  0.10498327106E+02  0.00000000000E+00 0.  1.
</event>
<event>
 7    1  0.7578565E-012  0.5930193E+02  0.7816164E-02  0.1266605E+00
        -11   -1    0    0    0    0  0.00000000000E+00  0.00000000000E+00  0.45593999997E+02  0.45594000000E+02  0.51100000000E-03 0. -1.
         11   -1    0    0    0    0 -0.00000000000E+00 -0.00000000000E+00 -0.45593999997E+02  0.45594000000E+02  0.51100000000E-03 0.  1.
    9900012    2    1    2    0    0  0.24338436577E+02  0.18623675659E+02  0.88045776677E+01  0.59301931287E+02  0.49999976764E+02 0.  0.
         12    1    1    2    0    0 -0.24338436577E+02 -0.18623675659E+02 -0.88045776677E+01  0.31886068713E+02  0.00000000000E+00 0. -1.
         11    1    3    3    0    0  0.17391718541E+02  0.22378087542E+02  0.23745938364E+02  0.36974589449E+02  0.51100000000E-03 0. -1.
        -11    1    3    3    0    0  0.58626201791E+00 -0.84246719823E+01 -0.57670568648E+01  0.10226326139E+02  0.51100000000E-03 0.  1.
        -12    1    3    3    0    0  0.63604560181E+01  0.46702600986E+01 -0.91743038317E+01  0.12101015699E+02  0.00000000000E+00 0.  1.
</event>
<event>
 7    1  0.7578565E-012  0.5930193E+02  0.7816164E-02  0.1266605E+00
        -11   -1    0    0    0    0  0.00000000000E+00  0.00000000000E+00  0.45593999997E+02  0.45594000000E+02  0.51100000000E-03 0.  1.
         11   -1    0    0    0    0 -0.00000000000E+00 -0.00000000000E+00 -0.45593999997E+02  0.45594000000E+02  0.51100000000E-03 0. -1.
    9900012    2    1    2    0    0  0.28426419373E+02  0.61275898125E+01 -0.13081005462E+02  0.59301931268E+02  0.49999976729E+02 0.  0.
         12    1    1    2    0    0 -0.28426419373E+02 -0.61275898125E+01  0.13081005462E+02  0.31886068732E+02  0.00000000000E+00 0. -1.
         11    1    3    3    0    0  0.21085885072E+02  0.10177522466E+02 -0.30722563154E+02  0.38627353001E+02  0.51100000000E-03 0. -1.
        -11    1    3    3    0    0 -0.61149486239E+00 -0.48599088108E+00  0.64175282556E+01  0.64648884194E+01  0.51100000000E-03 0.  1.
         12    1    3    3    0    0  0.79520291639E+01 -0.35639417727E+01  0.11224029436E+02  0.14209689848E+02  0.00000000000E+00 0. -1.
</event>
<event>
 7    1  0.7578565E-012  0.5930194E+02  0.7816164E-02  0.1266605E+00
        -11   -1    0    0    0    0  0.00000000000E+00  0.00000000000E+00  0.45593999997E+02  0.45594000000E+02  0.51100000000E-03 0.  1.
         11   -1    0    0    0    0 -0.00000000000E+00 -0.00000000000E+00 -0.45593999997E+02  0.45594000000E+02  0.51100000000E-03 0. -1.
    9900012    2    1    2    0    0  0.25085243372E+02 -0.48989942190E+01  0.19064391481E+02  0.59301943456E+02  0.49999998957E+02 0.  0.
         12    1    1    2    0    0 -0.25085243372E+02  0.48989942190E+01 -0.19064391481E+02  0.31886056544E+02  0.00000000000E+00 0. -1.
         11    1    3    3    0    0 -0.47045503360E+01 -0.52380018385E+01 -0.94251364994E+01  0.11764465794E+02  0.51100000000E-03 0. -1.
        -11    1    3    3    0    0  0.26268727179E+02  0.94626341373E+01  0.18128744024E+02  0.33290221276E+02  0.51100000000E-03 0.  1.
        -12    1    3    3    0    0  0.35210665288E+01 -0.91236265178E+01  0.10360783956E+02  0.14247256386E+02  0.00000000000E+00 0.  1.
</event>
<event>
 7    1  0.7578565E-012  0.5930189E+02  0.7816164E-02  0.1266605E+00
        -11   -1    0    0    0    0  0.00000000000E+00  0.00000000000E+00  0.45593999997E+02  0.45594000000E+02  0.51100000000E-03 0. -1.
         11   -1    0    0    0    0 -0.00000000000E+00 -0.00000000000E+00 -0.45593999997E+02  0.45594000000E+02  0.51100000000E-03 0.  1.
    9900012    2    1    2    0    0 -0.19920415982E+02 -0.21008043423E+02  0.13362755752E+02  0.59301888562E+02  0.49999898843E+02 0.  0.
         12    1    1    2    0    0  0.19920415982E+02  0.21008043423E+02 -0.13362755752E+02  0.31886111438E+02  0.00000000000E+00 0. -1.
         11    1    3    3    0    0 -0.21166859339E+01 -0.16250404135E+02  0.24285623245E+02  0.29297567997E+02  0.51100000000E-03 0. -1.
        -11    1    3    3    0    0 -0.22103639467E+02 -0.61708009464E+01 -0.11062402384E+02  0.25475996718E+02  0.51100000000E-03 0.  1.
         12    1    3    3    0    0  0.42999094183E+01  0.14131616579E+01  0.13953489165E+00  0.45283238469E+01  0.00000000000E+00 0. -1.
</event>
<event>
 7    1  0.7578565E-012  0.5930195E+02  0.7816164E-02  0.1266605E+00
        -11   -1    0    0    0    0  0.00000000000E+00  0.00000000000E+00  0.45593999997E+02  0.45594000000E+02  0.51100000000E-03 0.  1.
         11   -1    0    0    0    0 -0.00000000000E+00 -0.00000000000E+00 -0.45593999997E+02  0.45594000000E+02  0.51100000000E-03 0. -1.
    9900012    2    1    2    0    0 -0.27126922980E+02  0.37667535238E+01  0.16329776202E+02  0.59301953314E+02  0.50000016936E+02 0.  0.
         12    1    1    2    0    0  0.27126922980E+02 -0.37667535238E+01 -0.16329776202E+02  0.31886046686E+02  0.00000000000E+00 0. -1.
         11    1    3    3    0    0 -0.18379879616E+02  0.15679944906E+02  0.14940698888E+02  0.28406075591E+02  0.51100000000E-03 0.  1.
        -11    1    3    3    0    0 -0.91600056127E+01 -0.20034567289E+02  0.39282711457E+01  0.22376793867E+02  0.51100000000E-03 0. -1.
         12    1    3    3    0    0  0.41296224850E+00  0.81213759066E+01 -0.25391938315E+01  0.85190838562E+01  0.00000000000E+00 0. -1.
</event>
<event>
 7    1  0.7578565E-012  0.5930193E+02  0.7816164E-02  0.1266605E+00
        -11   -1    0    0    0    0  0.00000000000E+00  0.00000000000E+00  0.45593999997E+02  0.45594000000E+02  0.51100000000E-03 0.  1.
         11   -1    0    0    0    0 -0.00000000000E+00 -0.00000000000E+00 -0.45593999997E+02  0.45594000000E+02  0.51100000000E-03 0. -1.
    9900012    2    1    2    0    0  0.23138802326E+02  0.61669690045E+01  0.21054354545E+02  0.59301928981E+02  0.49999972558E+02 0.  0.
         12    1    1    2    0    0 -0.23138802326E+02 -0.61669690045E+01 -0.21054354545E+02  0.31886071019E+02  0.00000000000E+00 0. -1.
         11    1    3    3    0    0  0.89234379182E+01 -0.26888261918E+01 -0.12621825031E+02  0.15689741806E+02  0.51100000000E-03 0. -1.
        -11    1    3    3    0    0  0.29235870567E+01  0.13854899522E+02  0.24231856557E+02  0.28065788328E+02  0.51100000000E-03 0.  1.
         12    1    3    3    0    0  0.11291777351E+02 -0.49991043256E+01  0.94443230190E+01  0.15546398846E+02  0.00000000000E+00 0. -1.
</event>
<event>
 7    1  0.7578565E-012  0.5930187E+02  0.7816164E-02  0.1266605E+00
        -11   -1    0    0    0    0  0.00000000000E+00  0.00000000000E+00  0.45593999997E+02  0.45594000000E+02  0.51100000000E-03 0.  1.
         11   -1    0    0    0    0 -0.00000000000E+00 -0.00000000000E+00 -0.45593999997E+02  0.45594000000E+02  0.51100000000E-03 0. -1.
    9900012    2    1    2    0    0  0.27219158195E+02  0.13615345817E+02 -0.95113100026E+01  0.59301870844E+02  0.49999866531E+02 0.  0.
         12    1    1    2    0    0 -0.27219158195E+02 -0.13615345817E+02  0.95113100026E+01  0.31886129156E+02  0.00000000000E+00 0. -1.
         11    1    3    3    0    0  0.18033832623E+02  0.20303787073E+02 -0.12600434412E+02  0.29937164799E+02  0.51100000000E-03 0. -1.
        -11    1    3    3    0    0  0.39348490106E+00 -0.16141866989E+02  0.31686238402E+01  0.16454630885E+02  0.51100000000E-03 0.  1.
        -12    1    3    3    0    0  0.87918406707E+01  0.94534257334E+01 -0.79499430334E-01  0.12910075160E+02  0.00000000000E+00 0.  1.
</event>
<event>
 7    1  0.7578565E-012  0.5930196E+02  0.7816164E-02  0.1266605E+00
        -11   -1    0    0    0    0  0.00000000000E+00  0.00000000000E+00  0.45593999997E+02  0.45594000000E+02  0.51100000000E-03 0.  1.
         11   -1    0    0    0    0 -0.00000000000E+00 -0.00000000000E+00 -0.45593999997E+02  0.45594000000E+02  0.51100000000E-03 0. -1.
    9900012    2    1    2    0    0 -0.13383448256E+02  0.19527975500E+01  0.28875412551E+02  0.59301959865E+02  0.50000028883E+02 0.  0.
         12    1    1    2    0    0  0.13383448256E+02 -0.19527975500E+01 -0.28875412551E+02  0.31886040135E+02  0.00000000000E+00 0. -1.
         11    1    3    3    0    0 -0.99002601643E+01 -0.95813576916E+01  0.29350851322E+02  0.32423603133E+02  0.51100000000E-03 0. -1.
        -11    1    3    3    0    0 -0.94062264513E+01  0.11866200624E+02  0.75326864337E+01  0.16912278926E+02  0.51100000000E-03 0.  1.
         12    1    3    3    0    0  0.59230383592E+01 -0.33204538261E+00 -0.80081252047E+01  0.99660778060E+01  0.00000000000E+00 0. -1.
</event>
<event>
 7    1  0.7578565E-012  0.5930171E+02  0.7816164E-02  0.1266606E+00
        -11   -1    0    0    0    0  0.00000000000E+00  0.00000000000E+00  0.45593999997E+02  0.45594000000E+02  0.51100000000E-03 0. -1.
         11   -1    0    0    0    0 -0.00000000000E+00 -0.00000000000E+00 -0.45593999997E+02  0.45594000000E+02  0.51100000000E-03 0.  1.
    9900012    2    1    2    0    0 -0.15246956319E+02  0.80831965941E+01 -0.26812828432E+02  0.59301709644E+02  0.49999572538E+02 0.  0.
         12    1    1    2    0    0  0.15246956319E+02 -0.80831965941E+01  0.26812828432E+02  0.31886290356E+02  0.00000000000E+00 0. -1.
         11    1    3    3    0    0 -0.26232193106E+02  0.10880465308E+02 -0.26095742887E+02  0.38568125150E+02  0.51100000000E-03 0. -1.
        -11    1    3    3    0    0  0.76727593490E+01 -0.15088542531E+01 -0.88789207414E+01  0.11831445853E+02  0.51100000000E-03 0.  1.
         12    1    3    3    0    0  0.33124774381E+01 -0.12884144606E+01  0.81618351966E+01  0.89021386406E+01  0.00000000000E+00 0. -1.
</event>
<event>
 7    1  0.7578565E-012  0.5930186E+02  0.7816164E-02  0.1266605E+00
        -11   -1    0    0    0    0  0.00000000000E+00  0.00000000000E+00  0.45593999997E+02  0.45594000000E+02  0.51100000000E-03 0.  1.
         11   -1    0    0    0    0 -0.00000000000E+00 -0.00000000000E+00 -0.45593999997E+02  0.45594000000E+02  0.51100000000E-03 0. -1.
    9900012    2    1    2    0    0 -0.76447239546E+01  0.11299716285E+02  0.28820140010E+02  0.59301860963E+02  0.49999848511E+02 0.  0.
         12    1    1    2    0    0  0.76447239546E+01 -0.11299716285E+02 -0.28820140010E+02  0.31886139037E+02  0.00000000000E+00 0. -1.
         11    1    3    3    0    0 -0.21852731953E+02  0.14845868523E+02  0.40300650425E+01  0.26724204955E+02  0.51100000000E-03 0. -1.
        -11    1    3    3    0    0 -0.14969523573E+01 -0.50023756624E+01  0.78869937168E+01  0.94588212150E+01  0.51100000000E-03 0.  1.
         12    1    3    3    0    0  0.15704960355E+02  0.14562234245E+01  0.16903081251E+02  0.23118834793E+02  0.00000000000E+00 0. -1.
</event>
<event>
 7    1  0.7578565E-012  0.5930196E+02  0.7816164E-02  0.1266605E+00
        -11   -1    0    0    0    0  0.00000000000E+00  0.00000000000E+00  0.45593999997E+02  0.45594000000E+02  0.51100000000E-03 0.  1.
         11   -1    0    0    0    0 -0.00000000000E+00 -0.00000000000E+00 -0.45593999997E+02  0.45594000000E+02  0.51100000000E-03 0. -1.
    9900012    2    1    2    0    0 -0.28658462637E+00  0.15722847778E+01  0.31845967512E+02  0.59301955138E+02  0.50000020262E+02 0.  0.
         12    1    1    2    0    0  0.28658462637E+00 -0.15722847778E+01 -0.31845967512E+02  0.31886044862E+02  0.00000000000E+00 0. -1.
         11    1    3    3    0    0  0.12893441875E+02 -0.48814503101E+00  0.29981269315E+02  0.32639786135E+02  0.51100000000E-03 0.  1.
        -11    1    3    3    0    0 -0.71067778228E+01  0.82503168852E+01 -0.80117720887E+01  0.13518968599E+02  0.51100000000E-03 0. -1.
         12    1    3    3    0    0 -0.60732486786E+01 -0.61898870763E+01  0.98764702864E+01  0.13143200404E+02  0.00000000000E+00 0. -1.
</event>
<event>
 7    1  0.7578565E-012  0.5930168E+02  0.7816164E-02  0.1266606E+00
        -11   -1    0    0    0    0  0.00000000000E+00  0.00000000000E+00  0.45593999997E+02  0.45594000000E+02  0.51100000000E-03 0. -1.
         11   -1    0    0    0    0 -0.00000000000E+00 -0.00000000000E+00 -0.45593999997E+02  0.45594000000E+02  0.51100000000E-03 0.  1.
    9900012    2    1    2    0    0  0.78480846498E+01 -0.19861637232E+02 -0.23678268782E+02  0.59301678815E+02  0.49999516313E+02 0.  0.
         12    1    1    2    0    0 -0.78480846498E+01  0.19861637232E+02  0.23678268782E+02  0.31886321185E+02  0.00000000000E+00 0. -1.
         11    1    3    3    0    0  0.11605816718E+02  0.91499216356E+00 -0.46948687876E+01  0.12552847707E+02  0.51100000000E-03 0. -1.
        -11    1    3    3    0    0 -0.14959258486E+00 -0.31450572576E+02 -0.13740579677E+02  0.34321486322E+02  0.51100000000E-03 0.  1.
        -12    1    3    3    0    0 -0.36081394835E+01  0.10673943180E+02 -0.52428203176E+01  0.12427344786E+02  0.00000000000E+00 0.  1.
</event>
<event>
 7    1  0.7578565E-012  0.5930193E+02  0.7816164E-02  0.1266605E+00
        -11   -1    0    0    0    0  0.00000000000E+00  0.00000000000E+00  0.45593999997E+02  0.45594000000E+02  0.51100000000E-03 0. -1.
         11   -1    0    0    0    0 -0.00000000000E+00 -0.00000000000E+00 -0.45593999997E+02  0.45594000000E+02  0.51100000000E-03 0.  1.
    9900012    2    1    2    0    0 -0.16464988572E+02 -0.82672751749E+01 -0.26024555143E+02  0.59301934738E+02  0.49999983058E+02 0.  0.
         12    1    1    2    0    0  0.16464988572E+02  0.82672751749E+01  0.26024555143E+02  0.31886065262E+02  0.00000000000E+00 0. -1.
         11    1    3    3    0    0  0.15915461812E+02  0.42383474066E+01 -0.12895817599E+02  0.20918117153E+02  0.51100000000E-03 0.  1.
        -11    1    3    3    0    0 -0.24042619419E+02 -0.11131004804E+02 -0.56296290449E+01  0.27085781139E+02  0.51100000000E-03 0. -1.
        -12    1    3    3    0    0 -0.83378309651E+01 -0.13746177779E+01 -0.74991084996E+01  0.11298036446E+02  0.00000000000E+00 0.  1.
</event>
<event>
 7    1  0.7578565E-012  0.5930195E+02  0.7816164E-02  0.1266605E+00
        -11   -1    0    0    0    0  0.00000000000E+00  0.00000000000E+00  0.45593999997E+02  0.45594000000E+02  0.51100000000E-03 0.  1.
         11   -1    0    0    0    0 -0.00000000000E+00 -0.00000000000E+00 -0.45593999997E+02  0.45594000000E+02  0.51100000000E-03 0. -1.
    9900012    2    1    2    0    0 -0.29438443986E+01  0.24444651762E+02  0.20261124484E+02  0.59301946858E+02  0.50000005162E+02 0.  0.
         12    1    1    2    0    0  0.29438443986E+01 -0.24444651762E+02 -0.20261124484E+02  0.31886053142E+02  0.00000000000E+00 0. -1.
         11    1    3    3    0    0 -0.48439565896E+00 -0.96296323288E+01  0.69005927971E+01  0.11856755001E+02  0.51100000000E-03 0. -1.
        -11    1    3    3    0    0  0.72995538863E+01  0.28363978193E+02  0.18897240071E+02  0.34855479174E+02  0.51100000000E-03 0.  1.
        -12    1    3    3    0    0 -0.97590026259E+01  0.57103058983E+01 -0.55367083849E+01  0.12589712683E+02  0.00000000000E+00 0.  1.
</event>
<event>
 7    1  0.7578565E-012  0.5930178E+02  0.7816164E-02  0.1266605E+00
        -11   -1    0    0    0    0  0.00000000000E+00  0.00000000000E+00  0.45593999997E+02  0.45594000000E+02  0.51100000000E-03 0. -1.
         11   -1    0    0    0    0 -0.00000000000E+00 -0.00000000000E+00 -0.45593999997E+02  0.45594000000E+02  0.51100000000E-03 0.  1.
    9900012    2    1    2    0    0  0.11609015641E+02  0.25387185794E+02 -0.15409501155E+02  0.59301777701E+02  0.49999696658E+02 0.  0.
         12    1    1    2    0    0 -0.11609015641E+02 -0.25387185794E+02  0.15409501155E+02  0.31886222299E+02  0.00000000000E+00 0. -1.
         11    1    3    3    0    0  0.21421437925E+02  0.19105380629E+02  0.59943348122E+01  0.29322783324E+02  0.51100000000E-03 0. -1.
        -11    1    3    3    0    0 -0.13417744013E+02  0.10809784573E+01 -0.94295747426E+01  0.16435365798E+02  0.51100000000E-03 0.  1.
        -12    1    3    3    0    0  0.36053217293E+01  0.52008267078E+01 -0.11974261224E+02  0.13543628579E+02  0.00000000000E+00 0.  1.
</event>
<event>
 7    1  0.7578565E-012  0.5930195E+02  0.7816164E-02  0.1266605E+00
        -11   -1    0    0    0    0  0.00000000000E+00  0.00000000000E+00  0.45593999997E+02  0.45594000000E+02  0.51100000000E-03 0. -1.
         11   -1    0    0    0    0 -0.00000000000E+00 -0.00000000000E+00 -0.45593999997E+02  0.45594000000E+02  0.51100000000E-03 0.  1.
    9900012    2    1    2    0    0 -0.21756622811E+01 -0.15505921856E+02 -0.27776849628E+02  0.59301945145E+02  0.50000002037E+02 0.  0.
         12    1    1    2    0    0  0.21756622811E+01  0.15505921856E+02  0.27776849628E+02  0.31886054855E+02  0.00000000000E+00 0. -1.
         11    1    3    3    0    0  0.19058852632E+02 -0.11625034635E+02 -0.85033778165E+01  0.23889092248E+02  0.51100000000E-03 0.  1.
        -11    1    3    3    0    0 -0.70126828875E+01 -0.61721504097E+01  0.21599014839E+01  0.95884480830E+01  0.51100000000E-03 0. -1.
         12    1    3    3    0    0 -0.14221832025E+02  0.22912631886E+01 -0.21433373295E+02  0.25824404813E+02  0.00000000000E+00 0. -1.
</event>
<event>
 7    1  0.7578565E-012  0.5930196E+02  0.7816164E-02  0.1266605E+00
        -11   -1    0    0    0    0  0.00000000000E+00  0.00000000000E+00  0.45593999997E+02  0.45594000000E+02  0.51100000000E-03 0.  1.
         11   -1    0    0    0    0 -0.00000000000E+00 -0.00000000000E+00 -0.45593999997E+02  0.45594000000E+02  0.51100000000E-03 0. -1.
    9900012    2    1    2    0    0 -0.24754195394E+02 -0.14681700488E+02  0.13725779734E+02  0.59301959981E+02  0.50000029095E+02 0.  0.
         12    1    1    2    0    0  0.24754195394E+02  0.14681700488E+02 -0.13725779734E+02  0.31886040019E+02  0.00000000000E+00 0. -1.
         11    1    3    3    0    0 -0.10723951627E+02 -0.85661008586E+01 -0.47075895054E+01  0.14510086892E+02  0.51100000000E-03 0. -1.
        -11    1    3    3    0    0 -0.78558111069E+01 -0.10415009224E+02  0.29012234544E+02  0.31810311831E+02  0.51100000000E-03 0.  1.
         12    1    3    3    0    0 -0.61744326603E+01  0.42994095952E+01 -0.10578865305E+02  0.12981561257E+02  0.00000000000E+00 0. -1.
</event>
<event>
 7    1  0.7578565E-012  0.5930195E+02  0.7816164E-02  0.1266605E+00
        -11   -1    0    0    0    0  0.00000000000E+00  0.00000000000E+00  0.45593999997E+02  0.45594000000E+02  0.51100000000E-03 0.  1.
         11   -1    0    0    0    0 -0.00000000000E+00 -0.00000000000E+00 -0.45593999997E+02  0.45594000000E+02  0.51100000000E-03 0. -1.
    9900012    2    1    2    0    0 -0.15702479567E+02 -0.75098951445E+01  0.26716165617E+02  0.59301954543E+02  0.50000019177E+02 0.  0.
         12    1    1    2    0    0  0.15702479567E+02  0.75098951445E+01 -0.26716165617E+02  0.31886045457E+02  0.00000000000E+00 0. -1.
         11    1    3    3    0    0 -0.24726583310E+01 -0.66547159854E-01 -0.73717554993E+01  0.77756830664E+01  0.51100000000E-03 0. -1.
        -11    1    3    3    0    0  0.44779362121E+01 -0.16929062931E+02  0.21859676321E+02  0.28008758158E+02  0.51100000000E-03 0.  1.
        -12    1    3    3    0    0 -0.17707757448E+02  0.94857149467E+01  0.12228244795E+02  0.23517513318E+02  0.00000000000E+00 0.  1.
</event>
<event>
 7    1  0.7578565E-012  0.5930185E+02  0.7816164E-02  0.1266605E+00
        -11   -1    0    0    0    0  0.00000000000E+00  0.00000000000E+00  0.45593999997E+02  0.45594000000E+02  0.51100000000E-03 0.  1.
         11   -1    0    0    0    0 -0.00000000000E+00 -0.00000000000E+00 -0.45593999997E+02  0.45594000000E+02  0.51100000000E-03 0. -1.
    9900012    2    1    2    0    0 -0.16427016726E+02 -0.21378971735E+02  0.17024075907E+02  0.59301851417E+02  0.49999831100E+02 0.  0.
         12    1    1    2    0    0  0.16427016726E+02  0.21378971735E+02 -0.17024075907E+02  0.31886148583E+02  0.00000000000E+00 0. -1.
         11    1    3    3    0    0 -0.21535144465E+02 -0.51630410571E+01 -0.88321278754E+00  0.22163021120E+02  0.51100000000E-03 0. -1.
        -11    1    3    3    0    0  0.31991281723E+00 -0.99211906869E+01  0.24759030057E+02  0.26674743457E+02  0.51100000000E-03 0.  1.
         12    1    3    3    0    0  0.47882149214E+01 -0.62947399915E+01 -0.68517413628E+01  0.10464086840E+02  0.00000000000E+00 0. -1.
</event>
<event>
 7    1  0.7578565E-012  0.5930195E+02  0.7816164E-02  0.1266605E+00
        -11   -1    0    0    0    0  0.00000000000E+00  0.00000000000E+00  0.45593999997E+02  0.45594000000E+02  0.51100000000E-03 0. -1.
         11   -1    0    0    0    0 -0.00000000000E+00 -0.00000000000E+00 -0.45593999997E+02  0.45594000000E+02  0.51100000000E-03 0.  1.
    9900012    2    1    2    0    0  0.17447074797E+02 -0.23663893274E+02 -0.12342612007E+02  0.59301947641E+02  0.50000006590E+02 0.  0.
         12    1    1    2    0    0 -0.17447074797E+02  0.23663893274E+02  0.12342612007E+02  0.31886052359E+02  0.00000000000E+00 0. -1.
         11    1    3    3    0    0 -0.21608540836E+01 -0.26264644229E+01  0.21924975965E+01  0.40465604787E+01  0.51100000000E-03 0. -1.
        -11    1    3    3    0    0  0.56339116189E+01  0.14225572559E+02 -0.28351775059E+01  0.15561044518E+02  0.51100000000E-03 0.  1.
        -12    1    3    3    0    0  0.13974017262E+02 -0.35263001410E+02 -0.11699932098E+02  0.39694342644E+02  0.00000000000E+00 0.  1.
</event>
<event>
 7    1  0.7578565E-012  0.5930193E+02  0.7816164E-02  0.1266605E+00
        -11   -1    0    0    0    0  0.00000000000E+00  0.00000000000E+00  0.45593999997E+02  0.45594000000E+02  0.51100000000E-03 0.  1.
         11   -1    0    0    0    0 -0.00000000000E+00 -0.00000000000E+00 -0.45593999997E+02  0.45594000000E+02  0.51100000000E-03 0. -1.
    9900012    2    1    2    0    0 -0.12477666421E+02 -0.10407059543E+01  0.29324844848E+02  0.59301925398E+02  0.49999966024E+02 0.  0.
         12    1    1    2    0    0  0.12477666421E+02  0.10407059543E+01 -0.29324844848E+02  0.31886074602E+02  0.00000000000E+00 0. -1.
         11    1    3    3    0    0  0.12821216775E+02  0.42173162057E+01  0.59627683419E+01  0.14755472277E+02  0.51100000000E-03 0. -1.
        -11    1    3    3    0    0 -0.73546045566E+01 -0.15578454246E+02  0.10436879238E+02  0.20142167048E+02  0.51100000000E-03 0.  1.
         12    1    3    3    0    0 -0.17944278639E+02  0.10320432086E+02  0.12925197267E+02  0.24404286073E+02  0.00000000000E+00 0. -1.
</event>
<event>
 7    1  0.8774864E-012  0.5930198E+02  0.7816164E-02  0.1266605E+00
        -11   -1    0    0    0    0  0.00000000000E+00  0.00000000000E+00  0.45593999997E+02  0.45594000000E+02  0.51100000000E-03 0. -1.
         11   -1    0    0    0    0 -0.00000000000E+00 -0.00000000000E+00 -0.45593999997E+02  0.45594000000E+02  0.51100000000E-03 0.  1.
    9900012    2    1    2    0    0 -0.30978134538E+02  0.57355152757E+01 -0.49170573505E+01  0.59301977859E+02  0.50000061701E+02 0.  0.
         12    1    1    2    0    0  0.30978134538E+02 -0.57355152757E+01  0.49170573505E+01  0.31886022141E+02  0.00000000000E+00 0. -1.
         11    1    3    3    0    0 -0.15415428150E+02  0.14721858114E+02 -0.14896715188E+02  0.26005396652E+02  0.51100000000E-03 0. -1.
        -11    1    3    3    0    0 -0.21950085079E+02 -0.81779900451E+01  0.12294824110E+02  0.26454649050E+02  0.51100000000E-03 0.  1.
         12    1    3    3    0    0  0.63873786908E+01 -0.80835279351E+00 -0.23151662725E+01  0.68419321575E+01  0.00000000000E+00 0. -1.
</event>
<event>
 7    1  0.9592106E-012  0.5930197E+02  0.7816164E-02  0.1266605E+00
        -11   -1    0    0    0    0  0.00000000000E+00  0.00000000000E+00  0.45593999997E+02  0.45594000000E+02  0.51100000000E-03 0. -1.
         11   -1    0    0    0    0 -0.00000000000E+00 -0.00000000000E+00 -0.45593999997E+02  0.45594000000E+02  0.51100000000E-03 0.  1.
    9900012    2    1    2    0    0  0.27866607541E+02  0.15496551127E+02  0.16759909549E+00  0.59301968542E+02  0.50000044709E+02 0.  0.
         12    1    1    2    0    0 -0.27866607541E+02 -0.15496551127E+02 -0.16759909549E+00  0.31886031458E+02  0.00000000000E+00 0. -1.
         11    1    3    3    0    0  0.14584080408E+02 -0.68753798314E+01 -0.15860082437E+02  0.22616552884E+02  0.51100000000E-03 0. -1.
        -11    1    3    3    0    0  0.52625380919E+01  0.18457465573E+02  0.10142132011E+01  0.19219806743E+02  0.51100000000E-03 0.  1.
         12    1    3    3    0    0  0.80199890407E+01  0.39144653856E+01  0.15013468331E+02  0.17465608916E+02  0.00000000000E+00 0. -1.
</event>
<event>
 7    1  0.7578565E-012  0.5930194E+02  0.7816164E-02  0.1266605E+00
        -11   -1    0    0    0    0  0.00000000000E+00  0.00000000000E+00  0.45593999997E+02  0.45594000000E+02  0.51100000000E-03 0.  1.
         11   -1    0    0    0    0 -0.00000000000E+00 -0.00000000000E+00 -0.45593999997E+02  0.45594000000E+02  0.51100000000E-03 0. -1.
    9900012    2    1    2    0    0 -0.34639205730E+01 -0.11444219427E+02  0.29559290711E+02  0.59301943936E+02  0.49999999832E+02 0.  0.
         12    1    1    2    0    0  0.34639205730E+01  0.11444219427E+02 -0.29559290711E+02  0.31886056064E+02  0.00000000000E+00 0. -1.
         11    1    3    3    0    0 -0.13318195856E+02  0.13540213223E+02  0.28529826675E+01  0.19205499872E+02  0.51100000000E-03 0. -1.
        -11    1    3    3    0    0  0.57491879593E+01 -0.52502915616E+01  0.14701163621E+02  0.16635592437E+02  0.51100000000E-03 0.  1.
         12    1    3    3    0    0  0.41050873240E+01 -0.19734141088E+02  0.12005144422E+02  0.23460851626E+02  0.00000000000E+00 0. -1.
</event>
<event>
 7    1  0.7578565E-012  0.5930194E+02  0.7816164E-02  0.1266605E+00
        -11   -1    0    0    0    0  0.00000000000E+00  0.00000000000E+00  0.45593999997E+02  0.45594000000E+02  0.51100000000E-03 0.  1.
         11   -1    0    0    0    0 -0.00000000000E+00 -0.00000000000E+00 -0.45593999997E+02  0.45594000000E+02  0.51100000000E-03 0. -1.
    9900012    2    1    2    0    0 -0.14621585392E+02 -0.79146272584E+01  0.27208249417E+02  0.59301938463E+02  0.49999989851E+02 0.  0.
         12    1    1    2    0    0  0.14621585392E+02  0.79146272584E+01 -0.27208249417E+02  0.31886061537E+02  0.00000000000E+00 0. -1.
         11    1    3    3    0    0 -0.13887233385E+02 -0.17723134732E+02  0.27067504763E+02  0.35208160562E+02  0.51100000000E-03 0. -1.
        -11    1    3    3    0    0 -0.85766563720E+01  0.91824161635E+01  0.63435359542E+01  0.14075377430E+02  0.51100000000E-03 0.  1.
         12    1    3    3    0    0  0.78423043652E+01  0.62609130995E+00 -0.62027913002E+01  0.10018400471E+02  0.00000000000E+00 0. -1.
</event>
<event>
 7    1  0.7578565E-012  0.5930194E+02  0.7816164E-02  0.1266605E+00
        -11   -1    0    0    0    0  0.00000000000E+00  0.00000000000E+00  0.45593999997E+02  0.45594000000E+02  0.51100000000E-03 0.  1.
         11   -1    0    0    0    0 -0.00000000000E+00 -0.00000000000E+00 -0.45593999997E+02  0.45594000000E+02  0.51100000000E-03 0. -1.
    9900012    2    1    2    0    0 -0.48944736460E+01  0.25998530522E+02  0.17800039987E+02  0.59301939015E+02  0.49999990858E+02 0.  0.
         12    1    1    2    0    0  0.48944736460E+01 -0.25998530522E+02 -0.17800039987E+02  0.31886060985E+02  0.00000000000E+00 0. -1.
         11    1    3    3    0    0  0.97940996301E+01  0.31582807665E+02  0.11516094260E+02  0.35014547760E+02  0.51100000000E-03 0. -1.
        -11    1    3    3    0    0 -0.18558941526E+01  0.10308526719E+01  0.92992508876E+01  0.95385044776E+01  0.51100000000E-03 0.  1.
         12    1    3    3    0    0 -0.12832679124E+02 -0.66151298146E+01 -0.30153051607E+01  0.14748886777E+02  0.00000000000E+00 0. -1.
</event>
<event>
 7    1  0.7578565E-012  0.5930189E+02  0.7816164E-02  0.1266605E+00
        -11   -1    0    0    0    0  0.00000000000E+00  0.00000000000E+00  0.45593999997E+02  0.45594000000E+02  0.51100000000E-03 0.  1.
         11   -1    0    0    0    0 -0.00000000000E+00 -0.00000000000E+00 -0.45593999997E+02  0.45594000000E+02  0.51100000000E-03 0. -1.
    9900012    2    1    2    0    0 -0.64981752309E+01  0.15644044174E+02  0.27014098860E+02  0.59301891165E+02  0.49999903590E+02 0.  0.
         12    1    1    2    0    0  0.64981752309E+01 -0.15644044174E+02 -0.27014098860E+02  0.31886108835E+02  0.00000000000E+00 0. -1.
         11    1    3    3    0    0  0.58185492209E+01  0.22616652118E+01 -0.43156476530E+01  0.75891672463E+01  0.51100000000E-03 0. -1.
        -11    1    3    3    0    0 -0.18259765781E+02  0.16015710549E+02  0.36198022195E+02  0.43591499651E+02  0.51100000000E-03 0.  1.
        -12    1    3    3    0    0  0.59430413292E+01 -0.26333315869E+01 -0.48682756817E+01  0.81212242674E+01  0.00000000000E+00 0.  1.
</event>
<event>
 7    1  0.7578565E-012  0.5930195E+02  0.7816164E-02  0.1266605E+00
        -11   -1    0    0    0    0  0.00000000000E+00  0.00000000000E+00  0.45593999997E+02  0.45594000000E+02  0.51100000000E-03 0.  1.
         11   -1    0    0    0    0 -0.00000000000E+00 -0.00000000000E+00 -0.45593999997E+02  0.45594000000E+02  0.51100000000E-03 0. -1.
    9900012    2    1    2    0    0  0.14674666805E+02  0.20746322826E+02  0.19260433447E+02  0.59301952061E+02  0.50000014650E+02 0.  0.
         12    1    1    2    0    0 -0.14674666805E+02 -0.20746322826E+02 -0.19260433447E+02  0.31886047939E+02  0.00000000000E+00 0. -1.
         11    1    3    3    0    0  0.35149996999E+01  0.53516341422E+01 -0.15167295705E+02  0.16463355373E+02  0.51100000000E-03 0. -1.
        -11    1    3    3    0    0 -0.31792983354E+01  0.94145701609E+01  0.14258667381E+02  0.17379633626E+02  0.51100000000E-03 0.  1.
        -12    1    3    3    0    0  0.14338965441E+02  0.59801185229E+01  0.20169061771E+02  0.25458963061E+02  0.00000000000E+00 0.  1.
</event>
<event>
 7    1  0.7578565E-012  0.5930195E+02  0.7816164E-02  0.1266605E+00
        -11   -1    0    0    0    0  0.00000000000E+00  0.00000000000E+00  0.45593999997E+02  0.45594000000E+02  0.51100000000E-03 0.  1.
         11   -1    0    0    0    0 -0.00000000000E+00 -0.00000000000E+00 -0.45593999997E+02  0.45594000000E+02  0.51100000000E-03 0. -1.
    9900012    2    1    2    0    0  0.31323023000E+02 -0.43326533291E+01 -0.41007820267E+01  0.59301951829E+02  0.50000014228E+02 0.  0.
         12    1    1    2    0    0 -0.31323023000E+02  0.43326533291E+01  0.41007820267E+01  0.31886048171E+02  0.00000000000E+00 0. -1.
         11    1    3    3    0    0  0.24277168113E+02  0.20385099564E+02 -0.54510455692E+01  0.32165930329E+02  0.51100000000E-03 0. -1.
        -11    1    3    3    0    0  0.49452309275E+01 -0.60123577006E+01  0.27617275979E+01  0.82601993700E+01  0.51100000000E-03 0.  1.
         12    1    3    3    0    0  0.21006239589E+01 -0.18705395193E+02 -0.14114640554E+01  0.18875822131E+02  0.00000000000E+00 0. -1.
</event>
<event>
 7    1  0.7578565E-012  0.5930196E+02  0.7816164E-02  0.1266605E+00
        -11   -1    0    0    0    0  0.00000000000E+00  0.00000000000E+00  0.45593999997E+02  0.45594000000E+02  0.51100000000E-03 0. -1.
         11   -1    0    0    0    0 -0.00000000000E+00 -0.00000000000E+00 -0.45593999997E+02  0.45594000000E+02  0.51100000000E-03 0.  1.
    9900012    2    1    2    0    0 -0.28593205455E+02  0.13770288946E+02  0.30866402892E+01  0.59301959102E+02  0.50000027492E+02 0.  0.
         12    1    1    2    0    0  0.28593205455E+02 -0.13770288946E+02 -0.30866402892E+01  0.31886040898E+02  0.00000000000E+00 0. -1.
         11    1    3    3    0    0  0.10566233480E+02 -0.21118103520E+01  0.98100552993E+00  0.10819769177E+02  0.51100000000E-03 0. -1.
        -11    1    3    3    0    0 -0.27189518761E+02  0.52579046997E+01  0.11430021631E+02  0.29959320537E+02  0.51100000000E-03 0.  1.
        -12    1    3    3    0    0 -0.11969920175E+02  0.10624194598E+02 -0.93243868715E+01  0.18522869388E+02  0.00000000000E+00 0.  1.
</event>
<event>
 7    1  0.7578565E-012  0.5930194E+02  0.7816164E-02  0.1266605E+00
        -11   -1    0    0    0    0  0.00000000000E+00  0.00000000000E+00  0.45593999997E+02  0.45594000000E+02  0.51100000000E-03 0. -1.
         11   -1    0    0    0    0 -0.00000000000E+00 -0.00000000000E+00 -0.45593999997E+02  0.45594000000E+02  0.51100000000E-03 0.  1.
    9900012    2    1    2    0    0  0.20392671746E+02 -0.13244776065E+02 -0.20626096938E+02  0.59301936761E+02  0.49999986748E+02 0.  0.
         12    1    1    2    0    0 -0.20392671746E+02  0.13244776065E+02  0.20626096938E+02  0.31886063239E+02  0.00000000000E+00 0. -1.
         11    1    3    3    0    0 -0.48697914358E+01  0.10227884854E+02 -0.58364732167E+01  0.12743191008E+02  0.51100000000E-03 0. -1.
        -11    1    3    3    0    0  0.31850149085E+01 -0.19274237404E+02 -0.14068415708E+02  0.24074070455E+02  0.51100000000E-03 0.  1.
        -12    1    3    3    0    0  0.22077448273E+02 -0.41984235141E+01 -0.72120801404E+00  0.22484675298E+02  0.00000000000E+00 0.  1.
</event>
<event>
 7    1  0.7578565E-012  0.5930207E+02  0.7816164E-02  0.1266604E+00
        -11   -1    0    0    0    0  0.00000000000E+00  0.00000000000E+00  0.45593999997E+02  0.45594000000E+02  0.51100000000E-03 0.  1.
         11   -1    0    0    0    0 -0.00000000000E+00 -0.00000000000E+00 -0.45593999997E+02  0.45594000000E+02  0.51100000000E-03 0. -1.
    9900012    2    1    2    0    0 -0.24429639612E+02 -0.20477917953E+02 -0.74846519599E+00  0.59302068692E+02  0.50000227357E+02 0.  0.
         12    1    1    2    0    0  0.24429639612E+02  0.20477917953E+02  0.74846519599E+00  0.31885931308E+02  0.00000000000E+00 0. -1.
         11    1    3    3    0    0  0.11802098309E+02 -0.52679633726E+01  0.10262149234E+02  0.16503110911E+02  0.51100000000E-03 0. -1.
        -11    1    3    3    0    0 -0.16101325613E+02 -0.12326849142E+02 -0.14559303456E+01  0.20330362262E+02  0.51100000000E-03 0.  1.
         12    1    3    3    0    0 -0.20130412307E+02 -0.28831054381E+01 -0.95546840841E+01  0.22468595519E+02  0.00000000000E+00 0. -1.
</event>
<event>
 7    1  0.7578565E-012  0.5930195E+02  0.7816164E-02  0.1266605E+00
        -11   -1    0    0    0    0  0.00000000000E+00  0.00000000000E+00  0.45593999997E+02  0.45594000000E+02  0.51100000000E-03 0.  1.
         11   -1    0    0    0    0 -0.00000000000E+00 -0.00000000000E+00 -0.45593999997E+02  0.45594000000E+02  0.51100000000E-03 0. -1.
    9900012    2    1    2    0    0  0.97442922605E+01 -0.22749026518E+02  0.20105990164E+02  0.59301948509E+02  0.50000008174E+02 0.  0.
         12    1    1    2    0    0 -0.97442922605E+01  0.22749026518E+02 -0.20105990164E+02  0.31886051491E+02  0.00000000000E+00 0. -1.
         11    1    3    3    0    0 -0.74713301176E+01 -0.14815598445E+01  0.80163273172E+01  0.11057906548E+02  0.51100000000E-03 0. -1.
        -11    1    3    3    0    0  0.26250779067E+02 -0.25531927607E+02  0.82257965709E+01  0.37531939178E+02  0.51100000000E-03 0.  1.
        -12    1    3    3    0    0 -0.90351566888E+01  0.42644609341E+01  0.38638662763E+01  0.10712102784E+02  0.00000000000E+00 0.  1.
</event>
<event>
 7    1  0.7578565E-012  0.5930192E+02  0.7816164E-02  0.1266605E+00
        -11   -1    0    0    0    0  0.00000000000E+00  0.00000000000E+00  0.45593999997E+02  0.45594000000E+02  0.51100000000E-03 0. -1.
         11   -1    0    0    0    0 -0.00000000000E+00 -0.00000000000E+00 -0.45593999997E+02  0.45594000000E+02  0.51100000000E-03 0.  1.
    9900012    2    1    2    0    0  0.28001027354E+02 -0.15015498843E+02 -0.26832000450E+01  0.59301916815E+02  0.49999950371E+02 0.  0.
         12    1    1    2    0    0 -0.28001027354E+02  0.15015498843E+02  0.26832000450E+01  0.31886083185E+02  0.00000000000E+00 0. -1.
         11    1    3    3    0    0  0.21639849932E+02 -0.14345576561E+02 -0.19241343726E+01  0.26034226804E+02  0.51100000000E-03 0. -1.
        -11    1    3    3    0    0 -0.39011277850E+01  0.80119329436E+01  0.11857136914E+02  0.14832449681E+02  0.51100000000E-03 0.  1.
        -12    1    3    3    0    0  0.10262305207E+02 -0.86818552255E+01 -0.12616202586E+02  0.18435240330E+02  0.00000000000E+00 0.  1.
</event>
<event>
 7    1  0.7578565E-012  0.5930193E+02  0.7816164E-02  0.1266605E+00
        -11   -1    0    0    0    0  0.00000000000E+00  0.00000000000E+00  0.45593999997E+02  0.45594000000E+02  0.51100000000E-03 0.  1.
         11   -1    0    0    0    0 -0.00000000000E+00 -0.00000000000E+00 -0.45593999997E+02  0.45594000000E+02  0.51100000000E-03 0. -1.
    9900012    2    1    2    0    0 -0.14852236642E+02 -0.97505354834E-01  0.28215646648E+02  0.59301934763E+02  0.49999983103E+02 0.  0.
         12    1    1    2    0    0  0.14852236642E+02  0.97505354834E-01 -0.28215646648E+02  0.31886065237E+02  0.00000000000E+00 0. -1.
         11    1    3    3    0    0  0.20216692587E+00  0.10122231434E+01 -0.48602859359E+01  0.49686866270E+01  0.51100000000E-03 0. -1.
        -11    1    3    3    0    0 -0.10284105728E+02 -0.20608335617E+02  0.17670550757E+02  0.29029548598E+02  0.51100000000E-03 0.  1.
        -12    1    3    3    0    0 -0.47702978404E+01  0.19498607118E+02  0.15405381827E+02  0.25303699537E+02  0.00000000000E+00 0.  1.
</event>
<event>
 7    1  0.7578565E-012  0.5930194E+02  0.7816164E-02  0.1266605E+00
        -11   -1    0    0    0    0  0.00000000000E+00  0.00000000000E+00  0.45593999997E+02  0.45594000000E+02  0.51100000000E-03 0. -1.
         11   -1    0    0    0    0 -0.00000000000E+00 -0.00000000000E+00 -0.45593999997E+02  0.45594000000E+02  0.51100000000E-03 0.  1.
    9900012    2    1    2    0    0 -0.16734532450E+02 -0.26578105990E+02 -0.55027704401E+01  0.59301940713E+02  0.49999993955E+02 0.  0.
         12    1    1    2    0    0  0.16734532450E+02  0.26578105990E+02  0.55027704401E+01  0.31886059287E+02  0.00000000000E+00 0. -1.
         11    1    3    3    0    0 -0.25661897584E+02 -0.19640022687E+02 -0.11366311798E+02  0.34255751676E+02  0.51100000000E-03 0. -1.
        -11    1    3    3    0    0  0.34337519639E+01 -0.13524433116E+02 -0.11024175873E+01  0.13997009268E+02  0.51100000000E-03 0.  1.
         12    1    3    3    0    0  0.54936131704E+01  0.65863498136E+01  0.69659589450E+01  0.11049179768E+02  0.00000000000E+00 0. -1.
</event>
<event>
 7    1  0.7578565E-012  0.5930199E+02  0.7816164E-02  0.1266605E+00
        -11   -1    0    0    0    0  0.00000000000E+00  0.00000000000E+00  0.45593999997E+02  0.45594000000E+02  0.51100000000E-03 0.  1.
         11   -1    0    0    0    0 -0.00000000000E+00 -0.00000000000E+00 -0.45593999997E+02  0.45594000000E+02  0.51100000000E-03 0. -1.
    9900012    2    1    2    0    0 -0.44743467373E+01 -0.29407163469E+02  0.11485481498E+02  0.59301994805E+02  0.50000092606E+02 0.  0.
         12    1    1    2    0    0  0.44743467373E+01  0.29407163469E+02 -0.11485481498E+02  0.31886005195E+02  0.00000000000E+00 0. -1.
         11    1    3    3    0    0 -0.55815172391E-01  0.26142326112E+01  0.33582267347E+01  0.42561736973E+01  0.51100000000E-03 0. -1.
        -11    1    3    3    0    0 -0.28439336918E+01 -0.13153828073E+02 -0.18189129506E+02  0.22626435518E+02  0.51100000000E-03 0.  1.
        -12    1    3    3    0    0 -0.15745978731E+01 -0.18867568008E+02  0.26316384270E+02  0.32419385590E+02  0.00000000000E+00 0.  1.
</event>
<event>
 7    1  0.7578565E-012  0.5930199E+02  0.7816164E-02  0.1266605E+00
        -11   -1    0    0    0    0  0.00000000000E+00  0.00000000000E+00  0.45593999997E+02  0.45594000000E+02  0.51100000000E-03 0. -1.
         11   -1    0    0    0    0 -0.00000000000E+00 -0.00000000000E+00 -0.45593999997E+02  0.45594000000E+02  0.51100000000E-03 0.  1.
    9900012    2    1    2    0    0 -0.56150200849E+01 -0.31387708036E+02  0.34878163795E-01  0.59301986094E+02  0.50000076719E+02 0.  0.
         12    1    1    2    0    0  0.56150200849E+01  0.31387708036E+02 -0.34878163795E-01  0.31886013906E+02  0.00000000000E+00 0. -1.
         11    1    3    3    0    0  0.12366655254E+02 -0.28235309783E+01 -0.39141680145E+01  0.13275059355E+02  0.51100000000E-03 0. -1.
        -11    1    3    3    0    0 -0.15866374795E+02 -0.17010644552E+02  0.16741785187E+02  0.28659924088E+02  0.51100000000E-03 0.  1.
        -12    1    3    3    0    0 -0.21153005443E+01 -0.11553532505E+02 -0.12792739009E+02  0.17367002651E+02  0.00000000000E+00 0.  1.
</event>
<event>
 7    1  0.7578565E-012  0.5930194E+02  0.7816164E-02  0.1266605E+00
        -11   -1    0    0    0    0  0.00000000000E+00  0.00000000000E+00  0.45593999997E+02  0.45594000000E+02  0.51100000000E-03 0. -1.
         11   -1    0    0    0    0 -0.00000000000E+00 -0.00000000000E+00 -0.45593999997E+02  0.45594000000E+02  0.51100000000E-03 0.  1.
    9900012    2    1    2    0    0  0.26414739390E+02 -0.16545043154E+02 -0.67263381427E+01  0.59301944508E+02  0.50000000876E+02 0.  0.
         12    1    1    2    0    0 -0.26414739390E+02  0.16545043154E+02  0.67263381427E+01  0.31886055492E+02  0.00000000000E+00 0. -1.
         11    1    3    3    0    0  0.13343429837E+02  0.15040184095E+02 -0.12192098631E+02  0.23513858184E+02  0.51100000000E-03 0. -1.
        -11    1    3    3    0    0  0.16951036391E+00 -0.12992757051E+01 -0.16513106848E+01  0.21080034061E+01  0.51100000000E-03 0.  1.
         12    1    3    3    0    0  0.12901799190E+02 -0.30285951544E+02  0.71170711727E+01  0.33680082918E+02  0.00000000000E+00 0. -1.
</event>
<event>
 7    1  0.7578565E-012  0.5930197E+02  0.7816164E-02  0.1266605E+00
        -11   -1    0    0    0    0  0.00000000000E+00  0.00000000000E+00  0.45593999997E+02  0.45594000000E+02  0.51100000000E-03 0.  1.
         11   -1    0    0    0    0 -0.00000000000E+00 -0.00000000000E+00 -0.45593999997E+02  0.45594000000E+02  0.51100000000E-03 0. -1.
    9900012    2    1    2    0    0  0.13523447647E+00 -0.65321335767E+01  0.31209484317E+02  0.59301969066E+02  0.50000045663E+02 0.  0.
         12    1    1    2    0    0 -0.13523447647E+00  0.65321335767E+01 -0.31209484317E+02  0.31886030934E+02  0.00000000000E+00 0. -1.
         11    1    3    3    0    0 -0.40602743659E+01  0.55364483044E+01  0.27211798015E+02  0.28064569108E+02  0.51100000000E-03 0. -1.
        -11    1    3    3    0    0  0.11984910053E+02 -0.13059892489E+02 -0.58283784526E+01  0.18659283385E+02  0.51100000000E-03 0.  1.
        -12    1    3    3    0    0 -0.77894012107E+01  0.99131060800E+00  0.98260647540E+01  0.12578116572E+02  0.00000000000E+00 0.  1.
</event>
<event>
 7    1  0.7578565E-012  0.5930194E+02  0.7816164E-02  0.1266605E+00
        -11   -1    0    0    0    0  0.00000000000E+00  0.00000000000E+00  0.45593999997E+02  0.45594000000E+02  0.51100000000E-03 0.  1.
         11   -1    0    0    0    0 -0.00000000000E+00 -0.00000000000E+00 -0.45593999997E+02  0.45594000000E+02  0.51100000000E-03 0. -1.
    9900012    2    1    2    0    0 -0.47965562393E+01 -0.21517110545E+00  0.31522494521E+02  0.59301938606E+02  0.49999990113E+02 0.  0.
         12    1    1    2    0    0  0.47965562393E+01  0.21517110545E+00 -0.31522494521E+02  0.31886061394E+02  0.00000000000E+00 0. -1.
         11    1    3    3    0    0 -0.10834811346E+02 -0.12386860774E+02 -0.16137435673E+01  0.16535768059E+02  0.51100000000E-03 0. -1.
        -11    1    3    3    0    0  0.39647986073E+01  0.89153389107E+01  0.36416067537E+02  0.37700568577E+02  0.51100000000E-03 0.  1.
         12    1    3    3    0    0  0.20734564994E+01  0.32563507579E+01 -0.32798294484E+01  0.50656019705E+01  0.00000000000E+00 0. -1.
</event>
<event>
 7    1  0.7578565E-012  0.5930195E+02  0.7816164E-02  0.1266605E+00
        -11   -1    0    0    0    0  0.00000000000E+00  0.00000000000E+00  0.45593999997E+02  0.45594000000E+02  0.51100000000E-03 0.  1.
         11   -1    0    0    0    0 -0.00000000000E+00 -0.00000000000E+00 -0.45593999997E+02  0.45594000000E+02  0.51100000000E-03 0. -1.
    9900012    2    1    2    0    0 -0.21290446267E+02 -0.22154516034E+02  0.85214282959E+01  0.59301946259E+02  0.50000004070E+02 0.  0.
         12    1    1    2    0    0  0.21290446267E+02  0.22154516034E+02 -0.85214282959E+01  0.31886053741E+02  0.00000000000E+00 0. -1.
         11    1    3    3    0    0 -0.13384195493E+02 -0.32694469932E+01  0.35777326292E+01  0.14234681017E+02  0.51100000000E-03 0. -1.
        -11    1    3    3    0    0 -0.51345335570E+01 -0.13133888914E+02  0.22406088323E+02  0.26474426662E+02  0.51100000000E-03 0.  1.
        -12    1    3    3    0    0 -0.27717172172E+01 -0.57511801265E+01 -0.17462392656E+02  0.18592838580E+02  0.00000000000E+00 0.  1.
</event>
<event>
 7    1  0.7578565E-012  0.5930194E+02  0.7816164E-02  0.1266605E+00
        -11   -1    0    0    0    0  0.00000000000E+00  0.00000000000E+00  0.45593999997E+02  0.45594000000E+02  0.51100000000E-03 0. -1.
         11   -1    0    0    0    0 -0.00000000000E+00 -0.00000000000E+00 -0.45593999997E+02  0.45594000000E+02  0.51100000000E-03 0.  1.
    9900012    2    1    2    0    0 -0.23061577708E+01 -0.73805095499E+01 -0.30934295494E+02  0.59301938428E+02  0.49999989787E+02 0.  0.
         12    1    1    2    0    0  0.23061577708E+01  0.73805095499E+01  0.30934295494E+02  0.31886061572E+02  0.00000000000E+00 0. -1.
         11    1    3    3    0    0 -0.59973694630E+01  0.40680983818E+01 -0.16580892234E+01  0.74341862402E+01  0.51100000000E-03 0. -1.
        -11    1    3    3    0    0  0.12630319008E+02  0.17146827981E+01 -0.33128913235E+02  0.35496337667E+02  0.51100000000E-03 0.  1.
        -12    1    3    3    0    0 -0.89391073159E+01 -0.13163290730E+02  0.38527069646E+01  0.16371414520E+02  0.00000000000E+00 0.  1.
</event>
<event>
 7    1  0.7578565E-012  0.5930193E+02  0.7816164E-02  0.1266605E+00
        -11   -1    0    0    0    0  0.00000000000E+00  0.00000000000E+00  0.45593999997E+02  0.45594000000E+02  0.51100000000E-03 0.  1.
         11   -1    0    0    0    0 -0.00000000000E+00 -0.00000000000E+00 -0.45593999997E+02  0.45594000000E+02  0.51100000000E-03 0. -1.
    9900012    2    1    2    0    0  0.91860986624E+01  0.56733947904E+01  0.30002489444E+02  0.59301934236E+02  0.49999982141E+02 0.  0.
         12    1    1    2    0    0 -0.91860986624E+01 -0.56733947904E+01 -0.30002489444E+02  0.31886065764E+02  0.00000000000E+00 0. -1.
         11    1    3    3    0    0  0.12978700516E+02 -0.20681226252E+01 -0.54294945654E+01  0.14219817502E+02  0.51100000000E-03 0. -1.
        -11    1    3    3    0    0 -0.13800400069E+02  0.74372098401E+00  0.10625921747E+02  0.17433140170E+02  0.51100000000E-03 0.  1.
        -12    1    3    3    0    0  0.10007798215E+02  0.69977964315E+01  0.24806062263E+02  0.27648976564E+02  0.00000000000E+00 0.  1.
</event>
<event>
 7    1  0.7578565E-012  0.5930193E+02  0.7816164E-02  0.1266605E+00
        -11   -1    0    0    0    0  0.00000000000E+00  0.00000000000E+00  0.45593999997E+02  0.45594000000E+02  0.51100000000E-03 0.  1.
         11   -1    0    0    0    0 -0.00000000000E+00 -0.00000000000E+00 -0.45593999997E+02  0.45594000000E+02  0.51100000000E-03 0. -1.
    9900012    2    1    2    0    0 -0.30911548915E+01 -0.17309557397E+02  0.26599720540E+02  0.59301934883E+02  0.49999983323E+02 0.  0.
         12    1    1    2    0    0  0.30911548915E+01  0.17309557397E+02 -0.26599720540E+02  0.31886065117E+02  0.00000000000E+00 0. -1.
         11    1    3    3    0    0  0.52318368238E+01 -0.84987874132E+01  0.20507742914E+01  0.10188580838E+02  0.51100000000E-03 0. -1.
        -11    1    3    3    0    0 -0.22804271286E+01  0.16253325631E+02  0.65561766120E+01  0.17673550690E+02  0.51100000000E-03 0.  1.
        -12    1    3    3    0    0 -0.60425645868E+01 -0.25064095615E+02  0.17992769636E+02  0.31439803355E+02  0.00000000000E+00 0.  1.
</event>
<event>
 7    1  0.7578565E-012  0.5930194E+02  0.7816164E-02  0.1266605E+00
        -11   -1    0    0    0    0  0.00000000000E+00  0.00000000000E+00  0.45593999997E+02  0.45594000000E+02  0.51100000000E-03 0.  1.
         11   -1    0    0    0    0 -0.00000000000E+00 -0.00000000000E+00 -0.45593999997E+02  0.45594000000E+02  0.51100000000E-03 0. -1.
    9900012    2    1    2    0    0  0.25242696283E+02  0.16009201553E+02  0.11101021786E+02  0.59301938238E+02  0.49999989441E+02 0.  0.
         12    1    1    2    0    0 -0.25242696283E+02 -0.16009201553E+02 -0.11101021786E+02  0.31886061762E+02  0.00000000000E+00 0. -1.
         11    1    3    3    0    0 -0.11691795100E+02  0.12099022229E+01 -0.13331576976E+01  0.11829591952E+02  0.51100000000E-03 0. -1.
        -11    1    3    3    0    0  0.16339850812E+02  0.14527078112E+02 -0.25357416811E+01  0.22010377306E+02  0.51100000000E-03 0.  1.
         12    1    3    3    0    0  0.20594640571E+02  0.27222121847E+00  0.14969921165E+02  0.25461968980E+02  0.00000000000E+00 0. -1.
</event>
<event>
 7    1  0.7578565E-012  0.5930194E+02  0.7816164E-02  0.1266605E+00
        -11   -1    0    0    0    0  0.00000000000E+00  0.00000000000E+00  0.45593999997E+02  0.45594000000E+02  0.51100000000E-03 0. -1.
         11   -1    0    0    0    0 -0.00000000000E+00 -0.00000000000E+00 -0.45593999997E+02  0.45594000000E+02  0.51100000000E-03 0.  1.
    9900012    2    1    2    0    0 -0.83290737427E+01 -0.38344387609E+00 -0.30776620661E+02  0.59301939129E+02  0.49999991065E+02 0.  0.
         12    1    1    2    0    0  0.83290737427E+01  0.38344387609E+00  0.30776620661E+02  0.31886060871E+02  0.00000000000E+00 0. -1.
         11    1    3    3    0    0  0.68290056557E+01 -0.15664744640E+02 -0.28559649532E+02  0.33281723581E+02  0.51100000000E-03 0.  1.
        -11    1    3    3    0    0 -0.10008047338E+02  0.16992204306E+02 -0.43409722452E+01  0.20192574353E+02  0.51100000000E-03 0. -1.
        -12    1    3    3    0    0 -0.51500320607E+01 -0.17109035422E+01  0.21240011163E+01  0.58276411951E+01  0.00000000000E+00 0.  1.
</event>
<event>
 7    1  0.7578565E-012  0.5930202E+02  0.7816164E-02  0.1266604E+00
        -11   -1    0    0    0    0  0.00000000000E+00  0.00000000000E+00  0.45593999997E+02  0.45594000000E+02  0.51100000000E-03 0. -1.
         11   -1    0    0    0    0 -0.00000000000E+00 -0.00000000000E+00 -0.45593999997E+02  0.45594000000E+02  0.51100000000E-03 0.  1.
    9900012    2    1    2    0    0  0.18563148505E+02 -0.18783361115E+02 -0.17869258334E+02  0.59302022979E+02  0.50000143987E+02 0.  0.
         12    1    1    2    0    0 -0.18563148505E+02  0.18783361115E+02  0.17869258334E+02  0.31885977021E+02  0.00000000000E+00 0. -1.
         11    1    3    3    0    0  0.28151628301E+02  0.61432457383E+01 -0.48527858839E+01  0.29219910597E+02  0.51100000000E-03 0. -1.
        -11    1    3    3    0    0 -0.55567932818E+01 -0.10294625897E+02 -0.36831612712E+01  0.12264703468E+02  0.51100000000E-03 0.  1.
         12    1    3    3    0    0 -0.40316865138E+01 -0.14631980956E+02 -0.93333111790E+01  0.17817408914E+02  0.00000000000E+00 0. -1.
</event>
<event>
 7    1  0.7578565E-012  0.5930195E+02  0.7816164E-02  0.1266605E+00
        -11   -1    0    0    0    0  0.00000000000E+00  0.00000000000E+00  0.45593999997E+02  0.45594000000E+02  0.51100000000E-03 0.  1.
         11   -1    0    0    0    0 -0.00000000000E+00 -0.00000000000E+00 -0.45593999997E+02  0.45594000000E+02  0.51100000000E-03 0. -1.
    9900012    2    1    2    0    0 -0.37686206800E+01  0.18669007451E+02  0.25573141838E+02  0.59301954079E+02  0.50000018331E+02 0.  0.
         12    1    1    2    0    0  0.37686206800E+01 -0.18669007451E+02 -0.25573141838E+02  0.31886045921E+02  0.00000000000E+00 0. -1.
         11    1    3    3    0    0 -0.20562408984E+02  0.15296798389E+02  0.15095369957E+02  0.29743484977E+02  0.51100000000E-03 0. -1.
        -11    1    3    3    0    0  0.19442393831E+02 -0.51807209822E+00  0.13756554154E+02  0.23822633335E+02  0.51100000000E-03 0.  1.
        -12    1    3    3    0    0 -0.26486055271E+01  0.38902811602E+01 -0.32787822734E+01  0.57358357665E+01  0.00000000000E+00 0.  1.
</event>
<event>
 7    1  0.7578565E-012  0.5930196E+02  0.7816164E-02  0.1266605E+00
        -11   -1    0    0    0    0  0.00000000000E+00  0.00000000000E+00  0.45593999997E+02  0.45594000000E+02  0.51100000000E-03 0.  1.
         11   -1    0    0    0    0 -0.00000000000E+00 -0.00000000000E+00 -0.45593999997E+02  0.45594000000E+02  0.51100000000E-03 0. -1.
    9900012    2    1    2    0    0  0.10521562583E+02 -0.30045050798E+02 -0.18196119000E+01  0.59301963180E+02  0.50000034928E+02 0.  0.
         12    1    1    2    0    0 -0.10521562583E+02  0.30045050798E+02  0.18196119000E+01  0.31886036820E+02  0.00000000000E+00 0. -1.
         11    1    3    3    0    0 -0.37189899926E+01 -0.24828686575E+02  0.18744285951E+02  0.31331179673E+02  0.51100000000E-03 0.  1.
        -11    1    3    3    0    0  0.10419734922E+02 -0.78162610250E+01 -0.19108148429E+02  0.23125443755E+02  0.51100000000E-03 0. -1.
        -12    1    3    3    0    0  0.38208176536E+01  0.25998968023E+01 -0.14557494220E+01  0.48453397512E+01  0.00000000000E+00 0.  1.
</event>
<event>
 7    1  0.7578565E-012  0.5930203E+02  0.7816164E-02  0.1266604E+00
        -11   -1    0    0    0    0  0.00000000000E+00  0.00000000000E+00  0.45593999997E+02  0.45594000000E+02  0.51100000000E-03 0.  1.
         11   -1    0    0    0    0 -0.00000000000E+00 -0.00000000000E+00 -0.45593999997E+02  0.45594000000E+02  0.51100000000E-03 0. -1.
    9900012    2    1    2    0    0  0.18954400470E+02 -0.21863211407E+02  0.13395732190E+02  0.59302032066E+02  0.50000160561E+02 0.  0.
         12    1    1    2    0    0 -0.18954400470E+02  0.21863211407E+02 -0.13395732190E+02  0.31885967934E+02  0.00000000000E+00 0. -1.
         11    1    3    3    0    0 -0.44550687745E+01 -0.27211657539E+01 -0.75111992610E+01  0.91471577797E+01  0.51100000000E-03 0. -1.
        -11    1    3    3    0    0  0.15282280912E+02 -0.82365023882E-01  0.24743506261E+02  0.29082572036E+02  0.51100000000E-03 0.  1.
        -12    1    3    3    0    0  0.81271883317E+01 -0.19059680629E+02 -0.38365748102E+01  0.21072302251E+02  0.00000000000E+00 0.  1.
</event>
<event>
 7    1  0.7578565E-012  0.5930185E+02  0.7816164E-02  0.1266605E+00
        -11   -1    0    0    0    0  0.00000000000E+00  0.00000000000E+00  0.45593999997E+02  0.45594000000E+02  0.51100000000E-03 0.  1.
         11   -1    0    0    0    0 -0.00000000000E+00 -0.00000000000E+00 -0.45593999997E+02  0.45594000000E+02  0.51100000000E-03 0. -1.
    9900012    2    1    2    0    0  0.43817340183E+01  0.30705147123E+02  0.73973393145E+01  0.59301854391E+02  0.49999836524E+02 0.  0.
         12    1    1    2    0    0 -0.43817340183E+01 -0.30705147123E+02 -0.73973393145E+01  0.31886145609E+02  0.00000000000E+00 0. -1.
         11    1    3    3    0    0  0.10076774000E+02  0.62421419686E+01  0.10438448109E+02  0.15794521512E+02  0.51100000000E-03 0.  1.
        -11    1    3    3    0    0 -0.18806204985E+02  0.23397152246E+02 -0.41609333742E+01  0.30305336922E+02  0.51100000000E-03 0. -1.
         12    1    3    3    0    0  0.13111165003E+02  0.10658529087E+01  0.11198245796E+01  0.13201995957E+02  0.00000000000E+00 0. -1.
</event>
<event>
 7    1  0.7578565E-012  0.5930195E+02  0.7816164E-02  0.1266605E+00
        -11   -1    0    0    0    0  0.00000000000E+00  0.00000000000E+00  0.45593999997E+02  0.45594000000E+02  0.51100000000E-03 0.  1.
         11   -1    0    0    0    0 -0.00000000000E+00 -0.00000000000E+00 -0.45593999997E+02  0.45594000000E+02  0.51100000000E-03 0. -1.
    9900012    2    1    2    0    0 -0.71260892806E+01  0.21575698901E+02  0.22370260529E+02  0.59301945248E+02  0.50000002225E+02 0.  0.
         12    1    1    2    0    0  0.71260892806E+01 -0.21575698901E+02 -0.22370260529E+02  0.31886054752E+02  0.00000000000E+00 0. -1.
         11    1    3    3    0    0 -0.92222663135E+01  0.16654270741E+01  0.92972000844E+00  0.94174424793E+01  0.51100000000E-03 0. -1.
        -11    1    3    3    0    0  0.47450039876E+01 -0.11671641336E+02  0.10356119228E+02  0.16309245232E+02  0.51100000000E-03 0.  1.
        -12    1    3    3    0    0 -0.26488269546E+01  0.31581913163E+02  0.11084421293E+02  0.33575257537E+02  0.00000000000E+00 0.  1.
</event>
<event>
 7    1  0.7578565E-012  0.5930195E+02  0.7816164E-02  0.1266605E+00
        -11   -1    0    0    0    0  0.00000000000E+00  0.00000000000E+00  0.45593999997E+02  0.45594000000E+02  0.51100000000E-03 0.  1.
         11   -1    0    0    0    0 -0.00000000000E+00 -0.00000000000E+00 -0.45593999997E+02  0.45594000000E+02  0.51100000000E-03 0. -1.
    9900012    2    1    2    0    0  0.19307023136E+02  0.16488768787E+01  0.25322721994E+02  0.59301949970E+02  0.50000010837E+02 0.  0.
         12    1    1    2    0    0 -0.19307023136E+02 -0.16488768787E+01 -0.25322721994E+02  0.31886050030E+02  0.00000000000E+00 0. -1.
         11    1    3    3    0    0 -0.43908901360E+01 -0.11786128882E+02  0.19639609021E+01  0.12729881889E+02  0.51100000000E-03 0. -1.
        -11    1    3    3    0    0  0.21285525228E+02 -0.17385651897E+00  0.24792613174E+02  0.32676864577E+02  0.51100000000E-03 0.  1.
        -12    1    3    3    0    0  0.24123880441E+01  0.13608862280E+02 -0.14338520820E+01  0.13895203504E+02  0.00000000000E+00 0.  1.
</event>
<event>
 7    1  0.7578565E-012  0.5930196E+02  0.7816164E-02  0.1266605E+00
        -11   -1    0    0    0    0  0.00000000000E+00  0.00000000000E+00  0.45593999997E+02  0.45594000000E+02  0.51100000000E-03 0.  1.
         11   -1    0    0    0    0 -0.00000000000E+00 -0.00000000000E+00 -0.45593999997E+02  0.45594000000E+02  0.51100000000E-03 0. -1.
    9900012    2    1    2    0    0  0.19970122261E+02  0.24837802981E+02  0.99880551610E+00  0.59301955208E+02  0.50000020390E+02 0.  0.
         12    1    1    2    0    0 -0.19970122261E+02 -0.24837802981E+02 -0.99880551610E+00  0.31886044792E+02  0.00000000000E+00 0. -1.
         11    1    3    3    0    0 -0.58266447485E+00  0.87038131794E+01  0.19184408741E+02  0.21074567630E+02  0.51100000000E-03 0.  1.
        -11    1    3    3    0    0  0.16659338201E+01  0.97890439322E+01 -0.15090257616E+02  0.18064235157E+02  0.51100000000E-03 0. -1.
        -12    1    3    3    0    0  0.18886852916E+02  0.63449458690E+01 -0.30953456089E+01  0.20163152422E+02  0.00000000000E+00 0.  1.
</event>
<event>
 7    1  0.7578565E-012  0.5930195E+02  0.7816164E-02  0.1266605E+00
        -11   -1    0    0    0    0  0.00000000000E+00  0.00000000000E+00  0.45593999997E+02  0.45594000000E+02  0.51100000000E-03 0. -1.
         11   -1    0    0    0    0 -0.00000000000E+00 -0.00000000000E+00 -0.45593999997E+02  0.45594000000E+02  0.51100000000E-03 0.  1.
    9900012    2    1    2    0    0 -0.29036134687E+02 -0.12537930633E+02 -0.40525564365E+01  0.59301952333E+02  0.50000015148E+02 0.  0.
         12    1    1    2    0    0  0.29036134687E+02  0.12537930633E+02  0.40525564365E+01  0.31886047667E+02  0.00000000000E+00 0. -1.
         11    1    3    3    0    0 -0.17744465488E+02  0.15730578168E+02  0.55856460360E+01  0.24362195855E+02  0.51100000000E-03 0. -1.
        -11    1    3    3    0    0  0.29891224560E+01 -0.41760664424E+01  0.48732702045E+00  0.51586695837E+01  0.51100000000E-03 0.  1.
         12    1    3    3    0    0 -0.14280791654E+02 -0.24092442359E+02 -0.10125529493E+02  0.29781086895E+02  0.00000000000E+00 0. -1.
</event>
<event>
 7    1  0.7578565E-012  0.5930192E+02  0.7816164E-02  0.1266605E+00
        -11   -1    0    0    0    0  0.00000000000E+00  0.00000000000E+00  0.45593999997E+02  0.45594000000E+02  0.51100000000E-03 0. -1.
         11   -1    0    0    0    0 -0.00000000000E+00 -0.00000000000E+00 -0.45593999997E+02  0.45594000000E+02  0.51100000000E-03 0.  1.
    9900012    2    1    2    0    0  0.23103724489E+02  0.18105116111E+02 -0.12455704373E+02  0.59301923319E+02  0.49999962232E+02 0.  0.
         12    1    1    2    0    0 -0.23103724489E+02 -0.18105116111E+02  0.12455704373E+02  0.31886076681E+02  0.00000000000E+00 0. -1.
         11    1    3    3    0    0 -0.69988225714E+01  0.13298239729E+02 -0.10251100197E+02  0.18190979984E+02  0.51100000000E-03 0. -1.
        -11    1    3    3    0    0  0.32355932548E+02  0.96606280720E+01  0.26693631589E+01  0.33872697055E+02  0.51100000000E-03 0.  1.
        -12    1    3    3    0    0 -0.22533854879E+01 -0.48537516899E+01 -0.48739673353E+01  0.72382462800E+01  0.00000000000E+00 0.  1.
</event>
<event>
 7    1  0.7578565E-012  0.5930195E+02  0.7816164E-02  0.1266605E+00
        -11   -1    0    0    0    0  0.00000000000E+00  0.00000000000E+00  0.45593999997E+02  0.45594000000E+02  0.51100000000E-03 0.  1.
         11   -1    0    0    0    0 -0.00000000000E+00 -0.00000000000E+00 -0.45593999997E+02  0.45594000000E+02  0.51100000000E-03 0. -1.
    9900012    2    1    2    0    0 -0.83008112886E+01 -0.96340171590E+01  0.29240420998E+02  0.59301953290E+02  0.50000016892E+02 0.  0.
         12    1    1    2    0    0  0.83008112886E+01  0.96340171590E+01 -0.29240420998E+02  0.31886046710E+02  0.00000000000E+00 0. -1.
         11    1    3    3    0    0 -0.17186825638E+02 -0.23629329913E+02  0.18212105004E+02  0.34429826846E+02  0.51100000000E-03 0. -1.
        -11    1    3    3    0    0 -0.23944114018E+01  0.93410697669E+01  0.73566362617E+01  0.12128845275E+02  0.51100000000E-03 0.  1.
         12    1    3    3    0    0  0.11280425751E+02  0.46542429874E+01  0.36716797315E+01  0.12743281170E+02  0.00000000000E+00 0. -1.
</event>
<event>
 7    1  0.7578565E-012  0.5930195E+02  0.7816164E-02  0.1266605E+00
        -11   -1    0    0    0    0  0.00000000000E+00  0.00000000000E+00  0.45593999997E+02  0.45594000000E+02  0.51100000000E-03 0.  1.
         11   -1    0    0    0    0 -0.00000000000E+00 -0.00000000000E+00 -0.45593999997E+02  0.45594000000E+02  0.51100000000E-03 0. -1.
    9900012    2    1    2    0    0 -0.24186063408E+02  0.92924500785E+01  0.18585079601E+02  0.59301945440E+02  0.50000002576E+02 0.  0.
         12    1    1    2    0    0  0.24186063408E+02 -0.92924500785E+01 -0.18585079601E+02  0.31886054560E+02  0.00000000000E+00 0. -1.
         11    1    3    3    0    0 -0.59136185500E+01  0.28150305573E+02  0.47632770207E+01  0.29156464059E+02  0.51100000000E-03 0. -1.
        -11    1    3    3    0    0 -0.16099315111E+02 -0.13855231410E+02  0.11995545992E+02  0.24393616140E+02  0.51100000000E-03 0.  1.
         12    1    3    3    0    0 -0.21731297473E+01 -0.50026240841E+01  0.18262565878E+01  0.57518652409E+01  0.00000000000E+00 0. -1.
</event>
<event>
 7    1  0.7578565E-012  0.5930193E+02  0.7816164E-02  0.1266605E+00
        -11   -1    0    0    0    0  0.00000000000E+00  0.00000000000E+00  0.45593999997E+02  0.45594000000E+02  0.51100000000E-03 0. -1.
         11   -1    0    0    0    0 -0.00000000000E+00 -0.00000000000E+00 -0.45593999997E+02  0.45594000000E+02  0.51100000000E-03 0.  1.
    9900012    2    1    2    0    0 -0.13419430611E+02  0.28924712049E+02  0.36400819775E-01  0.59301930784E+02  0.49999975846E+02 0.  0.
         12    1    1    2    0    0  0.13419430611E+02 -0.28924712049E+02 -0.36400819775E-01  0.31886069216E+02  0.00000000000E+00 0. -1.
         11    1    3    3    0    0 -0.12158592369E+02  0.24059367994E+02  0.17207186337E+02  0.31980803907E+02  0.51100000000E-03 0. -1.
        -11    1    3    3    0    0  0.88128822692E+01 -0.10328460973E+01 -0.10949334828E+02  0.14093317509E+02  0.51100000000E-03 0.  1.
        -12    1    3    3    0    0 -0.10073720511E+02  0.58981901530E+01 -0.62214506885E+01  0.13227809368E+02  0.00000000000E+00 0.  1.
</event>
<event>
 7    1  0.9518784E-012  0.5930195E+02  0.7816164E-02  0.1266605E+00
        -11   -1    0    0    0    0  0.00000000000E+00  0.00000000000E+00  0.45593999997E+02  0.45594000000E+02  0.51100000000E-03 0. -1.
         11   -1    0    0    0    0 -0.00000000000E+00 -0.00000000000E+00 -0.45593999997E+02  0.45594000000E+02  0.51100000000E-03 0.  1.
    9900012    2    1    2    0    0  0.57078845795E+00  0.29566353503E+02 -0.11925804339E+02  0.59301954964E+02  0.50000019945E+02 0.  0.
         12    1    1    2    0    0 -0.57078845795E+00 -0.29566353503E+02  0.11925804339E+02  0.31886045036E+02  0.00000000000E+00 0. -1.
         11    1    3    3    0    0  0.66202650024E+01 -0.80228130889E+01 -0.15059259100E+02  0.18302314703E+02  0.51100000000E-03 0. -1.
        -11    1    3    3    0    0  0.43343765817E+01  0.18589148776E+02 -0.22047197264E+00  0.19089051331E+02  0.51100000000E-03 0.  1.
         12    1    3    3    0    0 -0.10383853126E+02  0.19000017816E+02  0.33539267344E+01  0.21910588931E+02  0.00000000000E+00 0. -1.
</event>
<event>
 7    1  0.7578565E-012  0.5930178E+02  0.7816164E-02  0.1266605E+00
        -11   -1    0    0    0    0  0.00000000000E+00  0.00000000000E+00  0.45593999997E+02  0.45594000000E+02  0.51100000000E-03 0.  1.
         11   -1    0    0    0    0 -0.00000000000E+00 -0.00000000000E+00 -0.45593999997E+02  0.45594000000E+02  0.51100000000E-03 0. -1.
    9900012    2    1    2    0    0 -0.17456146921E+02  0.48347678320E+01  0.26241927520E+02  0.59301783460E+02  0.49999707162E+02 0.  0.
         12    1    1    2    0    0  0.17456146921E+02 -0.48347678320E+01 -0.26241927520E+02  0.31886216540E+02  0.00000000000E+00 0. -1.
         11    1    3    3    0    0 -0.19497380158E+02  0.45381669338E+01 -0.57573830378E+01  0.20830032450E+02  0.51100000000E-03 0. -1.
        -11    1    3    3    0    0 -0.96062658711E+01  0.10509018457E+00  0.16337353825E+02  0.18952586055E+02  0.51100000000E-03 0.  1.
         12    1    3    3    0    0  0.11647499108E+02  0.19151071368E+00  0.15661956733E+02  0.19519164955E+02  0.00000000000E+00 0. -1.
</event>
<event>
 7    1  0.7578565E-012  0.5930195E+02  0.7816164E-02  0.1266605E+00
        -11   -1    0    0    0    0  0.00000000000E+00  0.00000000000E+00  0.45593999997E+02  0.45594000000E+02  0.51100000000E-03 0. -1.
         11   -1    0    0    0    0 -0.00000000000E+00 -0.00000000000E+00 -0.45593999997E+02  0.45594000000E+02  0.51100000000E-03 0.  1.
    9900012    2    1    2    0    0 -0.12299962147E+02 -0.28308205673E+02  0.80048049870E+01  0.59301945366E+02  0.50000002440E+02 0.  0.
         12    1    1    2    0    0  0.12299962147E+02  0.28308205673E+02 -0.80048049870E+01  0.31886054634E+02  0.00000000000E+00 0. -1.
         11    1    3    3    0    0 -0.54656595288E+01 -0.74643380849E+01  0.18768625563E+02  0.20924891467E+02  0.51100000000E-03 0. -1.
        -11    1    3    3    0    0 -0.38652972135E+01 -0.25354075430E+02 -0.16502337801E+02  0.30497488694E+02  0.51100000000E-03 0.  1.
        -12    1    3    3    0    0 -0.29690054051E+01  0.45102078416E+01  0.57385172259E+01  0.78795652051E+01  0.00000000000E+00 0.  1.
</event>
<event>
 7    1  0.7578565E-012  0.5930192E+02  0.7816164E-02  0.1266605E+00
        -11   -1    0    0    0    0  0.00000000000E+00  0.00000000000E+00  0.45593999997E+02  0.45594000000E+02  0.51100000000E-03 0.  1.
         11   -1    0    0    0    0 -0.00000000000E+00 -0.00000000000E+00 -0.45593999997E+02  0.45594000000E+02  0.51100000000E-03 0. -1.
    9900012    2    1    2    0    0  0.16100652463E+02 -0.24124113048E+02  0.13248327923E+02  0.59301921018E+02  0.49999958036E+02 0.  0.
         12    1    1    2    0    0 -0.16100652463E+02  0.24124113048E+02 -0.13248327923E+02  0.31886078982E+02  0.00000000000E+00 0. -1.
         11    1    3    3    0    0  0.71898126474E+01 -0.63101676289E+01 -0.27915909041E+01  0.99651694138E+01  0.51100000000E-03 0. -1.
        -11    1    3    3    0    0 -0.82068635777E+01 -0.25570591715E+02  0.14399499571E+02  0.30472173513E+02  0.51100000000E-03 0.  1.
        -12    1    3    3    0    0  0.17117703393E+02  0.77566462961E+01  0.16404192564E+01  0.18864578091E+02  0.00000000000E+00 0.  1.
</event>
<event>
 7    1  0.7578565E-012  0.5930196E+02  0.7816164E-02  0.1266605E+00
        -11   -1    0    0    0    0  0.00000000000E+00  0.00000000000E+00  0.45593999997E+02  0.45594000000E+02  0.51100000000E-03 0. -1.
         11   -1    0    0    0    0 -0.00000000000E+00 -0.00000000000E+00 -0.45593999997E+02  0.45594000000E+02  0.51100000000E-03 0.  1.
    9900012    2    1    2    0    0  0.58839631511E+01  0.30804999538E+02 -0.57576572007E+01  0.59301958613E+02  0.50000026601E+02 0.  0.
         12    1    1    2    0    0 -0.58839631511E+01 -0.30804999538E+02  0.57576572007E+01  0.31886041387E+02  0.00000000000E+00 0. -1.
         11    1    3    3    0    0  0.95431361244E+01  0.30437698966E+01 -0.36370175205E+01  0.10656635444E+02  0.51100000000E-03 0. -1.
        -11    1    3    3    0    0 -0.26760749284E+01  0.33538042029E+02  0.10070095217E+02  0.35119345924E+02  0.51100000000E-03 0.  1.
        -12    1    3    3    0    0 -0.98309804482E+00 -0.57768123881E+01 -0.12190734897E+02  0.13525977246E+02  0.00000000000E+00 0.  1.
</event>
<event>
 7    1  0.7578565E-012  0.5930193E+02  0.7816164E-02  0.1266605E+00
        -11   -1    0    0    0    0  0.00000000000E+00  0.00000000000E+00  0.45593999997E+02  0.45594000000E+02  0.51100000000E-03 0. -1.
         11   -1    0    0    0    0 -0.00000000000E+00 -0.00000000000E+00 -0.45593999997E+02  0.45594000000E+02  0.51100000000E-03 0.  1.
    9900012    2    1    2    0    0  0.19104571724E+02  0.95448621889E+01 -0.23677671814E+02  0.59301934117E+02  0.49999981925E+02 0.  0.
         12    1    1    2    0    0 -0.19104571724E+02 -0.95448621889E+01  0.23677671814E+02  0.31886065883E+02  0.00000000000E+00 0. -1.
         11    1    3    3    0    0  0.14733606393E+02  0.64502317634E+01  0.41862190647E+01  0.16619539027E+02  0.51100000000E-03 0. -1.
        -11    1    3    3    0    0 -0.13323253015E+02 -0.26384724846E+01 -0.97469154490E+01  0.16717445050E+02  0.51100000000E-03 0.  1.
         12    1    3    3    0    0  0.17694218346E+02  0.57331029100E+01 -0.18116975430E+02  0.25964950040E+02  0.00000000000E+00 0. -1.
</event>
<event>
 7    1  0.7578565E-012  0.5930194E+02  0.7816164E-02  0.1266605E+00
        -11   -1    0    0    0    0  0.00000000000E+00  0.00000000000E+00  0.45593999997E+02  0.45594000000E+02  0.51100000000E-03 0. -1.
         11   -1    0    0    0    0 -0.00000000000E+00 -0.00000000000E+00 -0.45593999997E+02  0.45594000000E+02  0.51100000000E-03 0.  1.
    9900012    2    1    2    0    0 -0.29344521235E+02 -0.77428189912E+01  0.97810477775E+01  0.59301936147E+02  0.49999985627E+02 0.  0.
         12    1    1    2    0    0  0.29344521235E+02  0.77428189912E+01 -0.97810477775E+01  0.31886063853E+02  0.00000000000E+00 0. -1.
         11    1    3    3    0    0  0.18040675029E+01  0.67360151717E+01 -0.88190882906E+01  0.11242992417E+02  0.51100000000E-03 0. -1.
        -11    1    3    3    0    0 -0.22063644811E+02 -0.53947472794E+01  0.24939516688E+02  0.33732583854E+02  0.51100000000E-03 0.  1.
        -12    1    3    3    0    0 -0.90849439262E+01 -0.90840868836E+01 -0.63393806200E+01  0.14326359876E+02  0.00000000000E+00 0.  1.
</event>
<event>
 7    1  0.7578565E-012  0.5930196E+02  0.7816164E-02  0.1266605E+00
        -11   -1    0    0    0    0  0.00000000000E+00  0.00000000000E+00  0.45593999997E+02  0.45594000000E+02  0.51100000000E-03 0. -1.
         11   -1    0    0    0    0 -0.00000000000E+00 -0.00000000000E+00 -0.45593999997E+02  0.45594000000E+02  0.51100000000E-03 0.  1.
    9900012    2    1    2    0    0  0.90782968292E+01 -0.20736992713E+02 -0.22456211956E+02  0.59301956102E+02  0.50000022020E+02 0.  0.
         12    1    1    2    0    0 -0.90782968292E+01  0.20736992713E+02  0.22456211956E+02  0.31886043898E+02  0.00000000000E+00 0. -1.
         11    1    3    3    0    0 -0.17639134157E+02 -0.15665677524E+02 -0.10826355570E+02  0.25956935129E+02  0.51100000000E-03 0. -1.
        -11    1    3    3    0    0  0.11826044829E+02 -0.41732874721E+01  0.25109171244E+01  0.12789697795E+02  0.51100000000E-03 0.  1.
         12    1    3    3    0    0  0.14891386157E+02 -0.89802771701E+00 -0.14140773510E+02  0.20555323177E+02  0.00000000000E+00 0. -1.
</event>
<event>
 7    1  0.7578565E-012  0.5930195E+02  0.7816164E-02  0.1266605E+00
        -11   -1    0    0    0    0  0.00000000000E+00  0.00000000000E+00  0.45593999997E+02  0.45594000000E+02  0.51100000000E-03 0. -1.
         11   -1    0    0    0    0 -0.00000000000E+00 -0.00000000000E+00 -0.45593999997E+02  0.45594000000E+02  0.51100000000E-03 0.  1.
    9900012    2    1    2    0    0 -0.74251010165E+01  0.23911590688E+02 -0.19743962710E+02  0.59301947284E+02  0.50000005938E+02 0.  0.
         12    1    1    2    0    0  0.74251010165E+01 -0.23911590688E+02  0.19743962710E+02  0.31886052716E+02  0.00000000000E+00 0. -1.
         11    1    3    3    0    0 -0.15874527564E+02 -0.97828503659E+01 -0.35465612191E+01  0.18981119129E+02  0.51100000000E-03 0. -1.
        -11    1    3    3    0    0 -0.17652439480E+01  0.12317553185E+02 -0.96326516521E+01  0.15736142499E+02  0.51100000000E-03 0.  1.
         12    1    3    3    0    0  0.10214670495E+02  0.21376887869E+02 -0.65647498388E+01  0.24584685655E+02  0.00000000000E+00 0. -1.
</event>
<event>
 7    1  0.7578565E-012  0.5930195E+02  0.7816164E-02  0.1266605E+00
        -11   -1    0    0    0    0  0.00000000000E+00  0.00000000000E+00  0.45593999997E+02  0.45594000000E+02  0.51100000000E-03 0.  1.
         11   -1    0    0    0    0 -0.00000000000E+00 -0.00000000000E+00 -0.45593999997E+02  0.45594000000E+02  0.51100000000E-03 0. -1.
    9900012    2    1    2    0    0 -0.53180174026E+01 -0.17451833164E+02  0.26150958394E+02  0.59301946390E+02  0.50000004308E+02 0.  0.
         12    1    1    2    0    0  0.53180174026E+01  0.17451833164E+02 -0.26150958394E+02  0.31886053610E+02  0.00000000000E+00 0. -1.
         11    1    3    3    0    0 -0.14744731612E+02 -0.14332832925E+02 -0.85054338669E+01  0.22252631653E+02  0.51100000000E-03 0. -1.
        -11    1    3    3    0    0  0.35992483009E+01 -0.54902918213E+01  0.14134277998E+02  0.15584470072E+02  0.51100000000E-03 0.  1.
         12    1    3    3    0    0  0.58274659084E+01  0.23712915816E+01  0.20522114263E+02  0.21464844665E+02  0.00000000000E+00 0. -1.
</event>
<event>
 7    1  0.7578565E-012  0.5930195E+02  0.7816164E-02  0.1266605E+00
        -11   -1    0    0    0    0  0.00000000000E+00  0.00000000000E+00  0.45593999997E+02  0.45594000000E+02  0.51100000000E-03 0. -1.
         11   -1    0    0    0    0 -0.00000000000E+00 -0.00000000000E+00 -0.45593999997E+02  0.45594000000E+02  0.51100000000E-03 0.  1.
    9900012    2    1    2    0    0 -0.22077386884E+02  0.22901623615E+02 -0.21964880107E+01  0.59301953907E+02  0.50000018017E+02 0.  0.
         12    1    1    2    0    0  0.22077386884E+02 -0.22901623615E+02  0.21964880107E+01  0.31886046093E+02  0.00000000000E+00 0. -1.
         11    1    3    3    0    0 -0.61957815037E+01  0.27819341021E+02  0.15568531971E+02  0.32475877683E+02  0.51100000000E-03 0. -1.
        -11    1    3    3    0    0 -0.54466724242E+01  0.34010850150E+01 -0.81612365826E+01  0.10384575225E+02  0.51100000000E-03 0.  1.
         12    1    3    3    0    0 -0.10434932957E+02 -0.83188024212E+01 -0.96037833990E+01  0.16441500999E+02  0.00000000000E+00 0. -1.
</event>
<event>
 7    1  0.7578565E-012  0.5930203E+02  0.7816164E-02  0.1266604E+00
        -11   -1    0    0    0    0  0.00000000000E+00  0.00000000000E+00  0.45593999997E+02  0.45594000000E+02  0.51100000000E-03 0.  1.
         11   -1    0    0    0    0 -0.00000000000E+00 -0.00000000000E+00 -0.45593999997E+02  0.45594000000E+02  0.51100000000E-03 0. -1.
    9900012    2    1    2    0    0  0.14003591884E+02 -0.12332270203E+02  0.25855942478E+02  0.59302027607E+02  0.50000152428E+02 0.  0.
         12    1    1    2    0    0 -0.14003591884E+02  0.12332270203E+02 -0.25855942478E+02  0.31885972393E+02  0.00000000000E+00 0. -1.
         11    1    3    3    0    0  0.97458671540E+01 -0.19079652424E+02  0.38894386595E+01  0.21774820242E+02  0.51100000000E-03 0. -1.
        -11    1    3    3    0    0 -0.13574053664E+00  0.17193698580E+02  0.65633887038E+01  0.18404341007E+02  0.51100000000E-03 0.  1.
        -12    1    3    3    0    0  0.43934652667E+01 -0.10446316359E+02  0.15403115115E+02  0.19122866358E+02  0.00000000000E+00 0.  1.
</event>
<event>
 7    1  0.7578565E-012  0.5930189E+02  0.7816164E-02  0.1266605E+00
        -11   -1    0    0    0    0  0.00000000000E+00  0.00000000000E+00  0.45593999997E+02  0.45594000000E+02  0.51100000000E-03 0.  1.
         11   -1    0    0    0    0 -0.00000000000E+00 -0.00000000000E+00 -0.45593999997E+02  0.45594000000E+02  0.51100000000E-03 0. -1.
    9900012    2    1    2    0    0  0.57060142934E+01  0.20524090471E+02  0.23726081979E+02  0.59301892447E+02  0.49999905929E+02 0.  0.
         12    1    1    2    0    0 -0.57060142934E+01 -0.20524090471E+02 -0.23726081979E+02  0.31886107553E+02  0.00000000000E+00 0. -1.
         11    1    3    3    0    0 -0.67328970020E+01  0.13033211954E+02  0.26532351006E+02  0.30317687347E+02  0.51100000000E-03 0. -1.
        -11    1    3    3    0    0  0.18096101939E+02  0.11333320583E+02  0.56514858158E+00  0.21359598639E+02  0.51100000000E-03 0.  1.
         12    1    3    3    0    0 -0.56571906434E+01 -0.38424420662E+01 -0.33714176083E+01  0.76246064618E+01  0.00000000000E+00 0. -1.
</event>
<event>
 7    1  0.7578565E-012  0.5930194E+02  0.7816164E-02  0.1266605E+00
        -11   -1    0    0    0    0  0.00000000000E+00  0.00000000000E+00  0.45593999997E+02  0.45594000000E+02  0.51100000000E-03 0.  1.
         11   -1    0    0    0    0 -0.00000000000E+00 -0.00000000000E+00 -0.45593999997E+02  0.45594000000E+02  0.51100000000E-03 0. -1.
    9900012    2    1    2    0    0  0.61383194773E-01 -0.48839304475E+00  0.31882260433E+02  0.59301939942E+02  0.49999992549E+02 0.  0.
         12    1    1    2    0    0 -0.61383194773E-01  0.48839304475E+00 -0.31882260433E+02  0.31886060058E+02  0.00000000000E+00 0. -1.
         11    1    3    3    0    0 -0.10005248876E+02 -0.12957438393E+01 -0.10508930484E+02  0.14567826789E+02  0.51100000000E-03 0. -1.
        -11    1    3    3    0    0  0.46408292940E+01 -0.26868495411E+01  0.32393928283E+02  0.32834784099E+02  0.51100000000E-03 0.  1.
         12    1    3    3    0    0  0.54258027772E+01  0.34942003356E+01  0.99972626342E+01  0.11899329054E+02  0.00000000000E+00 0. -1.
</event>
<event>
 7    1  0.7578565E-012  0.5930193E+02  0.7816164E-02  0.1266605E+00
        -11   -1    0    0    0    0  0.00000000000E+00  0.00000000000E+00  0.45593999997E+02  0.45594000000E+02  0.51100000000E-03 0.  1.
         11   -1    0    0    0    0 -0.00000000000E+00 -0.00000000000E+00 -0.45593999997E+02  0.45594000000E+02  0.51100000000E-03 0. -1.
    9900012    2    1    2    0    0 -0.27388192997E+02 -0.11800944292E+02  0.11284774127E+02  0.59301928920E+02  0.49999972447E+02 0.  0.
         12    1    1    2    0    0  0.27388192997E+02  0.11800944292E+02 -0.11284774127E+02  0.31886071080E+02  0.00000000000E+00 0. -1.
         11    1    3    3    0    0  0.55453985747E+01 -0.18697096852E+02  0.11543266422E+02  0.22662300766E+02  0.51100000000E-03 0. -1.
        -11    1    3    3    0    0 -0.24859424814E+02 -0.15832875014E+01  0.39228012377E+00  0.24912881916E+02  0.51100000000E-03 0.  1.
         12    1    3    3    0    0 -0.80741667576E+01  0.84794400613E+01 -0.65077241959E+00  0.11726746238E+02  0.00000000000E+00 0. -1.
</event>
<event>
 7    1  0.7578565E-012  0.5930193E+02  0.7816164E-02  0.1266605E+00
        -11   -1    0    0    0    0  0.00000000000E+00  0.00000000000E+00  0.45593999997E+02  0.45594000000E+02  0.51100000000E-03 0. -1.
         11   -1    0    0    0    0 -0.00000000000E+00 -0.00000000000E+00 -0.45593999997E+02  0.45594000000E+02  0.51100000000E-03 0.  1.
    9900012    2    1    2    0    0 -0.12432197076E+02  0.21302496346E+02 -0.20208050287E+02  0.59301934531E+02  0.49999982680E+02 0.  0.
         12    1    1    2    0    0  0.12432197076E+02 -0.21302496346E+02  0.20208050287E+02  0.31886065469E+02  0.00000000000E+00 0. -1.
         11    1    3    3    0    0 -0.15586245060E+02  0.76914677151E+01  0.70973719739E+01  0.18773981994E+02  0.51100000000E-03 0. -1.
        -11    1    3    3    0    0  0.61360473142E+01 -0.68622635890E+01 -0.95495741583E+01  0.13264090812E+02  0.51100000000E-03 0.  1.
        -12    1    3    3    0    0 -0.29819993299E+01  0.20473292220E+02 -0.17755848103E+02  0.27263861725E+02  0.00000000000E+00 0.  1.
</event>
<event>
 7    1  0.7578565E-012  0.5930189E+02  0.7816164E-02  0.1266605E+00
        -11   -1    0    0    0    0  0.00000000000E+00  0.00000000000E+00  0.45593999997E+02  0.45594000000E+02  0.51100000000E-03 0.  1.
         11   -1    0    0    0    0 -0.00000000000E+00 -0.00000000000E+00 -0.45593999997E+02  0.45594000000E+02  0.51100000000E-03 0. -1.
    9900012    2    1    2    0    0  0.35330192630E+01  0.89942912423E+01  0.30386586217E+02  0.59301888259E+02  0.49999898291E+02 0.  0.
         12    1    1    2    0    0 -0.35330192630E+01 -0.89942912423E+01 -0.30386586217E+02  0.31886111741E+02  0.00000000000E+00 0. -1.
         11    1    3    3    0    0  0.24286102620E+02 -0.43557956152E+01  0.17298161074E+02  0.30133272519E+02  0.51100000000E-03 0. -1.
        -11    1    3    3    0    0 -0.10341420529E+02  0.79717200486E+01  0.11390767452E+02  0.17327518071E+02  0.51100000000E-03 0.  1.
         12    1    3    3    0    0 -0.10411662827E+02  0.53783668089E+01  0.16976576908E+01  0.11841097669E+02  0.00000000000E+00 0. -1.
</event>
<event>
 7    1  0.7578565E-012  0.5930195E+02  0.7816164E-02  0.1266605E+00
        -11   -1    0    0    0    0  0.00000000000E+00  0.00000000000E+00  0.45593999997E+02  0.45594000000E+02  0.51100000000E-03 0. -1.
         11   -1    0    0    0    0 -0.00000000000E+00 -0.00000000000E+00 -0.45593999997E+02  0.45594000000E+02  0.51100000000E-03 0.  1.
    9900012    2    1    2    0    0 -0.24964148289E+02 -0.57488776811E+01 -0.18985836787E+02  0.59301948303E+02  0.50000007796E+02 0.  0.
         12    1    1    2    0    0  0.24964148289E+02  0.57488776811E+01  0.18985836787E+02  0.31886051697E+02  0.00000000000E+00 0. -1.
         11    1    3    3    0    0  0.10003351788E+02 -0.14688446800E+01  0.19402843880E+01  0.10295108326E+02  0.51100000000E-03 0. -1.
        -11    1    3    3    0    0 -0.25238493166E+02  0.28659229052E+01 -0.64953110577E+00  0.25408993335E+02  0.51100000000E-03 0.  1.
        -12    1    3    3    0    0 -0.97290069108E+01 -0.71459559063E+01 -0.20276590069E+02  0.23597846641E+02  0.00000000000E+00 0.  1.
</event>
<event>
 7    1  0.7578565E-012  0.5930194E+02  0.7816164E-02  0.1266605E+00
        -11   -1    0    0    0    0  0.00000000000E+00  0.00000000000E+00  0.45593999997E+02  0.45594000000E+02  0.51100000000E-03 0.  1.
         11   -1    0    0    0    0 -0.00000000000E+00 -0.00000000000E+00 -0.45593999997E+02  0.45594000000E+02  0.51100000000E-03 0. -1.
    9900012    2    1    2    0    0  0.29583336537E+02 -0.77279790185E+01 -0.90457501741E+01  0.59301936326E+02  0.49999985954E+02 0.  0.
         12    1    1    2    0    0 -0.29583336537E+02  0.77279790185E+01  0.90457501741E+01  0.31886063674E+02  0.00000000000E+00 0. -1.
         11    1    3    3    0    0  0.26285751709E+02 -0.36391791050E+01 -0.23050917444E+02  0.35150094776E+02  0.51100000000E-03 0. -1.
        -11    1    3    3    0    0 -0.33158372916E+01 -0.74534531876E+01  0.14582574374E+02  0.16709285353E+02  0.51100000000E-03 0.  1.
        -12    1    3    3    0    0  0.66134221199E+01  0.33646532741E+01 -0.57740710378E+00  0.74425561976E+01  0.00000000000E+00 0.  1.
</event>
<event>
 7    1  0.7578565E-012  0.5930194E+02  0.7816164E-02  0.1266605E+00
        -11   -1    0    0    0    0  0.00000000000E+00  0.00000000000E+00  0.45593999997E+02  0.45594000000E+02  0.51100000000E-03 0.  1.
         11   -1    0    0    0    0 -0.00000000000E+00 -0.00000000000E+00 -0.45593999997E+02  0.45594000000E+02  0.51100000000E-03 0. -1.
    9900012    2    1    2    0    0 -0.26416624804E+02 -0.17129719690E+02  0.50453338687E+01  0.59301941032E+02  0.49999994536E+02 0.  0.
         12    1    1    2    0    0  0.26416624804E+02  0.17129719690E+02 -0.50453338687E+01  0.31886058968E+02  0.00000000000E+00 0. -1.
         11    1    3    3    0    0  0.25455728384E+01  0.10466645362E+02  0.12687032647E+02  0.16643058729E+02  0.51100000000E-03 0. -1.
        -11    1    3    3    0    0 -0.10854617087E+02 -0.80705083347E+01  0.32119183829E+01  0.13902238555E+02  0.51100000000E-03 0.  1.
         12    1    3    3    0    0 -0.18107580556E+02 -0.19525856717E+02 -0.10853617161E+02  0.28756643747E+02  0.00000000000E+00 0. -1.
</event>
<event>
 7    1  0.7578565E-012  0.5930194E+02  0.7816164E-02  0.1266605E+00
        -11   -1    0    0    0    0  0.00000000000E+00  0.00000000000E+00  0.45593999997E+02  0.45594000000E+02  0.51100000000E-03 0.  1.
         11   -1    0    0    0    0 -0.00000000000E+00 -0.00000000000E+00 -0.45593999997E+02  0.45594000000E+02  0.51100000000E-03 0. -1.
    9900012    2    1    2    0    0  0.17030658507E+02  0.19486405053E+02  0.18626791875E+02  0.59301942127E+02  0.49999996534E+02 0.  0.
         12    1    1    2    0    0 -0.17030658507E+02 -0.19486405053E+02 -0.18626791875E+02  0.31886057873E+02  0.00000000000E+00 0. -1.
         11    1    3    3    0    0  0.51045386216E+01 -0.27627707043E+01  0.47775596519E+01  0.75175988848E+01  0.51100000000E-03 0. -1.
        -11    1    3    3    0    0  0.58348680057E+00  0.28392463309E+02  0.22518001863E+02  0.36242693578E+02  0.51100000000E-03 0.  1.
        -12    1    3    3    0    0  0.11342633085E+02 -0.61432875517E+01 -0.86687696395E+01  0.15541649665E+02  0.00000000000E+00 0.  1.
</event>
<event>
 7    1  0.7578565E-012  0.5930197E+02  0.7816164E-02  0.1266605E+00
        -11   -1    0    0    0    0  0.00000000000E+00  0.00000000000E+00  0.45593999997E+02  0.45594000000E+02  0.51100000000E-03 0. -1.
         11   -1    0    0    0    0 -0.00000000000E+00 -0.00000000000E+00 -0.45593999997E+02  0.45594000000E+02  0.51100000000E-03 0.  1.
    9900012    2    1    2    0    0 -0.12720602988E+02 -0.14135676304E+02 -0.25594689574E+02  0.59301965136E+02  0.50000038496E+02 0.  0.
         12    1    1    2    0    0  0.12720602988E+02  0.14135676304E+02  0.25594689574E+02  0.31886034864E+02  0.00000000000E+00 0. -1.
         11    1    3    3    0    0 -0.25813185643E+02 -0.36964653043E+01  0.17635903745E+01  0.26136079662E+02  0.51100000000E-03 0. -1.
        -11    1    3    3    0    0  0.59691791989E+01 -0.55406670741E+01 -0.20729111391E+02  0.22271644556E+02  0.51100000000E-03 0.  1.
         12    1    3    3    0    0  0.71234034567E+01 -0.48985439259E+01 -0.66291685582E+01  0.10894240918E+02  0.00000000000E+00 0. -1.
</event>
<event>
 7    1  0.7578565E-012  0.5930199E+02  0.7816164E-02  0.1266605E+00
        -11   -1    0    0    0    0  0.00000000000E+00  0.00000000000E+00  0.45593999997E+02  0.45594000000E+02  0.51100000000E-03 0.  1.
         11   -1    0    0    0    0 -0.00000000000E+00 -0.00000000000E+00 -0.45593999997E+02  0.45594000000E+02  0.51100000000E-03 0. -1.
    9900012    2    1    2    0    0 -0.19471250399E+02 -0.25224763544E+02 -0.11399533941E+01  0.59301987680E+02  0.50000079611E+02 0.  0.
         12    1    1    2    0    0  0.19471250399E+02  0.25224763544E+02  0.11399533941E+01  0.31886012320E+02  0.00000000000E+00 0. -1.
         11    1    3    3    0    0  0.27238644410E+01  0.12061504032E+02 -0.44786749420E+00  0.12373354540E+02  0.51100000000E-03 0. -1.
        -11    1    3    3    0    0 -0.22239127049E+02 -0.26978320637E+02  0.47301365562E+01  0.35281478830E+02  0.51100000000E-03 0.  1.
        -12    1    3    3    0    0  0.44012208875E-01 -0.10307946939E+02 -0.54222224561E+01  0.11647154310E+02  0.00000000000E+00 0.  1.
</event>
<event>
 7    1  0.7578565E-012  0.5930193E+02  0.7816164E-02  0.1266605E+00
        -11   -1    0    0    0    0  0.00000000000E+00  0.00000000000E+00  0.45593999997E+02  0.45594000000E+02  0.51100000000E-03 0.  1.
         11   -1    0    0    0    0 -0.00000000000E+00 -0.00000000000E+00 -0.45593999997E+02  0.45594000000E+02  0.51100000000E-03 0. -1.
    9900012    2    1    2    0    0 -0.17162130776E+01 -0.12076420190E+02  0.29460752970E+02  0.59301932863E+02  0.49999979638E+02 0.  0.
         12    1    1    2    0    0  0.17162130776E+01  0.12076420190E+02 -0.29460752970E+02  0.31886067137E+02  0.00000000000E+00 0. -1.
         11    1    3    3    0    0  0.12158858761E+02 -0.10890344881E+02 -0.24176127965E+01  0.16500979058E+02  0.51100000000E-03 0. -1.
        -11    1    3    3    0    0 -0.83010945182E+01 -0.12904952955E+02  0.20003180869E+02  0.25210577663E+02  0.51100000000E-03 0.  1.
        -12    1    3    3    0    0 -0.55739773205E+01  0.11718877646E+02  0.11875184897E+02  0.17590376141E+02  0.00000000000E+00 0.  1.
</event>
<event>
 7    1  0.7578565E-012  0.5930194E+02  0.7816164E-02  0.1266605E+00
        -11   -1    0    0    0    0  0.00000000000E+00  0.00000000000E+00  0.45593999997E+02  0.45594000000E+02  0.51100000000E-03 0.  1.
         11   -1    0    0    0    0 -0.00000000000E+00 -0.00000000000E+00 -0.45593999997E+02  0.45594000000E+02  0.51100000000E-03 0. -1.
    9900012    2    1    2    0    0  0.87315506763E+01  0.30154578226E+02  0.55841186308E+01  0.59301938060E+02  0.49999989116E+02 0.  0.
         12    1    1    2    0    0 -0.87315506763E+01 -0.30154578226E+02 -0.55841186308E+01  0.31886061940E+02  0.00000000000E+00 0. -1.
         11    1    3    3    0    0 -0.10921292131E+02  0.61049647134E+01 -0.22126167656E+01  0.12705939130E+02  0.51100000000E-03 0. -1.
        -11    1    3    3    0    0  0.10674333905E+02  0.29272391677E+02  0.14361400580E+02  0.34308368450E+02  0.51100000000E-03 0.  1.
        -12    1    3    3    0    0  0.89785089015E+01 -0.52227781647E+01 -0.65646651835E+01  0.12287630480E+02  0.00000000000E+00 0.  1.
</event>
<event>
 7    1  0.7578565E-012  0.5930194E+02  0.7816164E-02  0.1266605E+00
        -11   -1    0    0    0    0  0.00000000000E+00  0.00000000000E+00  0.45593999997E+02  0.45594000000E+02  0.51100000000E-03 0.  1.
         11   -1    0    0    0    0 -0.00000000000E+00 -0.00000000000E+00 -0.45593999997E+02  0.45594000000E+02  0.51100000000E-03 0. -1.
    9900012    2    1    2    0    0 -0.24860229348E+02  0.13593507837E+02  0.14625544923E+02  0.59301936855E+02  0.49999986919E+02 0.  0.
         12    1    1    2    0    0  0.24860229348E+02 -0.13593507837E+02 -0.14625544923E+02  0.31886063145E+02  0.00000000000E+00 0. -1.
         11    1    3    3    0    0 -0.20430226185E+02  0.15989896087E+02  0.60188847431E+01  0.26632647121E+02  0.51100000000E-03 0. -1.
        -11    1    3    3    0    0  0.23342985346E+01 -0.14267283281E+02  0.11773094033E+02  0.18644303829E+02  0.51100000000E-03 0.  1.
         12    1    3    3    0    0 -0.67643016980E+01  0.11870895032E+02 -0.31664338529E+01  0.14024985906E+02  0.00000000000E+00 0. -1.
</event>
<event>
 7    1  0.7578565E-012  0.5930200E+02  0.7816164E-02  0.1266605E+00
        -11   -1    0    0    0    0  0.00000000000E+00  0.00000000000E+00  0.45593999997E+02  0.45594000000E+02  0.51100000000E-03 0.  1.
         11   -1    0    0    0    0 -0.00000000000E+00 -0.00000000000E+00 -0.45593999997E+02  0.45594000000E+02  0.51100000000E-03 0. -1.
    9900012    2    1    2    0    0 -0.24551918795E+02  0.18471245226E+02  0.85283695648E+01  0.59302004576E+02  0.50000110426E+02 0.  0.
         12    1    1    2    0    0  0.24551918795E+02 -0.18471245226E+02 -0.85283695648E+01  0.31885995424E+02  0.00000000000E+00 0. -1.
         11    1    3    3    0    0  0.91884408684E+00  0.42493364351E+01 -0.14617539900E+02  0.15250364179E+02  0.51100000000E-03 0. -1.
        -11    1    3    3    0    0 -0.13685898476E+02  0.95838858181E+01  0.26153415743E+02  0.31034752129E+02  0.51100000000E-03 0.  1.
        -12    1    3    3    0    0 -0.11784864406E+02  0.46380229728E+01 -0.30075062774E+01  0.13016888268E+02  0.00000000000E+00 0.  1.
</event>
<event>
 7    1  0.7578565E-012  0.5930191E+02  0.7816164E-02  0.1266605E+00
        -11   -1    0    0    0    0  0.00000000000E+00  0.00000000000E+00  0.45593999997E+02  0.45594000000E+02  0.51100000000E-03 0.  1.
         11   -1    0    0    0    0 -0.00000000000E+00 -0.00000000000E+00 -0.45593999997E+02  0.45594000000E+02  0.51100000000E-03 0. -1.
    9900012    2    1    2    0    0 -0.25005155317E+02  0.93421596658E+00  0.19763398829E+02  0.59301913925E+02  0.49999945099E+02 0.  0.
         12    1    1    2    0    0  0.25005155317E+02 -0.93421596658E+00 -0.19763398829E+02  0.31886086075E+02  0.00000000000E+00 0. -1.
         11    1    3    3    0    0  0.88771911465E+01  0.50015060610E+01  0.51831758061E+01  0.11431749526E+02  0.51100000000E-03 0. -1.
        -11    1    3    3    0    0 -0.23104525729E+02  0.77473866907E+01 -0.24700086468E+01  0.24493714554E+02  0.51100000000E-03 0.  1.
         12    1    3    3    0    0 -0.10777820735E+02 -0.11814676785E+02  0.17050231670E+02  0.23376449844E+02  0.00000000000E+00 0. -1.
</event>
<event>
 7    1  0.7578565E-012  0.5930196E+02  0.7816164E-02  0.1266605E+00
        -11   -1    0    0    0    0  0.00000000000E+00  0.00000000000E+00  0.45593999997E+02  0.45594000000E+02  0.51100000000E-03 0. -1.
         11   -1    0    0    0    0 -0.00000000000E+00 -0.00000000000E+00 -0.45593999997E+02  0.45594000000E+02  0.51100000000E-03 0.  1.
    9900012    2    1    2    0    0  0.21120549265E+02 -0.23098021512E+02  0.60929050586E+01  0.59301957739E+02  0.50000025006E+02 0.  0.
         12    1    1    2    0    0 -0.21120549265E+02  0.23098021512E+02 -0.60929050586E+01  0.31886042261E+02  0.00000000000E+00 0. -1.
         11    1    3    3    0    0  0.18153749358E+02  0.74244669051E+01  0.88603768568E+01  0.21521793673E+02  0.51100000000E-03 0. -1.
        -11    1    3    3    0    0  0.85944295030E+01 -0.23888764201E+02  0.52783206653E+01  0.25930637147E+02  0.51100000000E-03 0.  1.
        -12    1    3    3    0    0 -0.56276295966E+01 -0.66337242162E+01 -0.80457924634E+01  0.11849526920E+02  0.00000000000E+00 0.  1.
</event>
<event>
 7    1  0.7578565E-012  0.5930193E+02  0.7816164E-02  0.1266605E+00
        -11   -1    0    0    0    0  0.00000000000E+00  0.00000000000E+00  0.45593999997E+02  0.45594000000E+02  0.51100000000E-03 0.  1.
         11   -1    0    0    0    0 -0.00000000000E+00 -0.00000000000E+00 -0.45593999997E+02  0.45594000000E+02  0.51100000000E-03 0. -1.
    9900012    2    1    2    0    0  0.12987600307E+02  0.36424752844E+01  0.28892486883E+02  0.59301934294E+02  0.49999982247E+02 0.  0.
         12    1    1    2    0    0 -0.12987600307E+02 -0.36424752844E+01 -0.28892486883E+02  0.31886065706E+02  0.00000000000E+00 0. -1.
         11    1    3    3    0    0  0.62200795670E+01 -0.18636969406E+02  0.28047938848E+01  0.19846734932E+02  0.51100000000E-03 0. -1.
        -11    1    3    3    0    0  0.75756239009E+01  0.20548824686E+02  0.11487659633E+02  0.24730762172E+02  0.51100000000E-03 0.  1.
        -12    1    3    3    0    0 -0.80810316090E+00  0.17306200038E+01  0.14600033365E+02  0.14724437191E+02  0.00000000000E+00 0.  1.
</event>
<event>
 7    1  0.7578565E-012  0.5930196E+02  0.7816164E-02  0.1266605E+00
        -11   -1    0    0    0    0  0.00000000000E+00  0.00000000000E+00  0.45593999997E+02  0.45594000000E+02  0.51100000000E-03 0. -1.
         11   -1    0    0    0    0 -0.00000000000E+00 -0.00000000000E+00 -0.45593999997E+02  0.45594000000E+02  0.51100000000E-03 0.  1.
    9900012    2    1    2    0    0 -0.12057453256E+02 -0.93851621906E+01 -0.27986714493E+02  0.59301958595E+02  0.50000026568E+02 0.  0.
         12    1    1    2    0    0  0.12057453256E+02  0.93851621906E+01  0.27986714493E+02  0.31886041405E+02  0.00000000000E+00 0. -1.
         11    1    3    3    0    0 -0.25716678452E+02 -0.19806768444E+02 -0.23736340986E+02  0.40212802818E+02  0.51100000000E-03 0. -1.
        -11    1    3    3    0    0  0.41438487197E+01 -0.39718213538E-01  0.49320134452E+00  0.41732849862E+01  0.51100000000E-03 0.  1.
         12    1    3    3    0    0  0.95153764758E+01  0.10461324467E+02 -0.47435748508E+01  0.14915870791E+02  0.00000000000E+00 0. -1.
</event>
<event>
 7    1  0.7578565E-012  0.5930195E+02  0.7816164E-02  0.1266605E+00
        -11   -1    0    0    0    0  0.00000000000E+00  0.00000000000E+00  0.45593999997E+02  0.45594000000E+02  0.51100000000E-03 0. -1.
         11   -1    0    0    0    0 -0.00000000000E+00 -0.00000000000E+00 -0.45593999997E+02  0.45594000000E+02  0.51100000000E-03 0.  1.
    9900012    2    1    2    0    0 -0.27690143807E+02  0.52363175828E+01 -0.14918343223E+02  0.59301952104E+02  0.50000014729E+02 0.  0.
         12    1    1    2    0    0  0.27690143807E+02 -0.52363175828E+01  0.14918343223E+02  0.31886047896E+02  0.00000000000E+00 0. -1.
         11    1    3    3    0    0 -0.23448244980E+02  0.52310914707E+01  0.15367113195E+02  0.28518988040E+02  0.51100000000E-03 0. -1.
        -11    1    3    3    0    0 -0.47022840888E+01  0.55842772536E+00 -0.27572267503E+02  0.27975940604E+02  0.51100000000E-03 0.  1.
         12    1    3    3    0    0  0.46038526158E+00 -0.55320161319E+00 -0.27131889150E+01  0.28070234596E+01  0.00000000000E+00 0. -1.
</event>
<event>
 7    1  0.7578565E-012  0.5930194E+02  0.7816164E-02  0.1266605E+00
        -11   -1    0    0    0    0  0.00000000000E+00  0.00000000000E+00  0.45593999997E+02  0.45594000000E+02  0.51100000000E-03 0. -1.
         11   -1    0    0    0    0 -0.00000000000E+00 -0.00000000000E+00 -0.45593999997E+02  0.45594000000E+02  0.51100000000E-03 0.  1.
    9900012    2    1    2    0    0 -0.14175224000E+02 -0.26117982678E+02 -0.11560060918E+02  0.59301937166E+02  0.49999987486E+02 0.  0.
         12    1    1    2    0    0  0.14175224000E+02  0.26117982678E+02  0.11560060918E+02  0.31886062834E+02  0.00000000000E+00 0. -1.
         11    1    3    3    0    0 -0.19207324927E+02 -0.32738163703E+01 -0.65255596603E+01  0.20548044520E+02  0.51100000000E-03 0. -1.
        -11    1    3    3    0    0  0.11582304705E+02 -0.15963840755E+02 -0.15155257876E+02  0.24873195120E+02  0.51100000000E-03 0.  1.
        -12    1    3    3    0    0 -0.65502037782E+01 -0.68803255535E+01  0.10120756619E+02  0.13880697526E+02  0.00000000000E+00 0.  1.
</event>
<event>
 7    1  0.7578565E-012  0.5930197E+02  0.7816164E-02  0.1266605E+00
        -11   -1    0    0    0    0  0.00000000000E+00  0.00000000000E+00  0.45593999997E+02  0.45594000000E+02  0.51100000000E-03 0.  1.
         11   -1    0    0    0    0 -0.00000000000E+00 -0.00000000000E+00 -0.45593999997E+02  0.45594000000E+02  0.51100000000E-03 0. -1.
    9900012    2    1    2    0    0 -0.11494540575E+02 -0.26786374390E+01  0.29621262891E+02  0.59301972076E+02  0.50000051153E+02 0.  0.
         12    1    1    2    0    0  0.11494540575E+02  0.26786374390E+01 -0.29621262891E+02  0.31886027924E+02  0.00000000000E+00 0. -1.
         11    1    3    3    0    0 -0.19550269802E+02  0.11188392567E+02  0.29778045616E+02  0.37337985732E+02  0.51100000000E-03 0. -1.
        -11    1    3    3    0    0  0.11247583178E+02 -0.10034006854E+02  0.38605900924E+01  0.15559356574E+02  0.51100000000E-03 0.  1.
         12    1    3    3    0    0 -0.31918539504E+01 -0.38330231521E+01 -0.40173728179E+01  0.64046297694E+01  0.00000000000E+00 0. -1.
</event>
<event>
 7    1  0.7578565E-012  0.5930194E+02  0.7816164E-02  0.1266605E+00
        -11   -1    0    0    0    0  0.00000000000E+00  0.00000000000E+00  0.45593999997E+02  0.45594000000E+02  0.51100000000E-03 0. -1.
         11   -1    0    0    0    0 -0.00000000000E+00 -0.00000000000E+00 -0.45593999997E+02  0.45594000000E+02  0.51100000000E-03 0.  1.
    9900012    2    1    2    0    0  0.13147868294E+02  0.22776950757E+02  0.18029561452E+02  0.59301937016E+02  0.49999987212E+02 0.  0.
         12    1    1    2    0    0 -0.13147868294E+02 -0.22776950757E+02 -0.18029561452E+02  0.31886062984E+02  0.00000000000E+00 0. -1.
         11    1    3    3    0    0 -0.49071935410E+01  0.70656734180E+01 -0.11075147776E+02  0.14023665278E+02  0.51100000000E-03 0.  1.
        -11    1    3    3    0    0  0.14676069844E+02 -0.97049029411E+00  0.22790111839E+02  0.27124123495E+02  0.51100000000E-03 0. -1.
        -12    1    3    3    0    0  0.33789919910E+01  0.16681767634E+02  0.63145973895E+01  0.18154148244E+02  0.00000000000E+00 0.  1.
</event>
<event>
 7    1  0.7578565E-012  0.5930195E+02  0.7816164E-02  0.1266605E+00
        -11   -1    0    0    0    0  0.00000000000E+00  0.00000000000E+00  0.45593999997E+02  0.45594000000E+02  0.51100000000E-03 0.  1.
         11   -1    0    0    0    0 -0.00000000000E+00 -0.00000000000E+00 -0.45593999997E+02  0.45594000000E+02  0.51100000000E-03 0. -1.
    9900012    2    1    2    0    0 -0.24538762895E+02 -0.17277875692E+01  0.20287528386E+02  0.59301953799E+02  0.50000017821E+02 0.  0.
         12    1    1    2    0    0  0.24538762895E+02  0.17277875692E+01 -0.20287528386E+02  0.31886046201E+02  0.00000000000E+00 0. -1.
         11    1    3    3    0    0 -0.13653534125E+02  0.14157273588E+02  0.10602833736E+02  0.22344293971E+02  0.51100000000E-03 0. -1.
        -11    1    3    3    0    0 -0.89925103978E+01 -0.24107965350E+02  0.11725798719E+02  0.28276378701E+02  0.51100000000E-03 0.  1.
        -12    1    3    3    0    0 -0.18927183726E+01  0.82229041924E+01 -0.20411040699E+01  0.86812811278E+01  0.00000000000E+00 0.  1.
</event>
<event>
 7    1  0.7578565E-012  0.5930193E+02  0.7816164E-02  0.1266605E+00
        -11   -1    0    0    0    0  0.00000000000E+00  0.00000000000E+00  0.45593999997E+02  0.45594000000E+02  0.51100000000E-03 0.  1.
         11   -1    0    0    0    0 -0.00000000000E+00 -0.00000000000E+00 -0.45593999997E+02  0.45594000000E+02  0.51100000000E-03 0. -1.
    9900012    2    1    2    0    0 -0.19026995989E+02  0.24261211576E+02  0.81294971566E+01  0.59301926433E+02  0.49999967911E+02 0.  0.
         12    1    1    2    0    0  0.19026995989E+02 -0.24261211576E+02 -0.81294971566E+01  0.31886073567E+02  0.00000000000E+00 0. -1.
         11    1    3    3    0    0 -0.15853949658E+02  0.72734117538E+01 -0.14085586347E+02  0.22419946059E+02  0.51100000000E-03 0. -1.
        -11    1    3    3    0    0  0.41141544063E+00  0.43997911138E+01  0.23331272894E+02  0.23746067456E+02  0.51100000000E-03 0.  1.
        -12    1    3    3    0    0 -0.35844617724E+01  0.12588008708E+02 -0.11161893898E+01  0.13135912918E+02  0.00000000000E+00 0.  1.
</event>
<event>
 7    1  0.7578565E-012  0.5930194E+02  0.7816164E-02  0.1266605E+00
        -11   -1    0    0    0    0  0.00000000000E+00  0.00000000000E+00  0.45593999997E+02  0.45594000000E+02  0.51100000000E-03 0. -1.
         11   -1    0    0    0    0 -0.00000000000E+00 -0.00000000000E+00 -0.45593999997E+02  0.45594000000E+02  0.51100000000E-03 0.  1.
    9900012    2    1    2    0    0 -0.21442372647E+02 -0.33498950639E+01 -0.23360725089E+02  0.59301943198E+02  0.49999998487E+02 0.  0.
         12    1    1    2    0    0  0.21442372647E+02  0.33498950639E+01  0.23360725089E+02  0.31886056802E+02  0.00000000000E+00 0. -1.
         11    1    3    3    0    0  0.11398704006E+01  0.13989966651E+02  0.43382344878E+01  0.14691451601E+02  0.51100000000E-03 0. -1.
        -11    1    3    3    0    0 -0.20365543438E+02 -0.15571043218E+02 -0.11382638180E+02  0.28049548991E+02  0.51100000000E-03 0.  1.
        -12    1    3    3    0    0 -0.22166996089E+01 -0.17688184968E+01 -0.16316321398E+02  0.16560942605E+02  0.00000000000E+00 0.  1.
</event>
<event>
 7    1  0.7578565E-012  0.5930178E+02  0.7816164E-02  0.1266605E+00
        -11   -1    0    0    0    0  0.00000000000E+00  0.00000000000E+00  0.45593999997E+02  0.45594000000E+02  0.51100000000E-03 0. -1.
         11   -1    0    0    0    0 -0.00000000000E+00 -0.00000000000E+00 -0.45593999997E+02  0.45594000000E+02  0.51100000000E-03 0.  1.
    9900012    2    1    2    0    0  0.12470525099E+02  0.23213585684E+02 -0.17954002154E+02  0.59301784328E+02  0.49999708744E+02 0.  0.
         12    1    1    2    0    0 -0.12470525099E+02 -0.23213585684E+02  0.17954002154E+02  0.31886215672E+02  0.00000000000E+00 0. -1.
         11    1    3    3    0    0  0.48016898531E+01  0.39633965300E+01  0.46502655908E+01  0.77710815094E+01  0.51100000000E-03 0. -1.
        -11    1    3    3    0    0 -0.13230022463E+02  0.85971747185E+01 -0.23210482911E+02  0.28065484581E+02  0.51100000000E-03 0.  1.
        -12    1    3    3    0    0  0.20898857709E+02  0.10653014435E+02  0.60621516629E+00  0.23465218237E+02  0.00000000000E+00 0.  1.
</event>
<event>
 7    1  0.7578565E-012  0.5930199E+02  0.7816164E-02  0.1266605E+00
        -11   -1    0    0    0    0  0.00000000000E+00  0.00000000000E+00  0.45593999997E+02  0.45594000000E+02  0.51100000000E-03 0.  1.
         11   -1    0    0    0    0 -0.00000000000E+00 -0.00000000000E+00 -0.45593999997E+02  0.45594000000E+02  0.51100000000E-03 0. -1.
    9900012    2    1    2    0    0 -0.55006438382E+01 -0.21254144648E+02  0.23124058566E+02  0.59301986892E+02  0.50000078175E+02 0.  0.
         12    1    1    2    0    0  0.55006438382E+01  0.21254144648E+02 -0.23124058566E+02  0.31886013108E+02  0.00000000000E+00 0. -1.
         11    1    3    3    0    0 -0.16431872515E+02 -0.47841947315E+00  0.45031575178E+01  0.17044463836E+02  0.51100000000E-03 0. -1.
        -11    1    3    3    0    0  0.79601063807E+01 -0.60495012012E+01  0.24237766774E+02  0.26218869099E+02  0.51100000000E-03 0.  1.
        -12    1    3    3    0    0  0.29711222964E+01 -0.14726223973E+02 -0.56168657254E+01  0.16038653958E+02  0.00000000000E+00 0.  1.
</event>
<event>
 7    1  0.7578565E-012  0.5930198E+02  0.7816164E-02  0.1266605E+00
        -11   -1    0    0    0    0  0.00000000000E+00  0.00000000000E+00  0.45593999997E+02  0.45594000000E+02  0.51100000000E-03 0.  1.
         11   -1    0    0    0    0 -0.00000000000E+00 -0.00000000000E+00 -0.45593999997E+02  0.45594000000E+02  0.51100000000E-03 0. -1.
    9900012    2    1    2    0    0 -0.13072528805E+01  0.60302795269E+01  0.31283308712E+02  0.59301975080E+02  0.50000056632E+02 0.  0.
         12    1    1    2    0    0  0.13072528805E+01 -0.60302795269E+01 -0.31283308712E+02  0.31886024920E+02  0.00000000000E+00 0. -1.
         11    1    3    3    0    0 -0.85243598993E+01 -0.60768437867E+01 -0.50763561480E+01  0.11634523372E+02  0.51100000000E-03 0. -1.
        -11    1    3    3    0    0 -0.49959158025E+01  0.15389199582E+02  0.28515242561E+02  0.32785754483E+02  0.51100000000E-03 0.  1.
         12    1    3    3    0    0  0.12213022821E+02 -0.32820762687E+01  0.78444222990E+01  0.14881697224E+02  0.00000000000E+00 0. -1.
</event>
<event>
 7    1  0.7578565E-012  0.5930194E+02  0.7816164E-02  0.1266605E+00
        -11   -1    0    0    0    0  0.00000000000E+00  0.00000000000E+00  0.45593999997E+02  0.45594000000E+02  0.51100000000E-03 0.  1.
         11   -1    0    0    0    0 -0.00000000000E+00 -0.00000000000E+00 -0.45593999997E+02  0.45594000000E+02  0.51100000000E-03 0. -1.
    9900012    2    1    2    0    0 -0.22757326239E+02  0.16493036600E+02  0.15060042281E+02  0.59301936785E+02  0.49999986791E+02 0.  0.
         12    1    1    2    0    0  0.22757326239E+02 -0.16493036600E+02 -0.15060042281E+02  0.31886063215E+02  0.00000000000E+00 0. -1.
         11    1    3    3    0    0 -0.84546912727E+01  0.57335973016E+01 -0.58182810593E+01  0.11756204204E+02  0.51100000000E-03 0. -1.
        -11    1    3    3    0    0 -0.14852584607E+02  0.68436968277E+01  0.31893819358E+02  0.35842030764E+02  0.51100000000E-03 0.  1.
        -12    1    3    3    0    0  0.54994964107E+00  0.39157424711E+01 -0.11015496018E+02  0.11703701817E+02  0.00000000000E+00 0.  1.
</event>
<event>
 7    1  0.7578565E-012  0.5930195E+02  0.7816164E-02  0.1266605E+00
        -11   -1    0    0    0    0  0.00000000000E+00  0.00000000000E+00  0.45593999997E+02  0.45594000000E+02  0.51100000000E-03 0.  1.
         11   -1    0    0    0    0 -0.00000000000E+00 -0.00000000000E+00 -0.45593999997E+02  0.45594000000E+02  0.51100000000E-03 0. -1.
    9900012    2    1    2    0    0 -0.29141685167E+02 -0.10212022595E+02 -0.79496532198E+01  0.59301949662E+02  0.50000010275E+02 0.  0.
         12    1    1    2    0    0  0.29141685167E+02  0.10212022595E+02  0.79496532198E+01  0.31886050338E+02  0.00000000000E+00 0. -1.
         11    1    3    3    0    0  0.10697308976E+02 -0.73124748316E+00  0.53857954840E+01  0.11998913929E+02  0.51100000000E-03 0. -1.
        -11    1    3    3    0    0 -0.29566578082E+02 -0.25972950078E+01 -0.79445572182E+00  0.29691070054E+02  0.51100000000E-03 0.  1.
         12    1    3    3    0    0 -0.10272416062E+02 -0.68834801044E+01 -0.12540992982E+02  0.17611965679E+02  0.00000000000E+00 0. -1.
</event>
<event>
 7    1  0.7578565E-012  0.5930197E+02  0.7816164E-02  0.1266605E+00
        -11   -1    0    0    0    0  0.00000000000E+00  0.00000000000E+00  0.45593999997E+02  0.45594000000E+02  0.51100000000E-03 0.  1.
         11   -1    0    0    0    0 -0.00000000000E+00 -0.00000000000E+00 -0.45593999997E+02  0.45594000000E+02  0.51100000000E-03 0. -1.
    9900012    2    1    2    0    0  0.28234191346E+02 -0.15225829381E+01 -0.14738766024E+02  0.59301967891E+02  0.50000043521E+02 0.  0.
         12    1    1    2    0    0 -0.28234191346E+02  0.15225829381E+01  0.14738766024E+02  0.31886032109E+02  0.00000000000E+00 0. -1.
         11    1    3    3    0    0  0.23303185028E+01 -0.64312973855E+01 -0.12750048595E+02  0.14469129546E+02  0.51100000000E-03 0. -1.
        -11    1    3    3    0    0  0.12938794825E+02  0.18178946422E+02  0.80714489176E+01  0.23728354187E+02  0.51100000000E-03 0.  1.
        -12    1    3    3    0    0  0.12965078018E+02 -0.13270231974E+02 -0.10060166347E+02  0.21104484159E+02  0.00000000000E+00 0.  1.
</event>
<event>
 7    1  0.7578565E-012  0.5930195E+02  0.7816164E-02  0.1266605E+00
        -11   -1    0    0    0    0  0.00000000000E+00  0.00000000000E+00  0.45593999997E+02  0.45594000000E+02  0.51100000000E-03 0. -1.
         11   -1    0    0    0    0 -0.00000000000E+00 -0.00000000000E+00 -0.45593999997E+02  0.45594000000E+02  0.51100000000E-03 0.  1.
    9900012    2    1    2    0    0  0.14487475141E+02  0.25976311690E+02  0.11491939668E+02  0.59301946899E+02  0.50000005237E+02 0.  0.
         12    1    1    2    0    0 -0.14487475141E+02 -0.25976311690E+02 -0.11491939668E+02  0.31886053101E+02  0.00000000000E+00 0. -1.
         11    1    3    3    0    0  0.44648918893E+01  0.47894850262E+01  0.24783766975E+02  0.25634147775E+02  0.51100000000E-03 0. -1.
        -11    1    3    3    0    0  0.95977309706E+01  0.42290992923E+01 -0.12998549163E+02  0.16702215458E+02  0.51100000000E-03 0.  1.
         12    1    3    3    0    0  0.42485228151E+00  0.16957727372E+02 -0.29327814361E+00  0.16965583666E+02  0.00000000000E+00 0. -1.
</event>
<event>
 7    1  0.7578565E-012  0.5930194E+02  0.7816164E-02  0.1266605E+00
        -11   -1    0    0    0    0  0.00000000000E+00  0.00000000000E+00  0.45593999997E+02  0.45594000000E+02  0.51100000000E-03 0.  1.
         11   -1    0    0    0    0 -0.00000000000E+00 -0.00000000000E+00 -0.45593999997E+02  0.45594000000E+02  0.51100000000E-03 0. -1.
    9900012    2    1    2    0    0 -0.68166255176E+01  0.21764408934E+01  0.31072777782E+02  0.59301940389E+02  0.49999993363E+02 0.  0.
         12    1    1    2    0    0  0.68166255176E+01 -0.21764408934E+01 -0.31072777782E+02  0.31886059611E+02  0.00000000000E+00 0. -1.
         11    1    3    3    0    0  0.75241658832E+00 -0.18624450554E+02  0.24239659465E+02  0.30577726868E+02  0.51100000000E-03 0. -1.
        -11    1    3    3    0    0  0.28796118982E+01  0.13033203118E+02  0.81485663468E+01  0.15638276183E+02  0.51100000000E-03 0.  1.
         12    1    3    3    0    0 -0.10448654004E+02  0.77676883298E+01 -0.13154480296E+01  0.13085937338E+02  0.00000000000E+00 0. -1.
</event>
<event>
 7    1  0.7578565E-012  0.5930196E+02  0.7816164E-02  0.1266605E+00
        -11   -1    0    0    0    0  0.00000000000E+00  0.00000000000E+00  0.45593999997E+02  0.45594000000E+02  0.51100000000E-03 0. -1.
         11   -1    0    0    0    0 -0.00000000000E+00 -0.00000000000E+00 -0.45593999997E+02  0.45594000000E+02  0.51100000000E-03 0.  1.
    9900012    2    1    2    0    0  0.99626664751E+00  0.31831684306E+02 -0.15719424483E+01  0.59301957975E+02  0.50000025436E+02 0.  0.
         12    1    1    2    0    0 -0.99626664751E+00 -0.31831684306E+02  0.15719424483E+01  0.31886042025E+02  0.00000000000E+00 0. -1.
         11    1    3    3    0    0 -0.12909442296E+02  0.22056348622E+02  0.17181226131E+02  0.30794979242E+02  0.51100000000E-03 0. -1.
        -11    1    3    3    0    0  0.12781345282E+02  0.12708911550E+02 -0.17507074022E+02  0.25127213556E+02  0.51100000000E-03 0.  1.
        -12    1    3    3    0    0  0.11243636606E+01 -0.29335758659E+01 -0.12460945568E+01  0.33797651763E+01  0.00000000000E+00 0.  1.
</event>
<event>
 7    1  0.7578565E-012  0.5930194E+02  0.7816164E-02  0.1266605E+00
        -11   -1    0    0    0    0  0.00000000000E+00  0.00000000000E+00  0.45593999997E+02  0.45594000000E+02  0.51100000000E-03 0.  1.
         11   -1    0    0    0    0 -0.00000000000E+00 -0.00000000000E+00 -0.45593999997E+02  0.45594000000E+02  0.51100000000E-03 0. -1.
    9900012    2    1    2    0    0 -0.23722107533E+02 -0.16665270321E+02  0.13275953162E+02  0.59301944223E+02  0.50000000356E+02 0.  0.
         12    1    1    2    0    0  0.23722107533E+02  0.16665270321E+02 -0.13275953162E+02  0.31886055777E+02  0.00000000000E+00 0. -1.
         11    1    3    3    0    0 -0.71539530228E+01 -0.17071324388E+02 -0.12483404343E+02  0.22325871640E+02  0.51100000000E-03 0. -1.
        -11    1    3    3    0    0 -0.32995990237E+01 -0.59249316995E+01  0.20116284159E+02  0.21228684792E+02  0.51100000000E-03 0.  1.
        -12    1    3    3    0    0 -0.13268555486E+02  0.63309857659E+01  0.56430733457E+01  0.15747387791E+02  0.00000000000E+00 0.  1.
</event>
<event>
 7    1  0.7578565E-012  0.5930202E+02  0.7816164E-02  0.1266604E+00
        -11   -1    0    0    0    0  0.00000000000E+00  0.00000000000E+00  0.45593999997E+02  0.45594000000E+02  0.51100000000E-03 0.  1.
         11   -1    0    0    0    0 -0.00000000000E+00 -0.00000000000E+00 -0.45593999997E+02  0.45594000000E+02  0.51100000000E-03 0. -1.
    9900012    2    1    2    0    0  0.10725631948E+01 -0.13083830811E+02  0.29058190512E+02  0.59302024144E+02  0.50000146112E+02 0.  0.
         12    1    1    2    0    0 -0.10725631948E+01  0.13083830811E+02 -0.29058190512E+02  0.31885975856E+02  0.00000000000E+00 0. -1.
         11    1    3    3    0    0 -0.16546292777E+02 -0.42933396340E+01  0.78768951072E+01  0.18821743986E+02  0.51100000000E-03 0. -1.
        -11    1    3    3    0    0  0.18949625314E+02 -0.15443762918E+02  0.22883339080E+02  0.33485001423E+02  0.51100000000E-03 0.  1.
         12    1    3    3    0    0 -0.13307693422E+01  0.66532717405E+01 -0.17020436757E+01  0.69952787342E+01  0.00000000000E+00 0. -1.
</event>
<event>
 7    1  0.7578565E-012  0.5930189E+02  0.7816164E-02  0.1266605E+00
        -11   -1    0    0    0    0  0.00000000000E+00  0.00000000000E+00  0.45593999997E+02  0.45594000000E+02  0.51100000000E-03 0.  1.
         11   -1    0    0    0    0 -0.00000000000E+00 -0.00000000000E+00 -0.45593999997E+02  0.45594000000E+02  0.51100000000E-03 0. -1.
    9900012    2    1    2    0    0 -0.12696227158E+02  0.27749141683E+02  0.92474133720E+01  0.59301894840E+02  0.49999910294E+02 0.  0.
         12    1    1    2    0    0  0.12696227158E+02 -0.27749141683E+02 -0.92474133720E+01  0.31886105160E+02  0.00000000000E+00 0. -1.
         11    1    3    3    0    0  0.56888796779E+01  0.21317757141E+02 -0.14261693208E+02  0.26271772208E+02  0.51100000000E-03 0. -1.
        -11    1    3    3    0    0 -0.44133526184E+01  0.85649053724E+00  0.15187434050E+02  0.15838857619E+02  0.51100000000E-03 0.  1.
         12    1    3    3    0    0 -0.13971754218E+02  0.55748940048E+01  0.83216725301E+01  0.17191265014E+02  0.00000000000E+00 0. -1.
</event>
<event>
 7    1  0.7578565E-012  0.5930193E+02  0.7816164E-02  0.1266605E+00
        -11   -1    0    0    0    0  0.00000000000E+00  0.00000000000E+00  0.45593999997E+02  0.45594000000E+02  0.51100000000E-03 0. -1.
         11   -1    0    0    0    0 -0.00000000000E+00 -0.00000000000E+00 -0.45593999997E+02  0.45594000000E+02  0.51100000000E-03 0.  1.
    9900012    2    1    2    0    0  0.21426475780E+02  0.92561933639E+01 -0.21724423942E+02  0.59301928189E+02  0.49999971114E+02 0.  0.
         12    1    1    2    0    0 -0.21426475780E+02 -0.92561933639E+01  0.21724423942E+02  0.31886071811E+02  0.00000000000E+00 0. -1.
         11    1    3    3    0    0  0.36810542335E+01 -0.41966411445E+01  0.13158595272E+02  0.14293725440E+02  0.51100000000E-03 0. -1.
        -11    1    3    3    0    0  0.52498181138E+01 -0.39386017930E+01 -0.11932317702E+02  0.13618126902E+02  0.51100000000E-03 0.  1.
         12    1    3    3    0    0  0.12495603433E+02  0.17391436301E+02 -0.22950701512E+02  0.31390075847E+02  0.00000000000E+00 0. -1.
</event>
<event>
 7    1  0.7578565E-012  0.5930199E+02  0.7816164E-02  0.1266605E+00
        -11   -1    0    0    0    0  0.00000000000E+00  0.00000000000E+00  0.45593999997E+02  0.45594000000E+02  0.51100000000E-03 0.  1.
         11   -1    0    0    0    0 -0.00000000000E+00 -0.00000000000E+00 -0.45593999997E+02  0.45594000000E+02  0.51100000000E-03 0. -1.
    9900012    2    1    2    0    0 -0.10154697723E+02  0.23109057270E+02  0.19482586118E+02  0.59301990912E+02  0.50000085505E+02 0.  0.
         12    1    1    2    0    0  0.10154697723E+02 -0.23109057270E+02 -0.19482586118E+02  0.31886009088E+02  0.00000000000E+00 0. -1.
         11    1    3    3    0    0 -0.13612680112E+02  0.12626060801E+02  0.12439781743E+02  0.22348839819E+02  0.51100000000E-03 0.  1.
        -11    1    3    3    0    0  0.13229788690E+02  0.68534517816E+01 -0.93037171589E+01  0.17565769648E+02  0.51100000000E-03 0. -1.
         12    1    3    3    0    0 -0.97718063005E+01  0.36295446877E+01  0.16346521534E+02  0.19387381444E+02  0.00000000000E+00 0. -1.
</event>
<event>
 7    1  0.7578565E-012  0.5930195E+02  0.7816164E-02  0.1266605E+00
        -11   -1    0    0    0    0  0.00000000000E+00  0.00000000000E+00  0.45593999997E+02  0.45594000000E+02  0.51100000000E-03 0. -1.
         11   -1    0    0    0    0 -0.00000000000E+00 -0.00000000000E+00 -0.45593999997E+02  0.45594000000E+02  0.51100000000E-03 0.  1.
    9900012    2    1    2    0    0 -0.42543362310E+01  0.29996326073E+02 -0.99418926069E+01  0.59301950021E+02  0.50000010930E+02 0.  0.
         12    1    1    2    0    0  0.42543362310E+01 -0.29996326073E+02  0.99418926069E+01  0.31886049979E+02  0.00000000000E+00 0. -1.
         11    1    3    3    0    0  0.26059013538E+00  0.33100146446E+01  0.64897146105E+01  0.72897530927E+01  0.51100000000E-03 0. -1.
        -11    1    3    3    0    0  0.12161736917E+02  0.27258548903E+02 -0.18624110551E+02  0.35182294229E+02  0.51100000000E-03 0.  1.
        -12    1    3    3    0    0 -0.16676663284E+02 -0.57223747403E+00  0.21925033341E+01  0.16829902699E+02  0.00000000000E+00 0.  1.
</event>
<event>
 7    1  0.7578565E-012  0.5930195E+02  0.7816164E-02  0.1266605E+00
        -11   -1    0    0    0    0  0.00000000000E+00  0.00000000000E+00  0.45593999997E+02  0.45594000000E+02  0.51100000000E-03 0.  1.
         11   -1    0    0    0    0 -0.00000000000E+00 -0.00000000000E+00 -0.45593999997E+02  0.45594000000E+02  0.51100000000E-03 0. -1.
    9900012    2    1    2    0    0 -0.29922489831E+02  0.74313315322E+01 -0.81326634941E+01  0.59301948167E+02  0.50000007548E+02 0.  0.
         12    1    1    2    0    0  0.29922489831E+02 -0.74313315322E+01  0.81326634941E+01  0.31886051833E+02  0.00000000000E+00 0. -1.
         11    1    3    3    0    0  0.57761939140E+01  0.15527580762E+02  0.63471384618E+01  0.17741373886E+02  0.51100000000E-03 0. -1.
        -11    1    3    3    0    0 -0.19145901869E+02 -0.29969148102E+01 -0.63946201979E+00  0.19389584026E+02  0.51100000000E-03 0.  1.
         12    1    3    3    0    0 -0.16552781876E+02 -0.50993344193E+01 -0.13840339936E+02  0.22170990255E+02  0.00000000000E+00 0. -1.
</event>
<event>
 7    1  0.7578565E-012  0.5930181E+02  0.7816164E-02  0.1266605E+00
        -11   -1    0    0    0    0  0.00000000000E+00  0.00000000000E+00  0.45593999997E+02  0.45594000000E+02  0.51100000000E-03 0. -1.
         11   -1    0    0    0    0 -0.00000000000E+00 -0.00000000000E+00 -0.45593999997E+02  0.45594000000E+02  0.51100000000E-03 0.  1.
    9900012    2    1    2    0    0  0.23179594363E+02 -0.16107620779E+02 -0.14831729030E+02  0.59301808192E+02  0.49999752268E+02 0.  0.
         12    1    1    2    0    0 -0.23179594363E+02  0.16107620779E+02  0.14831729030E+02  0.31886191808E+02  0.00000000000E+00 0. -1.
         11    1    3    3    0    0  0.21232315149E+02  0.12281478997E+02  0.23024481599E+01  0.24636298438E+02  0.51100000000E-03 0. -1.
        -11    1    3    3    0    0  0.26348844551E+01 -0.91158446985E+01 -0.10383276444E+01  0.95456464012E+01  0.51100000000E-03 0.  1.
         12    1    3    3    0    0 -0.68760524103E+00 -0.19273255077E+02 -0.16095849546E+02  0.25119863353E+02  0.00000000000E+00 0. -1.
</event>
<event>
 7    1  0.7578565E-012  0.5930180E+02  0.7816164E-02  0.1266605E+00
        -11   -1    0    0    0    0  0.00000000000E+00  0.00000000000E+00  0.45593999997E+02  0.45594000000E+02  0.51100000000E-03 0.  1.
         11   -1    0    0    0    0 -0.00000000000E+00 -0.00000000000E+00 -0.45593999997E+02  0.45594000000E+02  0.51100000000E-03 0. -1.
    9900012    2    1    2    0    0  0.75822208879E+01 -0.30811474491E+02 -0.31452360868E+01  0.59301803238E+02  0.49999743233E+02 0.  0.
         12    1    1    2    0    0 -0.75822208879E+01  0.30811474491E+02  0.31452360868E+01  0.31886196762E+02  0.00000000000E+00 0. -1.
         11    1    3    3    0    0  0.12618863429E+02  0.64427056600E+01 -0.42558857245E+00  0.14174812039E+02  0.51100000000E-03 0. -1.
        -11    1    3    3    0    0 -0.22121408196E+01 -0.32878560148E+02  0.73749548773E+01  0.33768080255E+02  0.51100000000E-03 0.  1.
         12    1    3    3    0    0 -0.28245017214E+01 -0.43756200033E+01 -0.10094602392E+02  0.11358910944E+02  0.00000000000E+00 0. -1.
</event>
<event>
 7    1  0.7578565E-012  0.5930192E+02  0.7816164E-02  0.1266605E+00
        -11   -1    0    0    0    0  0.00000000000E+00  0.00000000000E+00  0.45593999997E+02  0.45594000000E+02  0.51100000000E-03 0.  1.
         11   -1    0    0    0    0 -0.00000000000E+00 -0.00000000000E+00 -0.45593999997E+02  0.45594000000E+02  0.51100000000E-03 0. -1.
    9900012    2    1    2    0    0 -0.21958241913E+01 -0.69245866053E+00  0.31802841263E+02  0.59301923803E+02  0.49999963114E+02 0.  0.
         12    1    1    2    0    0  0.21958241913E+01  0.69245866053E+00 -0.31802841263E+02  0.31886076197E+02  0.00000000000E+00 0. -1.
         11    1    3    3    0    0  0.74657282975E+01  0.85139731665E+01  0.23833351052E+02  0.26386615181E+02  0.51100000000E-03 0. -1.
        -11    1    3    3    0    0 -0.55455328637E+01 -0.15416200332E+02  0.15333926127E+02  0.22439729458E+02  0.51100000000E-03 0.  1.
         12    1    3    3    0    0 -0.41160196251E+01  0.62097685048E+01 -0.73644359164E+01  0.10475579163E+02  0.00000000000E+00 0. -1.
</event>
<event>
 7    1  0.7578565E-012  0.5930190E+02  0.7816164E-02  0.1266605E+00
        -11   -1    0    0    0    0  0.00000000000E+00  0.00000000000E+00  0.45593999997E+02  0.45594000000E+02  0.51100000000E-03 0. -1.
         11   -1    0    0    0    0 -0.00000000000E+00 -0.00000000000E+00 -0.45593999997E+02  0.45594000000E+02  0.51100000000E-03 0.  1.
    9900012    2    1    2    0    0 -0.28944477492E+02  0.92966020759E+01 -0.96183986314E+01  0.59301903035E+02  0.49999925239E+02 0.  0.
         12    1    1    2    0    0  0.28944477492E+02 -0.92966020759E+01  0.96183986314E+01  0.31886096965E+02  0.00000000000E+00 0. -1.
         11    1    3    3    0    0 -0.13838283174E+02  0.19858095783E+02 -0.15848522509E+02  0.28931258447E+02  0.51100000000E-03 0. -1.
        -11    1    3    3    0    0  0.46172651005E+01 -0.80939290699E+01  0.46949305966E+01  0.10434232045E+02  0.51100000000E-03 0.  1.
        -12    1    3    3    0    0 -0.19723459419E+02 -0.24675646374E+01  0.15351932810E+01  0.19936412543E+02  0.00000000000E+00 0.  1.
</event>
<event>
 7    1  0.7578565E-012  0.5930194E+02  0.7816164E-02  0.1266605E+00
        -11   -1    0    0    0    0  0.00000000000E+00  0.00000000000E+00  0.45593999997E+02  0.45594000000E+02  0.51100000000E-03 0. -1.
         11   -1    0    0    0    0 -0.00000000000E+00 -0.00000000000E+00 -0.45593999997E+02  0.45594000000E+02  0.51100000000E-03 0.  1.
    9900012    2    1    2    0    0  0.23464404149E+02  0.13131479840E+02 -0.17137875695E+02  0.59301940222E+02  0.49999993059E+02 0.  0.
         12    1    1    2    0    0 -0.23464404149E+02 -0.13131479840E+02  0.17137875695E+02  0.31886059778E+02  0.00000000000E+00 0. -1.
         11    1    3    3    0    0 -0.11910818399E+02  0.12346418805E+02 -0.81655611029E+01  0.18999422113E+02  0.51100000000E-03 0. -1.
        -11    1    3    3    0    0  0.31544290037E+02  0.64032164693E+01 -0.54545805404E+01  0.32646529130E+02  0.51100000000E-03 0.  1.
         12    1    3    3    0    0  0.38309325112E+01 -0.56181554341E+01 -0.35177340520E+01  0.76559889791E+01  0.00000000000E+00 0. -1.
</event>
<event>
 7    1  0.7578565E-012  0.5930191E+02  0.7816164E-02  0.1266605E+00
        -11   -1    0    0    0    0  0.00000000000E+00  0.00000000000E+00  0.45593999997E+02  0.45594000000E+02  0.51100000000E-03 0.  1.
         11   -1    0    0    0    0 -0.00000000000E+00 -0.00000000000E+00 -0.45593999997E+02  0.45594000000E+02  0.51100000000E-03 0. -1.
    9900012    2    1    2    0    0  0.62026561774E+01  0.21767375984E+02  0.22459541640E+02  0.59301911944E+02  0.49999941486E+02 0.  0.
         12    1    1    2    0    0 -0.62026561774E+01 -0.21767375984E+02 -0.22459541640E+02  0.31886088056E+02  0.00000000000E+00 0. -1.
         11    1    3    3    0    0  0.13794012092E+01  0.15873269771E+02  0.10897583330E+01  0.15970316666E+02  0.51100000000E-03 0. -1.
        -11    1    3    3    0    0  0.25258297977E+01 -0.82955170703E+01 -0.72511698718E+01  0.11303755323E+02  0.51100000000E-03 0.  1.
        -12    1    3    3    0    0  0.22974251705E+01  0.14189623284E+02  0.28620953178E+02  0.32027839955E+02  0.00000000000E+00 0.  1.
</event>
<event>
 7    1  0.7578565E-012  0.5930193E+02  0.7816164E-02  0.1266605E+00
        -11   -1    0    0    0    0  0.00000000000E+00  0.00000000000E+00  0.45593999997E+02  0.45594000000E+02  0.51100000000E-03 0. -1.
         11   -1    0    0    0    0 -0.00000000000E+00 -0.00000000000E+00 -0.45593999997E+02  0.45594000000E+02  0.51100000000E-03 0.  1.
    9900012    2    1    2    0    0  0.10925541086E+02  0.27878981302E+02  0.10959774654E+02  0.59301926128E+02  0.49999967356E+02 0.  0.
         12    1    1    2    0    0 -0.10925541086E+02 -0.27878981302E+02 -0.10959774654E+02  0.31886073872E+02  0.00000000000E+00 0. -1.
         11    1    3    3    0    0 -0.21007110654E+01  0.16465316152E+02 -0.14348841539E+02  0.21941031807E+02  0.51100000000E-03 0.  1.
        -11    1    3    3    0    0  0.15675108607E+02  0.14233485597E+02  0.25893520586E+02  0.33448102348E+02  0.51100000000E-03 0. -1.
        -12    1    3    3    0    0 -0.26488564558E+01 -0.28198204471E+01 -0.58490439263E+00  0.39127919733E+01  0.00000000000E+00 0.  1.
</event>
<event>
 7    1  0.7578565E-012  0.5930198E+02  0.7816164E-02  0.1266605E+00
        -11   -1    0    0    0    0  0.00000000000E+00  0.00000000000E+00  0.45593999997E+02  0.45594000000E+02  0.51100000000E-03 0.  1.
         11   -1    0    0    0    0 -0.00000000000E+00 -0.00000000000E+00 -0.45593999997E+02  0.45594000000E+02  0.51100000000E-03 0. -1.
    9900012    2    1    2    0    0 -0.22074419273E+02  0.97007641871E+01  0.20864648818E+02  0.59301978261E+02  0.50000062433E+02 0.  0.
         12    1    1    2    0    0  0.22074419273E+02 -0.97007641871E+01 -0.20864648818E+02  0.31886021739E+02  0.00000000000E+00 0. -1.
         11    1    3    3    0    0  0.41427319173E+01  0.61629145986E+01  0.26588896983E+02  0.27606397576E+02  0.51100000000E-03 0. -1.
        -11    1    3    3    0    0 -0.11637568205E+02  0.98441844604E+01 -0.36695450459E+01  0.15678218092E+02  0.51100000000E-03 0.  1.
         12    1    3    3    0    0 -0.14579582985E+02 -0.63063348718E+01 -0.20547031193E+01  0.16017362594E+02  0.00000000000E+00 0. -1.
</event>
<event>
 7    1  0.7578565E-012  0.5930192E+02  0.7816164E-02  0.1266605E+00
        -11   -1    0    0    0    0  0.00000000000E+00  0.00000000000E+00  0.45593999997E+02  0.45594000000E+02  0.51100000000E-03 0. -1.
         11   -1    0    0    0    0 -0.00000000000E+00 -0.00000000000E+00 -0.45593999997E+02  0.45594000000E+02  0.51100000000E-03 0.  1.
    9900012    2    1    2    0    0  0.12848559444E+01  0.11480302478E+02 -0.29719919782E+02  0.59301924173E+02  0.49999963790E+02 0.  0.
         12    1    1    2    0    0 -0.12848559444E+01 -0.11480302478E+02  0.29719919782E+02  0.31886075827E+02  0.00000000000E+00 0. -1.
         11    1    3    3    0    0  0.10464282827E+02  0.10467555559E+02 -0.85352553567E+00  0.14825634575E+02  0.51100000000E-03 0. -1.
        -11    1    3    3    0    0 -0.21232543354E+02  0.30741517275E+01 -0.16312412681E+02  0.26951180195E+02  0.51100000000E-03 0.  1.
        -12    1    3    3    0    0  0.12053116472E+02 -0.20614048086E+01 -0.12553981565E+02  0.17525109404E+02  0.00000000000E+00 0.  1.
</event>
<event>
 7    1  0.7578565E-012  0.5930194E+02  0.7816164E-02  0.1266605E+00
        -11   -1    0    0    0    0  0.00000000000E+00  0.00000000000E+00  0.45593999997E+02  0.45594000000E+02  0.51100000000E-03 0.  1.
         11   -1    0    0    0    0 -0.00000000000E+00 -0.00000000000E+00 -0.45593999997E+02  0.45594000000E+02  0.51100000000E-03 0. -1.
    9900012    2    1    2    0    0  0.28408945623E+02  0.72967007686E+01  0.12506435868E+02  0.59301937659E+02  0.49999988384E+02 0.  0.
         12    1    1    2    0    0 -0.28408945623E+02 -0.72967007686E+01 -0.12506435868E+02  0.31886062341E+02  0.00000000000E+00 0. -1.
         11    1    3    3    0    0  0.11965245382E+02  0.22566654119E+02 -0.80596363660E+01  0.26783926408E+02  0.51100000000E-03 0. -1.
        -11    1    3    3    0    0  0.10724422544E+02 -0.56855024964E+01  0.16825012575E+02  0.20746547326E+02  0.51100000000E-03 0.  1.
         12    1    3    3    0    0  0.57192776967E+01 -0.95844508544E+01  0.37410596589E+01  0.11771463924E+02  0.00000000000E+00 0. -1.
</event>
<event>
 7    1  0.7578565E-012  0.5930197E+02  0.7816164E-02  0.1266605E+00
        -11   -1    0    0    0    0  0.00000000000E+00  0.00000000000E+00  0.45593999997E+02  0.45594000000E+02  0.51100000000E-03 0. -1.
         11   -1    0    0    0    0 -0.00000000000E+00 -0.00000000000E+00 -0.45593999997E+02  0.45594000000E+02  0.51100000000E-03 0.  1.
    9900012    2    1    2    0    0 -0.18034476593E+02  0.21478530889E+02 -0.15170674919E+02  0.59301968377E+02  0.50000044408E+02 0.  0.
         12    1    1    2    0    0  0.18034476593E+02 -0.21478530889E+02  0.15170674919E+02  0.31886031623E+02  0.00000000000E+00 0. -1.
         11    1    3    3    0    0  0.31498621570E+01 -0.57394215375E+01  0.35952097884E+01  0.74691448558E+01  0.51100000000E-03 0. -1.
        -11    1    3    3    0    0 -0.16986248394E+02  0.30682708163E+02 -0.25362295807E+02  0.43280564502E+02  0.51100000000E-03 0.  1.
        -12    1    3    3    0    0 -0.41980903559E+01 -0.34647557361E+01  0.65964111000E+01  0.85522590201E+01  0.00000000000E+00 0.  1.
</event>
<event>
 7    1  0.7578565E-012  0.5930194E+02  0.7816164E-02  0.1266605E+00
        -11   -1    0    0    0    0  0.00000000000E+00  0.00000000000E+00  0.45593999997E+02  0.45594000000E+02  0.51100000000E-03 0.  1.
         11   -1    0    0    0    0 -0.00000000000E+00 -0.00000000000E+00 -0.45593999997E+02  0.45594000000E+02  0.51100000000E-03 0. -1.
    9900012    2    1    2    0    0 -0.14212442363E+02 -0.16543109155E+02  0.23260537283E+02  0.59301943907E+02  0.49999999781E+02 0.  0.
         12    1    1    2    0    0  0.14212442363E+02  0.16543109155E+02 -0.23260537283E+02  0.31886056093E+02  0.00000000000E+00 0. -1.
         11    1    3    3    0    0  0.98327587115E+01  0.62227295282E+01 -0.62938489001E+01  0.13229438420E+02  0.51100000000E-03 0. -1.
        -11    1    3    3    0    0 -0.67842073451E+01 -0.65039128597E+01  0.16534098802E+02  0.19018485093E+02  0.51100000000E-03 0.  1.
         12    1    3    3    0    0 -0.17260993730E+02 -0.16261925824E+02  0.13020287382E+02  0.27054020395E+02  0.00000000000E+00 0. -1.
</event>
<event>
 7    1  0.7578565E-012  0.5930190E+02  0.7816164E-02  0.1266605E+00
        -11   -1    0    0    0    0  0.00000000000E+00  0.00000000000E+00  0.45593999997E+02  0.45594000000E+02  0.51100000000E-03 0. -1.
         11   -1    0    0    0    0 -0.00000000000E+00 -0.00000000000E+00 -0.45593999997E+02  0.45594000000E+02  0.51100000000E-03 0.  1.
    9900012    2    1    2    0    0  0.18080365846E+02  0.19127831443E+02  0.17998605972E+02  0.59301899865E+02  0.49999919458E+02 0.  0.
         12    1    1    2    0    0 -0.18080365846E+02 -0.19127831443E+02 -0.17998605972E+02  0.31886100135E+02  0.00000000000E+00 0. -1.
         11    1    3    3    0    0 -0.10142289749E+02  0.63916198785E+00 -0.75735297883E+00  0.10190591406E+02  0.51100000000E-03 0. -1.
        -11    1    3    3    0    0  0.27132069052E+02  0.44585743926E+00  0.13366870150E+02  0.30249316980E+02  0.51100000000E-03 0.  1.
         12    1    3    3    0    0  0.10905865437E+01  0.18042812016E+02  0.53890888010E+01  0.18861991479E+02  0.00000000000E+00 0. -1.
</event>
<event>
 7    1  0.7578565E-012  0.5930192E+02  0.7816164E-02  0.1266605E+00
        -11   -1    0    0    0    0  0.00000000000E+00  0.00000000000E+00  0.45593999997E+02  0.45594000000E+02  0.51100000000E-03 0.  1.
         11   -1    0    0    0    0 -0.00000000000E+00 -0.00000000000E+00 -0.45593999997E+02  0.45594000000E+02  0.51100000000E-03 0. -1.
    9900012    2    1    2    0    0  0.21079367715E+02  0.51428492080E+01  0.23365212969E+02  0.59301924381E+02  0.49999964170E+02 0.  0.
         12    1    1    2    0    0 -0.21079367715E+02 -0.51428492080E+01 -0.23365212969E+02  0.31886075619E+02  0.00000000000E+00 0. -1.
         11    1    3    3    0    0  0.38360780879E+01 -0.11075780113E+02  0.25040389078E+02  0.27647956265E+02  0.51100000000E-03 0. -1.
        -11    1    3    3    0    0  0.20601411830E+02  0.15273664134E+02 -0.57575574854E+01  0.26284072248E+02  0.51100000000E-03 0.  1.
        -12    1    3    3    0    0 -0.33581222027E+01  0.94496518659E+00  0.40823813769E+01  0.53698958685E+01  0.00000000000E+00 0.  1.
</event>
<event>
 7    1  0.7578565E-012  0.5930193E+02  0.7816164E-02  0.1266605E+00
        -11   -1    0    0    0    0  0.00000000000E+00  0.00000000000E+00  0.45593999997E+02  0.45594000000E+02  0.51100000000E-03 0. -1.
         11   -1    0    0    0    0 -0.00000000000E+00 -0.00000000000E+00 -0.45593999997E+02  0.45594000000E+02  0.51100000000E-03 0.  1.
    9900012    2    1    2    0    0  0.19044556038E+00  0.72509939336E+01 -0.31050095770E+02  0.59301927337E+02  0.49999969560E+02 0.  0.
         12    1    1    2    0    0 -0.19044556038E+00 -0.72509939336E+01  0.31050095770E+02  0.31886072663E+02  0.00000000000E+00 0. -1.
         11    1    3    3    0    0  0.60402898702E+01 -0.63947784279E+01  0.23854267171E+00  0.87997270256E+01  0.51100000000E-03 0. -1.
        -11    1    3    3    0    0 -0.87912333202E+00  0.23082553972E+02 -0.72609610400E+01  0.24213605911E+02  0.51100000000E-03 0.  1.
        -12    1    3    3    0    0 -0.49707209778E+01 -0.94367816109E+01 -0.24027677402E+02  0.26288594400E+02  0.00000000000E+00 0.  1.
</event>
<event>
 7    1  0.7578565E-012  0.5930191E+02  0.7816164E-02  0.1266605E+00
        -11   -1    0    0    0    0  0.00000000000E+00  0.00000000000E+00  0.45593999997E+02  0.45594000000E+02  0.51100000000E-03 0.  1.
         11   -1    0    0    0    0 -0.00000000000E+00 -0.00000000000E+00 -0.45593999997E+02  0.45594000000E+02  0.51100000000E-03 0. -1.
    9900012    2    1    2    0    0  0.12980273911E+02  0.37603965242E+01  0.28880695233E+02  0.59301911341E+02  0.49999940387E+02 0.  0.
         12    1    1    2    0    0 -0.12980273911E+02 -0.37603965242E+01 -0.28880695233E+02  0.31886088659E+02  0.00000000000E+00 0. -1.
         11    1    3    3    0    0 -0.70542724139E+01  0.48358856249E+01 -0.14683611718E+01  0.86778242583E+01  0.51100000000E-03 0. -1.
        -11    1    3    3    0    0  0.28762538521E+02 -0.12794475753E+01  0.13831110341E+02  0.31940886365E+02  0.51100000000E-03 0.  1.
        -12    1    3    3    0    0 -0.87279921962E+01  0.20395847461E+00  0.16517946065E+02  0.18683200717E+02  0.00000000000E+00 0.  1.
</event>
<event>
 7    1  0.7578565E-012  0.5930195E+02  0.7816164E-02  0.1266605E+00
        -11   -1    0    0    0    0  0.00000000000E+00  0.00000000000E+00  0.45593999997E+02  0.45594000000E+02  0.51100000000E-03 0.  1.
         11   -1    0    0    0    0 -0.00000000000E+00 -0.00000000000E+00 -0.45593999997E+02  0.45594000000E+02  0.51100000000E-03 0. -1.
    9900012    2    1    2    0    0  0.84087313539E+01 -0.21444976249E+02  0.22048279132E+02  0.59301946905E+02  0.50000005247E+02 0.  0.
         12    1    1    2    0    0 -0.84087313539E+01  0.21444976249E+02 -0.22048279132E+02  0.31886053095E+02  0.00000000000E+00 0. -1.
         11    1    3    3    0    0  0.87352140776E+01  0.76721889401E+01 -0.87139020138E+01  0.14529230423E+02  0.51100000000E-03 0. -1.
        -11    1    3    3    0    0 -0.29702619721E+01 -0.21747177907E+02  0.29610813915E+02  0.36858682886E+02  0.51100000000E-03 0.  1.
        -12    1    3    3    0    0  0.26437792484E+01 -0.73699872824E+01  0.11513672304E+01  0.79140335958E+01  0.00000000000E+00 0.  1.
</event>
<event>
 7    1  0.7578565E-012  0.5930196E+02  0.7816164E-02  0.1266605E+00
        -11   -1    0    0    0    0  0.00000000000E+00  0.00000000000E+00  0.45593999997E+02  0.45594000000E+02  0.51100000000E-03 0.  1.
         11   -1    0    0    0    0 -0.00000000000E+00 -0.00000000000E+00 -0.45593999997E+02  0.45594000000E+02  0.51100000000E-03 0. -1.
    9900012    2    1    2    0    0  0.19247077964E+01 -0.28277159781E+02  0.14608815830E+02  0.59301956574E+02  0.50000022882E+02 0.  0.
         12    1    1    2    0    0 -0.19247077964E+01  0.28277159781E+02 -0.14608815830E+02  0.31886043426E+02  0.00000000000E+00 0. -1.
         11    1    3    3    0    0  0.82762982007E+01 -0.41135283125E+02  0.14909698835E+02  0.44529852339E+02  0.51100000000E-03 0. -1.
        -11    1    3    3    0    0 -0.35842276446E+01  0.35467143139E+01  0.18752967799E+00  0.50458931691E+01  0.51100000000E-03 0.  1.
         12    1    3    3    0    0 -0.27673627597E+01  0.93114090300E+01 -0.48841268327E+00  0.97262110668E+01  0.00000000000E+00 0. -1.
</event>
<event>
 7    1  0.7578565E-012  0.5930195E+02  0.7816164E-02  0.1266605E+00
        -11   -1    0    0    0    0  0.00000000000E+00  0.00000000000E+00  0.45593999997E+02  0.45594000000E+02  0.51100000000E-03 0.  1.
         11   -1    0    0    0    0 -0.00000000000E+00 -0.00000000000E+00 -0.45593999997E+02  0.45594000000E+02  0.51100000000E-03 0. -1.
    9900012    2    1    2    0    0 -0.27641355580E+02  0.15393398660E+02 -0.39647399919E+01  0.59301946249E+02  0.50000004052E+02 0.  0.
         12    1    1    2    0    0  0.27641355580E+02 -0.15393398660E+02  0.39647399919E+01  0.31886053751E+02  0.00000000000E+00 0. -1.
         11    1    3    3    0    0 -0.96849624517E+01  0.16448109021E+01 -0.12366674201E+02  0.15793623132E+02  0.51100000000E-03 0. -1.
        -11    1    3    3    0    0 -0.22539098545E+02  0.20866661738E+02  0.13581279050E+02  0.33583919905E+02  0.51100000000E-03 0.  1.
        -12    1    3    3    0    0  0.45827054168E+01 -0.71180739803E+01 -0.51793448413E+01  0.99244032118E+01  0.00000000000E+00 0.  1.
</event>
<event>
 7    1  0.7578565E-012  0.5930186E+02  0.7816164E-02  0.1266605E+00
        -11   -1    0    0    0    0  0.00000000000E+00  0.00000000000E+00  0.45593999997E+02  0.45594000000E+02  0.51100000000E-03 0.  1.
         11   -1    0    0    0    0 -0.00000000000E+00 -0.00000000000E+00 -0.45593999997E+02  0.45594000000E+02  0.51100000000E-03 0. -1.
    9900012    2    1    2    0    0  0.15888728955E+02  0.23707691174E+02  0.14220396960E+02  0.59301858523E+02  0.49999844059E+02 0.  0.
         12    1    1    2    0    0 -0.15888728955E+02 -0.23707691174E+02 -0.14220396960E+02  0.31886141477E+02  0.00000000000E+00 0. -1.
         11    1    3    3    0    0  0.30500539047E+01  0.41580828057E+01 -0.12807344857E+02  0.13806540623E+02  0.51100000000E-03 0. -1.
        -11    1    3    3    0    0  0.89334623205E+01  0.26852090715E+02  0.21474727000E+02  0.35524715689E+02  0.51100000000E-03 0.  1.
         12    1    3    3    0    0  0.39052127296E+01 -0.73024823467E+01  0.55530148159E+01  0.99706022101E+01  0.00000000000E+00 0. -1.
</event>
<event>
 7    1  0.7578565E-012  0.5930195E+02  0.7816164E-02  0.1266605E+00
        -11   -1    0    0    0    0  0.00000000000E+00  0.00000000000E+00  0.45593999997E+02  0.45594000000E+02  0.51100000000E-03 0.  1.
         11   -1    0    0    0    0 -0.00000000000E+00 -0.00000000000E+00 -0.45593999997E+02  0.45594000000E+02  0.51100000000E-03 0. -1.
    9900012    2    1    2    0    0  0.45381724743E+01 -0.31523670657E+02 -0.15438638107E+01  0.59301947617E+02  0.50000006546E+02 0.  0.
         12    1    1    2    0    0 -0.45381724743E+01  0.31523670657E+02  0.15438638107E+01  0.31886052383E+02  0.00000000000E+00 0. -1.
         11    1    3    3    0    0 -0.36240818743E+01 -0.18187991319E+02 -0.21412402206E+02  0.28327159515E+02  0.51100000000E-03 0. -1.
        -11    1    3    3    0    0 -0.56803427722E+01 -0.51298131042E+01  0.58601895982E+01  0.96396627991E+01  0.51100000000E-03 0.  1.
         12    1    3    3    0    0  0.13842597121E+02 -0.82058662335E+01  0.14008348797E+02  0.21335125303E+02  0.00000000000E+00 0. -1.
</event>
<event>
 7    1  0.7578565E-012  0.5930199E+02  0.7816164E-02  0.1266605E+00
        -11   -1    0    0    0    0  0.00000000000E+00  0.00000000000E+00  0.45593999997E+02  0.45594000000E+02  0.51100000000E-03 0. -1.
         11   -1    0    0    0    0 -0.00000000000E+00 -0.00000000000E+00 -0.45593999997E+02  0.45594000000E+02  0.51100000000E-03 0.  1.
    9900012    2    1    2    0    0  0.29087320704E+02 -0.60521626858E-01 -0.13062982915E+02  0.59301993488E+02  0.50000090204E+02 0.  0.
         12    1    1    2    0    0 -0.29087320704E+02  0.60521626858E-01  0.13062982915E+02  0.31886006512E+02  0.00000000000E+00 0. -1.
         11    1    3    3    0    0  0.20364072329E+02  0.89626723151E+01  0.91053314338E+01  0.24040216256E+02  0.51100000000E-03 0. -1.
        -11    1    3    3    0    0 -0.79475577965E+00 -0.13756388116E+02 -0.42362600849E+01  0.14415815985E+02  0.51100000000E-03 0.  1.
        -12    1    3    3    0    0  0.95180041545E+01  0.47331941743E+01 -0.17932054264E+02  0.20845961247E+02  0.00000000000E+00 0.  1.
</event>
<event>
 7    1  0.7578565E-012  0.5930193E+02  0.7816164E-02  0.1266605E+00
        -11   -1    0    0    0    0  0.00000000000E+00  0.00000000000E+00  0.45593999997E+02  0.45594000000E+02  0.51100000000E-03 0.  1.
         11   -1    0    0    0    0 -0.00000000000E+00 -0.00000000000E+00 -0.45593999997E+02  0.45594000000E+02  0.51100000000E-03 0. -1.
    9900012    2    1    2    0    0  0.31326604769E+02  0.44611456350E+01 -0.39323692554E+01  0.59301929143E+02  0.49999972853E+02 0.  0.
         12    1    1    2    0    0 -0.31326604769E+02 -0.44611456350E+01  0.39323692554E+01  0.31886070857E+02  0.00000000000E+00 0. -1.
         11    1    3    3    0    0 -0.49183626676E+01 -0.17288872833E+00 -0.94131476011E+01  0.10622030402E+02  0.51100000000E-03 0. -1.
        -11    1    3    3    0    0  0.39080891098E+02  0.11600224298E+02  0.56551659568E+01  0.41156556647E+02  0.51100000000E-03 0.  1.
        -12    1    3    3    0    0 -0.28359236610E+01 -0.69661899347E+01 -0.17438761114E+00  0.75233420935E+01  0.00000000000E+00 0.  1.
</event>
<event>
 7    1  0.7578565E-012  0.5930185E+02  0.7816164E-02  0.1266605E+00
        -11   -1    0    0    0    0  0.00000000000E+00  0.00000000000E+00  0.45593999997E+02  0.45594000000E+02  0.51100000000E-03 0.  1.
         11   -1    0    0    0    0 -0.00000000000E+00 -0.00000000000E+00 -0.45593999997E+02  0.45594000000E+02  0.51100000000E-03 0. -1.
    9900012    2    1    2    0    0  0.73923501465E+01  0.30898975416E+02  0.27080025710E+01  0.59301846260E+02  0.49999821694E+02 0.  0.
         12    1    1    2    0    0 -0.73923501465E+01 -0.30898975416E+02 -0.27080025710E+01  0.31886153740E+02  0.00000000000E+00 0. -1.
         11    1    3    3    0    0 -0.73533482301E+01  0.15745532629E+02  0.14941930082E+02  0.22918438053E+02  0.51100000000E-03 0. -1.
        -11    1    3    3    0    0  0.17242175609E+02  0.92346363155E+01  0.30580041093E+01  0.19797033036E+02  0.51100000000E-03 0.  1.
         12    1    3    3    0    0 -0.24964772327E+01  0.59188064713E+01 -0.15291931620E+02  0.16586375171E+02  0.00000000000E+00 0. -1.
</event>
<event>
 7    1  0.7578565E-012  0.5930196E+02  0.7816164E-02  0.1266605E+00
        -11   -1    0    0    0    0  0.00000000000E+00  0.00000000000E+00  0.45593999997E+02  0.45594000000E+02  0.51100000000E-03 0. -1.
         11   -1    0    0    0    0 -0.00000000000E+00 -0.00000000000E+00 -0.45593999997E+02  0.45594000000E+02  0.51100000000E-03 0.  1.
    9900012    2    1    2    0    0 -0.30166095947E+02  0.64996691325E+00 -0.10310374907E+02  0.59301958659E+02  0.50000026683E+02 0.  0.
         12    1    1    2    0    0  0.30166095947E+02 -0.64996691325E+00  0.10310374907E+02  0.31886041341E+02  0.00000000000E+00 0. -1.
         11    1    3    3    0    0  0.56753019542E+01 -0.33916469839E+01  0.10122838172E+01  0.66885753582E+01  0.51100000000E-03 0. -1.
        -11    1    3    3    0    0 -0.22633990618E+02  0.11778110720E+02 -0.22211787473E+02  0.33828758866E+02  0.51100000000E-03 0.  1.
        -12    1    3    3    0    0 -0.13207407283E+02 -0.77364968227E+01  0.10889128748E+02  0.18784624434E+02  0.00000000000E+00 0.  1.
</event>
<event>
 7    1  0.7578565E-012  0.5930194E+02  0.7816164E-02  0.1266605E+00
        -11   -1    0    0    0    0  0.00000000000E+00  0.00000000000E+00  0.45593999997E+02  0.45594000000E+02  0.51100000000E-03 0.  1.
         11   -1    0    0    0    0 -0.00000000000E+00 -0.00000000000E+00 -0.45593999997E+02  0.45594000000E+02  0.51100000000E-03 0. -1.
    9900012    2    1    2    0    0  0.26308831708E+02 -0.12879102995E+01  0.17969623761E+02  0.59301941653E+02  0.49999995670E+02 0.  0.
         12    1    1    2    0    0 -0.26308831708E+02  0.12879102995E+01 -0.17969623761E+02  0.31886058347E+02  0.00000000000E+00 0. -1.
         11    1    3    3    0    0  0.28178167975E+02 -0.64892162251E+01  0.54768926762E+01  0.29429839132E+02  0.51100000000E-03 0. -1.
        -11    1    3    3    0    0 -0.10154084756E+02 -0.51525975680E+01  0.12086548540E+02  0.16605401374E+02  0.51100000000E-03 0.  1.
        -12    1    3    3    0    0  0.82847484887E+01  0.10353903494E+02  0.40618254511E+00  0.13266701147E+02  0.00000000000E+00 0.  1.
</event>
<event>
 7    1  0.7578565E-012  0.5930193E+02  0.7816164E-02  0.1266605E+00
        -11   -1    0    0    0    0  0.00000000000E+00  0.00000000000E+00  0.45593999997E+02  0.45594000000E+02  0.51100000000E-03 0.  1.
         11   -1    0    0    0    0 -0.00000000000E+00 -0.00000000000E+00 -0.45593999997E+02  0.45594000000E+02  0.51100000000E-03 0. -1.
    9900012    2    1    2    0    0  0.12687505550E+02 -0.72664100208E+01  0.28336339688E+02  0.59301926887E+02  0.49999968739E+02 0.  0.
         12    1    1    2    0    0 -0.12687505550E+02  0.72664100208E+01 -0.28336339688E+02  0.31886073113E+02  0.00000000000E+00 0. -1.
         11    1    3    3    0    0  0.16014553250E+02  0.13892731510E+02  0.38622816873E+01  0.21549736071E+02  0.51100000000E-03 0. -1.
        -11    1    3    3    0    0 -0.66951088382E+01 -0.10717754086E+02  0.23569847627E+02  0.26743830175E+02  0.51100000000E-03 0.  1.
         12    1    3    3    0    0  0.33680611376E+01 -0.10441387445E+02  0.90421037387E+00  0.11008360641E+02  0.00000000000E+00 0. -1.
</event>
<event>
 7    1  0.7578565E-012  0.5930173E+02  0.7816164E-02  0.1266606E+00
        -11   -1    0    0    0    0  0.00000000000E+00  0.00000000000E+00  0.45593999997E+02  0.45594000000E+02  0.51100000000E-03 0.  1.
         11   -1    0    0    0    0 -0.00000000000E+00 -0.00000000000E+00 -0.45593999997E+02  0.45594000000E+02  0.51100000000E-03 0. -1.
    9900012    2    1    2    0    0 -0.12166629721E+02 -0.24813655793E+02  0.15905653904E+02  0.59301729934E+02  0.49999609543E+02 0.  0.
         12    1    1    2    0    0  0.12166629721E+02  0.24813655793E+02 -0.15905653904E+02  0.31886270066E+02  0.00000000000E+00 0. -1.
         11    1    3    3    0    0 -0.11457196686E+02 -0.11230204872E+02  0.23286417075E+01  0.16211336461E+02  0.51100000000E-03 0. -1.
        -11    1    3    3    0    0  0.14466678127E+01 -0.52814468874E+01  0.26786437778E+02  0.27340442171E+02  0.51100000000E-03 0.  1.
        -12    1    3    3    0    0 -0.21561008470E+01 -0.83020040339E+01 -0.13209425582E+02  0.15749951303E+02  0.00000000000E+00 0.  1.
</event>
<event>
 7    1  0.7578565E-012  0.5930196E+02  0.7816164E-02  0.1266605E+00
        -11   -1    0    0    0    0  0.00000000000E+00  0.00000000000E+00  0.45593999997E+02  0.45594000000E+02  0.51100000000E-03 0.  1.
         11   -1    0    0    0    0 -0.00000000000E+00 -0.00000000000E+00 -0.45593999997E+02  0.45594000000E+02  0.51100000000E-03 0. -1.
    9900012    2    1    2    0    0  0.25952212319E+01  0.22458450358E+02  0.22485597508E+02  0.59301964483E+02  0.50000037305E+02 0.  0.
         12    1    1    2    0    0 -0.25952212319E+01 -0.22458450358E+02 -0.22485597508E+02  0.31886035517E+02  0.00000000000E+00 0. -1.
         11    1    3    3    0    0  0.18259229584E+02  0.17527529429E+02  0.23374203630E+01  0.25418050418E+02  0.51100000000E-03 0. -1.
        -11    1    3    3    0    0 -0.11837690045E+02  0.11714027893E+02  0.20090844468E+02  0.26095811671E+02  0.51100000000E-03 0.  1.
         12    1    3    3    0    0 -0.38263183066E+01 -0.67831069628E+01  0.57332676997E-01  0.77881023933E+01  0.00000000000E+00 0. -1.
</event>
<event>
 7    1  0.7578565E-012  0.5930194E+02  0.7816164E-02  0.1266605E+00
        -11   -1    0    0    0    0  0.00000000000E+00  0.00000000000E+00  0.45593999997E+02  0.45594000000E+02  0.51100000000E-03 0.  1.
         11   -1    0    0    0    0 -0.00000000000E+00 -0.00000000000E+00 -0.45593999997E+02  0.45594000000E+02  0.51100000000E-03 0. -1.
    9900012    2    1    2    0    0 -0.25125236599E+02 -0.13931171649E+01  0.19583213132E+02  0.59301944644E+02  0.50000001123E+02 0.  0.
         12    1    1    2    0    0  0.25125236599E+02  0.13931171649E+01 -0.19583213132E+02  0.31886055356E+02  0.00000000000E+00 0. -1.
         11    1    3    3    0    0  0.10276266426E+02 -0.43450665103E+01 -0.25669867768E+01  0.11448610222E+02  0.51100000000E-03 0. -1.
        -11    1    3    3    0    0 -0.30010042749E+02  0.11492958304E+02  0.14909406246E+02  0.35425713136E+02  0.51100000000E-03 0.  1.
        -12    1    3    3    0    0 -0.53914602767E+01 -0.85410089586E+01  0.72407936633E+01  0.12427621286E+02  0.00000000000E+00 0.  1.
</event>
<event>
 7    1  0.7578565E-012  0.5930194E+02  0.7816164E-02  0.1266605E+00
        -11   -1    0    0    0    0  0.00000000000E+00  0.00000000000E+00  0.45593999997E+02  0.45594000000E+02  0.51100000000E-03 0.  1.
         11   -1    0    0    0    0 -0.00000000000E+00 -0.00000000000E+00 -0.45593999997E+02  0.45594000000E+02  0.51100000000E-03 0. -1.
    9900012    2    1    2    0    0  0.29765093117E+02 -0.10076140435E+02  0.54066177473E+01  0.59301938942E+02  0.49999990725E+02 0.  0.
         12    1    1    2    0    0 -0.29765093117E+02  0.10076140435E+02 -0.54066177473E+01  0.31886061058E+02  0.00000000000E+00 0. -1.
         11    1    3    3    0    0  0.17685090165E+02 -0.14256627348E+02 -0.20343766537E+02  0.30493977679E+02  0.51100000000E-03 0. -1.
        -11    1    3    3    0    0  0.22719418927E+01  0.11701265285E+01  0.38154570757E+01  0.45922357315E+01  0.51100000000E-03 0.  1.
         12    1    3    3    0    0  0.98080610589E+01  0.30103603845E+01  0.21934927209E+02  0.24215725532E+02  0.00000000000E+00 0. -1.
</event>
<event>
 7    1  0.7578565E-012  0.5930191E+02  0.7816164E-02  0.1266605E+00
        -11   -1    0    0    0    0  0.00000000000E+00  0.00000000000E+00  0.45593999997E+02  0.45594000000E+02  0.51100000000E-03 0.  1.
         11   -1    0    0    0    0 -0.00000000000E+00 -0.00000000000E+00 -0.45593999997E+02  0.45594000000E+02  0.51100000000E-03 0. -1.
    9900012    2    1    2    0    0 -0.25508783147E+02  0.13724825735E+02  0.13328678804E+02  0.59301913101E+02  0.49999943597E+02 0.  0.
         12    1    1    2    0    0  0.25508783147E+02 -0.13724825735E+02 -0.13328678804E+02  0.31886086899E+02  0.00000000000E+00 0. -1.
         11    1    3    3    0    0  0.77440653730E+01 -0.62313811521E+01  0.19397747642E+01  0.10127358291E+02  0.51100000000E-03 0. -1.
        -11    1    3    3    0    0 -0.11244332457E+02  0.23017293215E+02  0.61618381579E+01  0.26347657374E+02  0.51100000000E-03 0.  1.
         12    1    3    3    0    0 -0.22008516063E+02 -0.30610863281E+01  0.52270658823E+01  0.22826897436E+02  0.00000000000E+00 0. -1.
</event>
<event>
 7    1  0.7578565E-012  0.5930183E+02  0.7816164E-02  0.1266605E+00
        -11   -1    0    0    0    0  0.00000000000E+00  0.00000000000E+00  0.45593999997E+02  0.45594000000E+02  0.51100000000E-03 0. -1.
         11   -1    0    0    0    0 -0.00000000000E+00 -0.00000000000E+00 -0.45593999997E+02  0.45594000000E+02  0.51100000000E-03 0.  1.
    9900012    2    1    2    0    0  0.31941863163E+01  0.18090659001E+02 -0.26062478735E+02  0.59301834236E+02  0.49999799766E+02 0.  0.
         12    1    1    2    0    0 -0.31941863163E+01 -0.18090659001E+02  0.26062478735E+02  0.31886165764E+02  0.00000000000E+00 0. -1.
         11    1    3    3    0    0 -0.78093830881E+01 -0.46564685189E+01 -0.42253949147E+01  0.10026122168E+02  0.51100000000E-03 0. -1.
        -11    1    3    3    0    0  0.34532466599E+01  0.31691966024E+02 -0.12274960961E+02  0.34161093218E+02  0.51100000000E-03 0.  1.
        -12    1    3    3    0    0  0.75503227445E+01 -0.89448385040E+01 -0.95621228591E+01  0.15114618850E+02  0.00000000000E+00 0.  1.
</event>
<event>
 7    1  0.7578565E-012  0.5930192E+02  0.7816164E-02  0.1266605E+00
        -11   -1    0    0    0    0  0.00000000000E+00  0.00000000000E+00  0.45593999997E+02  0.45594000000E+02  0.51100000000E-03 0. -1.
         11   -1    0    0    0    0 -0.00000000000E+00 -0.00000000000E+00 -0.45593999997E+02  0.45594000000E+02  0.51100000000E-03 0.  1.
    9900012    2    1    2    0    0  0.13618738535E+02 -0.11553678049E+02 -0.26415238521E+02  0.59301916172E+02  0.49999949198E+02 0.  0.
         12    1    1    2    0    0 -0.13618738535E+02  0.11553678049E+02  0.26415238521E+02  0.31886083828E+02  0.00000000000E+00 0. -1.
         11    1    3    3    0    0 -0.15112726240E+02 -0.80579832239E+00 -0.18718234654E+02  0.24071063835E+02  0.51100000000E-03 0.  1.
        -11    1    3    3    0    0  0.23332832609E+02 -0.55476621864E+01  0.67594596830E+00  0.23992801764E+02  0.51100000000E-03 0. -1.
        -12    1    3    3    0    0  0.53986321657E+01 -0.52002175406E+01 -0.83729498356E+01  0.11238050573E+02  0.00000000000E+00 0.  1.
</event>
<event>
 7    1  0.7578565E-012  0.5930195E+02  0.7816164E-02  0.1266605E+00
        -11   -1    0    0    0    0  0.00000000000E+00  0.00000000000E+00  0.45593999997E+02  0.45594000000E+02  0.51100000000E-03 0. -1.
         11   -1    0    0    0    0 -0.00000000000E+00 -0.00000000000E+00 -0.45593999997E+02  0.45594000000E+02  0.51100000000E-03 0.  1.
    9900012    2    1    2    0    0  0.73885455847E+01  0.21100210598E+02 -0.22735676338E+02  0.59301945499E+02  0.50000002683E+02 0.  0.
         12    1    1    2    0    0 -0.73885455847E+01 -0.21100210598E+02  0.22735676338E+02  0.31886054501E+02  0.00000000000E+00 0. -1.
         11    1    3    3    0    0 -0.13767280649E+02  0.18913858892E+02  0.88180975202E+00  0.23410460554E+02  0.51100000000E-03 0. -1.
        -11    1    3    3    0    0  0.80253510074E+01  0.55212787942E+01 -0.19390782177E+02  0.21700074009E+02  0.51100000000E-03 0.  1.
         12    1    3    3    0    0  0.13130475227E+02 -0.33349270885E+01 -0.42267039130E+01  0.14191410935E+02  0.00000000000E+00 0. -1.
</event>
<event>
 7    1  0.7578565E-012  0.5930193E+02  0.7816164E-02  0.1266605E+00
        -11   -1    0    0    0    0  0.00000000000E+00  0.00000000000E+00  0.45593999997E+02  0.45594000000E+02  0.51100000000E-03 0.  1.
         11   -1    0    0    0    0 -0.00000000000E+00 -0.00000000000E+00 -0.45593999997E+02  0.45594000000E+02  0.51100000000E-03 0. -1.
    9900012    2    1    2    0    0  0.28046463246E+02  0.14649330134E+02  0.39388226919E+01  0.59301932538E+02  0.49999979045E+02 0.  0.
         12    1    1    2    0    0 -0.28046463246E+02 -0.14649330134E+02 -0.39388226919E+01  0.31886067462E+02  0.00000000000E+00 0. -1.
         11    1    3    3    0    0  0.42379237711E+01  0.21435557738E+02  0.89775117791E+01  0.23622845964E+02  0.51100000000E-03 0. -1.
        -11    1    3    3    0    0  0.29063449894E+02 -0.75064819657E+01 -0.42311987648E+01  0.30313931360E+02  0.51100000000E-03 0.  1.
        -12    1    3    3    0    0 -0.52549104187E+01  0.72025436208E+00 -0.80749032244E+00  0.53651552145E+01  0.00000000000E+00 0.  1.
</event>
<event>
 7    1  0.7578565E-012  0.5930193E+02  0.7816164E-02  0.1266605E+00
        -11   -1    0    0    0    0  0.00000000000E+00  0.00000000000E+00  0.45593999997E+02  0.45594000000E+02  0.51100000000E-03 0.  1.
         11   -1    0    0    0    0 -0.00000000000E+00 -0.00000000000E+00 -0.45593999997E+02  0.45594000000E+02  0.51100000000E-03 0. -1.
    9900012    2    1    2    0    0 -0.30119191761E+02 -0.89617790520E+01  0.54076349531E+01  0.59301926051E+02  0.49999967214E+02 0.  0.
         12    1    1    2    0    0  0.30119191761E+02  0.89617790520E+01 -0.54076349531E+01  0.31886073949E+02  0.00000000000E+00 0. -1.
         11    1    3    3    0    0 -0.20970056957E+02 -0.25615472265E+02  0.45058711980E+01  0.33409558268E+02  0.51100000000E-03 0. -1.
        -11    1    3    3    0    0 -0.12521912348E+02  0.10364691822E+02  0.57755333066E+01  0.17250562618E+02  0.51100000000E-03 0.  1.
         12    1    3    3    0    0  0.33727775439E+01  0.62890013914E+01 -0.48737695515E+01  0.86418051646E+01  0.00000000000E+00 0. -1.
</event>
<event>
 7    1  0.7578565E-012  0.5930195E+02  0.7816164E-02  0.1266605E+00
        -11   -1    0    0    0    0  0.00000000000E+00  0.00000000000E+00  0.45593999997E+02  0.45594000000E+02  0.51100000000E-03 0.  1.
         11   -1    0    0    0    0 -0.00000000000E+00 -0.00000000000E+00 -0.45593999997E+02  0.45594000000E+02  0.51100000000E-03 0. -1.
    9900012    2    1    2    0    0 -0.25153248165E+02 -0.93329733493E+01  0.17231654361E+02  0.59301949809E+02  0.50000010544E+02 0.  0.
         12    1    1    2    0    0  0.25153248165E+02  0.93329733493E+01 -0.17231654361E+02  0.31886050191E+02  0.00000000000E+00 0. -1.
         11    1    3    3    0    0 -0.25450738705E+01 -0.19257703948E+02  0.16278876518E+02  0.25344395500E+02  0.51100000000E-03 0. -1.
        -11    1    3    3    0    0 -0.25101957993E+02  0.51329005089E+01 -0.47988786959E+01  0.26066917726E+02  0.51100000000E-03 0.  1.
        -12    1    3    3    0    0  0.24937836992E+01  0.47918300894E+01  0.57516565388E+01  0.78906365830E+01  0.00000000000E+00 0.  1.
</event>
<event>
 7    1  0.7578565E-012  0.5930194E+02  0.7816164E-02  0.1266605E+00
        -11   -1    0    0    0    0  0.00000000000E+00  0.00000000000E+00  0.45593999997E+02  0.45594000000E+02  0.51100000000E-03 0. -1.
         11   -1    0    0    0    0 -0.00000000000E+00 -0.00000000000E+00 -0.45593999997E+02  0.45594000000E+02  0.51100000000E-03 0.  1.
    9900012    2    1    2    0    0  0.13803627897E+02  0.68910834484E+01 -0.27905080565E+02  0.59301941988E+02  0.49999996280E+02 0.  0.
         12    1    1    2    0    0 -0.13803627897E+02 -0.68910834484E+01  0.27905080565E+02  0.31886058012E+02  0.00000000000E+00 0. -1.
         11    1    3    3    0    0  0.83332852759E+01  0.18174027046E+02 -0.12703263211E+00  0.19993875065E+02  0.51100000000E-03 0. -1.
        -11    1    3    3    0    0  0.89608120681E+01  0.87790888907E+00 -0.24696151549E+02  0.26286246946E+02  0.51100000000E-03 0.  1.
         12    1    3    3    0    0 -0.34904694467E+01 -0.12160852487E+02 -0.30818963841E+01  0.13021819976E+02  0.00000000000E+00 0. -1.
</event>
<event>
 7    1  0.7578565E-012  0.5930198E+02  0.7816164E-02  0.1266605E+00
        -11   -1    0    0    0    0  0.00000000000E+00  0.00000000000E+00  0.45593999997E+02  0.45594000000E+02  0.51100000000E-03 0. -1.
         11   -1    0    0    0    0 -0.00000000000E+00 -0.00000000000E+00 -0.45593999997E+02  0.45594000000E+02  0.51100000000E-03 0.  1.
    9900012    2    1    2    0    0  0.28623769860E+02 -0.78168375851E+01 -0.11674541629E+02  0.59301983111E+02  0.50000071278E+02 0.  0.
         12    1    1    2    0    0 -0.28623769860E+02  0.78168375851E+01  0.11674541629E+02  0.31886016889E+02  0.00000000000E+00 0. -1.
         11    1    3    3    0    0  0.19533959191E+02 -0.15892938174E+00  0.96212044641E+01  0.21775408052E+02  0.51100000000E-03 0. -1.
        -11    1    3    3    0    0  0.91146517620E+01 -0.93209019639E+01 -0.27857642991E+02  0.30757183932E+02  0.51100000000E-03 0.  1.
        -12    1    3    3    0    0 -0.24841093251E-01  0.16629937605E+01  0.65618968981E+01  0.67693911269E+01  0.00000000000E+00 0.  1.
</event>
<event>
 7    1  0.7578565E-012  0.5930194E+02  0.7816164E-02  0.1266605E+00
        -11   -1    0    0    0    0  0.00000000000E+00  0.00000000000E+00  0.45593999997E+02  0.45594000000E+02  0.51100000000E-03 0. -1.
         11   -1    0    0    0    0 -0.00000000000E+00 -0.00000000000E+00 -0.45593999997E+02  0.45594000000E+02  0.51100000000E-03 0.  1.
    9900012    2    1    2    0    0  0.29239594925E+02  0.74755182646E+01 -0.10289964827E+02  0.59301942532E+02  0.49999997272E+02 0.  0.
         12    1    1    2    0    0 -0.29239594925E+02 -0.74755182646E+01  0.10289964827E+02  0.31886057468E+02  0.00000000000E+00 0. -1.
         11    1    3    3    0    0  0.13670122345E+02 -0.84443004398E+01  0.15892829860E+02  0.22600010975E+02  0.51100000000E-03 0. -1.
        -11    1    3    3    0    0  0.68580609659E+01  0.12842092794E+01 -0.14370128392E+02  0.15974441585E+02  0.51100000000E-03 0.  1.
         12    1    3    3    0    0  0.87114116144E+01  0.14635609425E+02 -0.11812666295E+02  0.20727489973E+02  0.00000000000E+00 0. -1.
</event>
<event>
 7    1  0.7578565E-012  0.5930194E+02  0.7816164E-02  0.1266605E+00
        -11   -1    0    0    0    0  0.00000000000E+00  0.00000000000E+00  0.45593999997E+02  0.45594000000E+02  0.51100000000E-03 0.  1.
         11   -1    0    0    0    0 -0.00000000000E+00 -0.00000000000E+00 -0.45593999997E+02  0.45594000000E+02  0.51100000000E-03 0. -1.
    9900012    2    1    2    0    0 -0.13997023330E+02 -0.28377395873E+02  0.39404664429E+01  0.59301944515E+02  0.50000000888E+02 0.  0.
         12    1    1    2    0    0  0.13997023330E+02  0.28377395873E+02 -0.39404664429E+01  0.31886055485E+02  0.00000000000E+00 0. -1.
         11    1    3    3    0    0 -0.14369564836E+02  0.53916843447E+01  0.14177088967E+02  0.20893647491E+02  0.51100000000E-03 0.  1.
        -11    1    3    3    0    0  0.47672269549E+01 -0.13712054399E+02 -0.10428471169E+02  0.17874560131E+02  0.51100000000E-03 0. -1.
        -12    1    3    3    0    0 -0.43946854490E+01 -0.20057025818E+02  0.19184864487E+00  0.20533736893E+02  0.00000000000E+00 0.  1.
</event>
<event>
 7    1  0.7578565E-012  0.5930197E+02  0.7816164E-02  0.1266605E+00
        -11   -1    0    0    0    0  0.00000000000E+00  0.00000000000E+00  0.45593999997E+02  0.45594000000E+02  0.51100000000E-03 0.  1.
         11   -1    0    0    0    0 -0.00000000000E+00 -0.00000000000E+00 -0.45593999997E+02  0.45594000000E+02  0.51100000000E-03 0. -1.
    9900012    2    1    2    0    0  0.11526773318E+01  0.31357749283E+02 -0.56640621485E+01  0.59301973199E+02  0.50000053202E+02 0.  0.
         12    1    1    2    0    0 -0.11526773318E+01 -0.31357749283E+02  0.56640621485E+01  0.31886026801E+02  0.00000000000E+00 0. -1.
         11    1    3    3    0    0 -0.32569592727E+01  0.29009486167E+02 -0.24971482297E+02  0.38415270398E+02  0.51100000000E-03 0. -1.
        -11    1    3    3    0    0  0.51246620513E+01  0.33047097501E+01  0.11775281945E+02  0.13260487654E+02  0.51100000000E-03 0.  1.
         12    1    3    3    0    0 -0.71502544674E+00 -0.95644663390E+00  0.75321382041E+01  0.76262151476E+01  0.00000000000E+00 0. -1.
</event>
<event>
 7    1  0.7578565E-012  0.5930187E+02  0.7816164E-02  0.1266605E+00
        -11   -1    0    0    0    0  0.00000000000E+00  0.00000000000E+00  0.45593999997E+02  0.45594000000E+02  0.51100000000E-03 0.  1.
         11   -1    0    0    0    0 -0.00000000000E+00 -0.00000000000E+00 -0.45593999997E+02  0.45594000000E+02  0.51100000000E-03 0. -1.
    9900012    2    1    2    0    0 -0.30180645445E+02  0.30187081342E+00  0.10284107157E+02  0.59301869073E+02  0.49999863301E+02 0.  0.
         12    1    1    2    0    0  0.30180645445E+02 -0.30187081342E+00 -0.10284107157E+02  0.31886130927E+02  0.00000000000E+00 0. -1.
         11    1    3    3    0    0 -0.33416334889E+01  0.12256268612E+02  0.11616193064E+02  0.17213906478E+02  0.51100000000E-03 0. -1.
        -11    1    3    3    0    0 -0.43084976328E+01 -0.17465475020E+02 -0.48416440438E+01  0.18629210580E+02  0.51100000000E-03 0.  1.
        -12    1    3    3    0    0 -0.22530514323E+02  0.55110772218E+01  0.35095581367E+01  0.23458752016E+02  0.00000000000E+00 0.  1.
</event>
<event>
 7    1  0.7578565E-012  0.5930195E+02  0.7816164E-02  0.1266605E+00
        -11   -1    0    0    0    0  0.00000000000E+00  0.00000000000E+00  0.45593999997E+02  0.45594000000E+02  0.51100000000E-03 0. -1.
         11   -1    0    0    0    0 -0.00000000000E+00 -0.00000000000E+00 -0.45593999997E+02  0.45594000000E+02  0.51100000000E-03 0.  1.
    9900012    2    1    2    0    0  0.30505934856E+02  0.20290576865E+00 -0.92772397133E+01  0.59301946483E+02  0.50000004478E+02 0.  0.
         12    1    1    2    0    0 -0.30505934856E+02 -0.20290576865E+00  0.92772397133E+01  0.31886053517E+02  0.00000000000E+00 0. -1.
         11    1    3    3    0    0 -0.80314211187E+01 -0.84632191419E+01 -0.21889724477E+01  0.11871032140E+02  0.51100000000E-03 0. -1.
        -11    1    3    3    0    0  0.19465019153E+02  0.17034180699E+02 -0.61249781944E+01  0.26581302467E+02  0.51100000000E-03 0.  1.
         12    1    3    3    0    0  0.19072336822E+02 -0.83680557886E+01 -0.96328907118E+00  0.20849611876E+02  0.00000000000E+00 0. -1.
</event>
<event>
 7    1  0.7578565E-012  0.5930189E+02  0.7816164E-02  0.1266605E+00
        -11   -1    0    0    0    0  0.00000000000E+00  0.00000000000E+00  0.45593999997E+02  0.45594000000E+02  0.51100000000E-03 0. -1.
         11   -1    0    0    0    0 -0.00000000000E+00 -0.00000000000E+00 -0.45593999997E+02  0.45594000000E+02  0.51100000000E-03 0.  1.
    9900012    2    1    2    0    0  0.82136585826E+01  0.15466594676E+02 -0.26646656549E+02  0.59301889491E+02  0.49999900537E+02 0.  0.
         12    1    1    2    0    0 -0.82136585826E+01 -0.15466594676E+02  0.26646656549E+02  0.31886110509E+02  0.00000000000E+00 0. -1.
         11    1    3    3    0    0 -0.54733144750E+01  0.17949165833E+02 -0.11617541184E+02  0.22070273874E+02  0.51100000000E-03 0. -1.
        -11    1    3    3    0    0  0.20418648452E+02  0.67458466070E+01 -0.14219400926E+02  0.25780205856E+02  0.51100000000E-03 0.  1.
        -12    1    3    3    0    0 -0.67316753939E+01 -0.92284177640E+01 -0.80971443955E+00  0.11451409761E+02  0.00000000000E+00 0.  1.
</event>
<event>
 7    1  0.7578565E-012  0.5930195E+02  0.7816164E-02  0.1266605E+00
        -11   -1    0    0    0    0  0.00000000000E+00  0.00000000000E+00  0.45593999997E+02  0.45594000000E+02  0.51100000000E-03 0.  1.
         11   -1    0    0    0    0 -0.00000000000E+00 -0.00000000000E+00 -0.45593999997E+02  0.45594000000E+02  0.51100000000E-03 0. -1.
    9900012    2    1    2    0    0  0.26519564905E+02 -0.17167335356E+02  0.43261270444E+01  0.59301951308E+02  0.50000013278E+02 0.  0.
         12    1    1    2    0    0 -0.26519564905E+02  0.17167335356E+02 -0.43261270444E+01  0.31886048692E+02  0.00000000000E+00 0. -1.
         11    1    3    3    0    0  0.49368446805E+00  0.44304221034E+01 -0.12140599391E+02  0.12933155771E+02  0.51100000000E-03 0. -1.
        -11    1    3    3    0    0  0.20169488943E+02 -0.28103849693E+02  0.13216328145E+02  0.37031148803E+02  0.51100000000E-03 0.  1.
        -12    1    3    3    0    0  0.58563914939E+01  0.65060922334E+01  0.32503982902E+01  0.93376467338E+01  0.00000000000E+00 0.  1.
</event>
<event>
 7    1  0.7578565E-012  0.5930193E+02  0.7816164E-02  0.1266605E+00
        -11   -1    0    0    0    0  0.00000000000E+00  0.00000000000E+00  0.45593999997E+02  0.45594000000E+02  0.51100000000E-03 0. -1.
         11   -1    0    0    0    0 -0.00000000000E+00 -0.00000000000E+00 -0.45593999997E+02  0.45594000000E+02  0.51100000000E-03 0.  1.
    9900012    2    1    2    0    0  0.22109664159E+02 -0.14741078219E+02  0.17623411906E+02  0.59301932769E+02  0.49999979466E+02 0.  0.
         12    1    1    2    0    0 -0.22109664159E+02  0.14741078219E+02 -0.17623411906E+02  0.31886067231E+02  0.00000000000E+00 0. -1.
         11    1    3    3    0    0 -0.58030665545E+00  0.68057332541E+01 -0.45029553088E+01  0.81811593136E+01  0.51100000000E-03 0. -1.
        -11    1    3    3    0    0  0.23056939750E+02 -0.12599153561E+02  0.29511539465E+02  0.39513188974E+02  0.51100000000E-03 0.  1.
        -12    1    3    3    0    0 -0.36696893473E+00 -0.89476579122E+01 -0.73851722504E+01  0.11607584481E+02  0.00000000000E+00 0.  1.
</event>
<event>
 7    1  0.7578565E-012  0.5930199E+02  0.7816164E-02  0.1266605E+00
        -11   -1    0    0    0    0  0.00000000000E+00  0.00000000000E+00  0.45593999997E+02  0.45594000000E+02  0.51100000000E-03 0.  1.
         11   -1    0    0    0    0 -0.00000000000E+00 -0.00000000000E+00 -0.45593999997E+02  0.45594000000E+02  0.51100000000E-03 0. -1.
    9900012    2    1    2    0    0 -0.22304648816E+02 -0.20743900185E+02 -0.94292503706E+01  0.59301991842E+02  0.50000087202E+02 0.  0.
         12    1    1    2    0    0  0.22304648816E+02  0.20743900185E+02  0.94292503706E+01  0.31886008158E+02  0.00000000000E+00 0. -1.
         11    1    3    3    0    0 -0.33901915181E+00 -0.12016797363E+02 -0.15175646230E+01  0.12116986238E+02  0.51100000000E-03 0. -1.
        -11    1    3    3    0    0 -0.14747555465E+02  0.97710181221E+01  0.10104708685E+02  0.20373225695E+02  0.51100000000E-03 0.  1.
        -12    1    3    3    0    0 -0.72180741993E+01 -0.18498120944E+02 -0.18016394432E+02  0.26811779910E+02  0.00000000000E+00 0.  1.
</event>
<event>
 7    1  0.7578565E-012  0.5930195E+02  0.7816164E-02  0.1266605E+00
        -11   -1    0    0    0    0  0.00000000000E+00  0.00000000000E+00  0.45593999997E+02  0.45594000000E+02  0.51100000000E-03 0. -1.
         11   -1    0    0    0    0 -0.00000000000E+00 -0.00000000000E+00 -0.45593999997E+02  0.45594000000E+02  0.51100000000E-03 0.  1.
    9900012    2    1    2    0    0 -0.82015708833E+01  0.20938991936E+02 -0.22605598648E+02  0.59301949155E+02  0.50000009350E+02 0.  0.
         12    1    1    2    0    0  0.82015708833E+01 -0.20938991936E+02  0.22605598648E+02  0.31886050845E+02  0.00000000000E+00 0. -1.
         11    1    3    3    0    0  0.62934232987E+01  0.17064013728E+02  0.59270892549E+00  0.18197226312E+02  0.51100000000E-03 0. -1.
        -11    1    3    3    0    0 -0.98761678578E+01 -0.91840703460E+01 -0.23672634417E+02  0.27244806114E+02  0.51100000000E-03 0.  1.
         12    1    3    3    0    0 -0.46188263242E+01  0.13059048554E+02  0.47432684381E+00  0.13859916728E+02  0.00000000000E+00 0. -1.
</event>
<event>
 7    1  0.7578565E-012  0.5930195E+02  0.7816164E-02  0.1266605E+00
        -11   -1    0    0    0    0  0.00000000000E+00  0.00000000000E+00  0.45593999997E+02  0.45594000000E+02  0.51100000000E-03 0.  1.
         11   -1    0    0    0    0 -0.00000000000E+00 -0.00000000000E+00 -0.45593999997E+02  0.45594000000E+02  0.51100000000E-03 0. -1.
    9900012    2    1    2    0    0  0.14475528301E+02  0.15030502215E+02  0.24109397386E+02  0.59301953542E+02  0.50000017351E+02 0.  0.
         12    1    1    2    0    0 -0.14475528301E+02 -0.15030502215E+02 -0.24109397386E+02  0.31886046458E+02  0.00000000000E+00 0. -1.
         11    1    3    3    0    0  0.25917811516E+02  0.32993238429E+01  0.65394255350E+01  0.26932927397E+02  0.51100000000E-03 0. -1.
        -11    1    3    3    0    0 -0.22623385517E+01 -0.46089854865E+01  0.11622014038E+02  0.12705594575E+02  0.51100000000E-03 0.  1.
         12    1    3    3    0    0 -0.91799446636E+01  0.16340163858E+02  0.59479578132E+01  0.19663431569E+02  0.00000000000E+00 0. -1.
</event>
<event>
 7    1  0.7578565E-012  0.5930194E+02  0.7816164E-02  0.1266605E+00
        -11   -1    0    0    0    0  0.00000000000E+00  0.00000000000E+00  0.45593999997E+02  0.45594000000E+02  0.51100000000E-03 0. -1.
         11   -1    0    0    0    0 -0.00000000000E+00 -0.00000000000E+00 -0.45593999997E+02  0.45594000000E+02  0.51100000000E-03 0.  1.
    9900012    2    1    2    0    0  0.31159013218E+02  0.62602983280E+01 -0.25779079075E+01  0.59301936445E+02  0.49999986170E+02 0.  0.
         12    1    1    2    0    0 -0.31159013218E+02 -0.62602983280E+01  0.25779079075E+01  0.31886063555E+02  0.00000000000E+00 0. -1.
         11    1    3    3    0    0 -0.12359586014E+02  0.31557493986E+01  0.47353428617E+01  0.13606674575E+02  0.51100000000E-03 0. -1.
        -11    1    3    3    0    0  0.25657326540E+02  0.59493309797E+01 -0.42476991081E+00  0.26341476307E+02  0.51100000000E-03 0.  1.
         12    1    3    3    0    0  0.17861272692E+02 -0.28447820503E+01 -0.68884808584E+01  0.19353785563E+02  0.00000000000E+00 0. -1.
</event>
<event>
 7    1  0.7578565E-012  0.5930195E+02  0.7816164E-02  0.1266605E+00
        -11   -1    0    0    0    0  0.00000000000E+00  0.00000000000E+00  0.45593999997E+02  0.45594000000E+02  0.51100000000E-03 0. -1.
         11   -1    0    0    0    0 -0.00000000000E+00 -0.00000000000E+00 -0.45593999997E+02  0.45594000000E+02  0.51100000000E-03 0.  1.
    9900012    2    1    2    0    0  0.17731480379E+01 -0.58869505564E+01 -0.31287694884E+02  0.59301951453E+02  0.50000013541E+02 0.  0.
         12    1    1    2    0    0 -0.17731480379E+01  0.58869505564E+01  0.31287694884E+02  0.31886048547E+02  0.00000000000E+00 0. -1.
         11    1    3    3    0    0 -0.19921744495E+02  0.34993881194E+01 -0.25756779386E+02  0.32749554280E+02  0.51100000000E-03 0. -1.
        -11    1    3    3    0    0  0.85439561390E+01 -0.27500089888E+01 -0.74925056618E+01  0.11691850893E+02  0.51100000000E-03 0.  1.
         12    1    3    3    0    0  0.13150936394E+02 -0.66363296870E+01  0.19615901642E+01  0.14860546280E+02  0.00000000000E+00 0. -1.
</event>
<event>
 7    1  0.7578565E-012  0.5930195E+02  0.7816164E-02  0.1266605E+00
        -11   -1    0    0    0    0  0.00000000000E+00  0.00000000000E+00  0.45593999997E+02  0.45594000000E+02  0.51100000000E-03 0.  1.
         11   -1    0    0    0    0 -0.00000000000E+00 -0.00000000000E+00 -0.45593999997E+02  0.45594000000E+02  0.51100000000E-03 0. -1.
    9900012    2    1    2    0    0 -0.22892493643E+01 -0.30944638403E+02 -0.73422503146E+01  0.59301953707E+02  0.50000017652E+02 0.  0.
         12    1    1    2    0    0  0.22892493643E+01  0.30944638403E+02  0.73422503146E+01  0.31886046293E+02  0.00000000000E+00 0. -1.
         11    1    3    3    0    0  0.13710193743E+01 -0.12996143572E+02 -0.23435919161E+02  0.26833220996E+02  0.51100000000E-03 0. -1.
        -11    1    3    3    0    0 -0.70196255013E+01 -0.21827702609E+02  0.11850418118E+02  0.25810001031E+02  0.51100000000E-03 0.  1.
         12    1    3    3    0    0  0.33593567626E+01  0.38792077780E+01  0.42432507275E+01  0.66587316796E+01  0.00000000000E+00 0. -1.
</event>
<event>
 7    1  0.7578565E-012  0.5930196E+02  0.7816164E-02  0.1266605E+00
        -11   -1    0    0    0    0  0.00000000000E+00  0.00000000000E+00  0.45593999997E+02  0.45594000000E+02  0.51100000000E-03 0.  1.
         11   -1    0    0    0    0 -0.00000000000E+00 -0.00000000000E+00 -0.45593999997E+02  0.45594000000E+02  0.51100000000E-03 0. -1.
    9900012    2    1    2    0    0  0.63820233176E+01 -0.14720539257E+02  0.27555313741E+02  0.59301955827E+02  0.50000021518E+02 0.  0.
         12    1    1    2    0    0 -0.63820233176E+01  0.14720539257E+02 -0.27555313741E+02  0.31886044173E+02  0.00000000000E+00 0. -1.
         11    1    3    3    0    0 -0.14340987648E+02  0.63346274447E+01  0.11724407107E+02  0.19576852501E+02  0.51100000000E-03 0.  1.
        -11    1    3    3    0    0  0.93680943184E+01  0.25324354901E+01  0.13193994034E+01  0.97936324066E+01  0.51100000000E-03 0. -1.
         12    1    3    3    0    0  0.11354916647E+02 -0.23587602192E+02  0.14511507231E+02  0.29931470919E+02  0.00000000000E+00 0. -1.
</event>
<event>
 7    1  0.7578565E-012  0.5930195E+02  0.7816164E-02  0.1266605E+00
        -11   -1    0    0    0    0  0.00000000000E+00  0.00000000000E+00  0.45593999997E+02  0.45594000000E+02  0.51100000000E-03 0. -1.
         11   -1    0    0    0    0 -0.00000000000E+00 -0.00000000000E+00 -0.45593999997E+02  0.45594000000E+02  0.51100000000E-03 0.  1.
    9900012    2    1    2    0    0 -0.27399094402E+02  0.11377312410E+02 -0.11686171710E+02  0.59301949430E+02  0.50000009853E+02 0.  0.
         12    1    1    2    0    0  0.27399094402E+02 -0.11377312410E+02  0.11686171710E+02  0.31886050570E+02  0.00000000000E+00 0. -1.
         11    1    3    3    0    0 -0.64092976431E+00  0.89584382659E+01  0.80051639441E+01  0.12031087115E+02  0.51100000000E-03 0. -1.
        -11    1    3    3    0    0 -0.10391671056E+02  0.91175905829E+01 -0.25204669706E+02  0.28747046120E+02  0.51100000000E-03 0.  1.
        -12    1    3    3    0    0 -0.16366493582E+02 -0.66987164391E+01  0.55133340520E+01  0.18523816196E+02  0.00000000000E+00 0.  1.
</event>
<event>
 7    1  0.7578565E-012  0.5930199E+02  0.7816164E-02  0.1266605E+00
        -11   -1    0    0    0    0  0.00000000000E+00  0.00000000000E+00  0.45593999997E+02  0.45594000000E+02  0.51100000000E-03 0.  1.
         11   -1    0    0    0    0 -0.00000000000E+00 -0.00000000000E+00 -0.45593999997E+02  0.45594000000E+02  0.51100000000E-03 0. -1.
    9900012    2    1    2    0    0  0.19310534066E+01  0.20451717852E+02  0.24386795426E+02  0.59301991759E+02  0.50000087050E+02 0.  0.
         12    1    1    2    0    0 -0.19310534066E+01 -0.20451717852E+02 -0.24386795426E+02  0.31886008241E+02  0.00000000000E+00 0. -1.
         11    1    3    3    0    0 -0.99747727022E+01  0.25074998045E+02 -0.13701962369E+01  0.27020900344E+02  0.51100000000E-03 0. -1.
        -11    1    3    3    0    0  0.10905340766E+02 -0.88891723963E+01  0.14511196585E+02  0.20211844787E+02  0.51100000000E-03 0.  1.
         12    1    3    3    0    0  0.10004853428E+01  0.42658922039E+01  0.11245795079E+02  0.12069246628E+02  0.00000000000E+00 0. -1.
</event>
<event>
 7    1  0.7578565E-012  0.5930194E+02  0.7816164E-02  0.1266605E+00
        -11   -1    0    0    0    0  0.00000000000E+00  0.00000000000E+00  0.45593999997E+02  0.45594000000E+02  0.51100000000E-03 0.  1.
         11   -1    0    0    0    0 -0.00000000000E+00 -0.00000000000E+00 -0.45593999997E+02  0.45594000000E+02  0.51100000000E-03 0. -1.
    9900012    2    1    2    0    0  0.61756337802E+01 -0.26002193473E+02  0.17391617215E+02  0.59301939294E+02  0.49999991367E+02 0.  0.
         12    1    1    2    0    0 -0.61756337802E+01  0.26002193473E+02 -0.17391617215E+02  0.31886060706E+02  0.00000000000E+00 0. -1.
         11    1    3    3    0    0  0.16328637836E+01 -0.21353384602E+00 -0.13020813259E+02  0.13124535002E+02  0.51100000000E-03 0. -1.
        -11    1    3    3    0    0  0.10218824375E+02 -0.89271051189E+01  0.36683017876E+01  0.14056102436E+02  0.51100000000E-03 0.  1.
         12    1    3    3    0    0 -0.56760543786E+01 -0.16861554508E+02  0.26744128686E+02  0.32121301856E+02  0.00000000000E+00 0. -1.
</event>
<event>
 7    1  0.7578565E-012  0.5930195E+02  0.7816164E-02  0.1266605E+00
        -11   -1    0    0    0    0  0.00000000000E+00  0.00000000000E+00  0.45593999997E+02  0.45594000000E+02  0.51100000000E-03 0.  1.
         11   -1    0    0    0    0 -0.00000000000E+00 -0.00000000000E+00 -0.45593999997E+02  0.45594000000E+02  0.51100000000E-03 0. -1.
    9900012    2    1    2    0    0  0.38349520810E+01  0.31294576041E+02  0.47605389496E+01  0.59301951669E+02  0.50000013937E+02 0.  0.
         12    1    1    2    0    0 -0.38349520810E+01 -0.31294576041E+02 -0.47605389496E+01  0.31886048331E+02  0.00000000000E+00 0. -1.
         11    1    3    3    0    0 -0.46865779240E+01  0.40338525145E+02 -0.16295777303E+01  0.40642541103E+02  0.51100000000E-03 0. -1.
        -11    1    3    3    0    0  0.43021580147E+01 -0.27042251684E+00  0.77117198017E+01  0.88347220942E+01  0.51100000000E-03 0.  1.
         12    1    3    3    0    0  0.42193719904E+01 -0.87735265869E+01 -0.13216031218E+01  0.98246884721E+01  0.00000000000E+00 0. -1.
</event>
<event>
 7    1  0.7578565E-012  0.5930178E+02  0.7816164E-02  0.1266605E+00
        -11   -1    0    0    0    0  0.00000000000E+00  0.00000000000E+00  0.45593999997E+02  0.45594000000E+02  0.51100000000E-03 0.  1.
         11   -1    0    0    0    0 -0.00000000000E+00 -0.00000000000E+00 -0.45593999997E+02  0.45594000000E+02  0.51100000000E-03 0. -1.
    9900012    2    1    2    0    0 -0.30750475575E+02  0.70497196130E+01  0.46304339845E+01  0.59301777057E+02  0.49999695485E+02 0.  0.
         12    1    1    2    0    0  0.30750475575E+02 -0.70497196130E+01 -0.46304339845E+01  0.31886222943E+02  0.00000000000E+00 0. -1.
         11    1    3    3    0    0 -0.65209039839E+00  0.17405962783E+02  0.29383217705E+01  0.17664271776E+02  0.51100000000E-03 0. -1.
        -11    1    3    3    0    0 -0.11573057597E+01 -0.11735787602E+02  0.42866112957E+01  0.12547633399E+02  0.51100000000E-03 0.  1.
        -12    1    3    3    0    0 -0.28941079416E+02  0.13795444316E+01 -0.25944990816E+01  0.29089871882E+02  0.00000000000E+00 0.  1.
</event>
<event>
 7    1  0.7578565E-012  0.5930189E+02  0.7816164E-02  0.1266605E+00
        -11   -1    0    0    0    0  0.00000000000E+00  0.00000000000E+00  0.45593999997E+02  0.45594000000E+02  0.51100000000E-03 0. -1.
         11   -1    0    0    0    0 -0.00000000000E+00 -0.00000000000E+00 -0.45593999997E+02  0.45594000000E+02  0.51100000000E-03 0.  1.
    9900012    2    1    2    0    0  0.10905745485E+02  0.29846321110E+02 -0.26430429510E+01  0.59301892611E+02  0.49999906228E+02 0.  0.
         12    1    1    2    0    0 -0.10905745485E+02 -0.29846321110E+02  0.26430429510E+01  0.31886107389E+02  0.00000000000E+00 0. -1.
         11    1    3    3    0    0 -0.20648528354E+01 -0.58825336381E+01  0.38347099292E+01  0.73193455813E+01  0.51100000000E-03 0. -1.
        -11    1    3    3    0    0  0.12352755545E+02  0.18005122888E+02 -0.20054955229E+02  0.29647533612E+02  0.51100000000E-03 0.  1.
        -12    1    3    3    0    0  0.61784277528E+00  0.17723731860E+02  0.13577202349E+02  0.22335013418E+02  0.00000000000E+00 0.  1.
</event>
<event>
 7    1  0.7578565E-012  0.5930194E+02  0.7816164E-02  0.1266605E+00
        -11   -1    0    0    0    0  0.00000000000E+00  0.00000000000E+00  0.45593999997E+02  0.45594000000E+02  0.51100000000E-03 0. -1.
         11   -1    0    0    0    0 -0.00000000000E+00 -0.00000000000E+00 -0.45593999997E+02  0.45594000000E+02  0.51100000000E-03 0.  1.
    9900012    2    1    2    0    0  0.23133499230E+02 -0.21914267095E+02  0.11518840664E+01  0.59301941513E+02  0.49999995413E+02 0.  0.
         12    1    1    2    0    0 -0.23133499230E+02  0.21914267095E+02 -0.11518840664E+01  0.31886058487E+02  0.00000000000E+00 0. -1.
         11    1    3    3    0    0 -0.16756023406E+01 -0.18381863958E+02 -0.10441755622E+02  0.21206858006E+02  0.51100000000E-03 0. -1.
        -11    1    3    3    0    0  0.30128442681E+02 -0.23566469915E+01  0.71249490650E+01  0.31049021609E+02  0.51100000000E-03 0.  1.
        -12    1    3    3    0    0 -0.53193411107E+01 -0.11757561461E+01  0.44686906238E+01  0.70460618971E+01  0.00000000000E+00 0.  1.
</event>
<event>
 7    1  0.7578565E-012  0.5930191E+02  0.7816164E-02  0.1266605E+00
        -11   -1    0    0    0    0  0.00000000000E+00  0.00000000000E+00  0.45593999997E+02  0.45594000000E+02  0.51100000000E-03 0.  1.
         11   -1    0    0    0    0 -0.00000000000E+00 -0.00000000000E+00 -0.45593999997E+02  0.45594000000E+02  0.51100000000E-03 0. -1.
    9900012    2    1    2    0    0 -0.18929849103E+02 -0.19537962724E+02  0.16632846527E+02  0.59301909646E+02  0.49999937296E+02 0.  0.
         12    1    1    2    0    0  0.18929849103E+02  0.19537962724E+02 -0.16632846527E+02  0.31886090354E+02  0.00000000000E+00 0. -1.
         11    1    3    3    0    0  0.45203431091E+01  0.76923969185E+01  0.10347228522E+01  0.89820445233E+01  0.51100000000E-03 0. -1.
        -11    1    3    3    0    0 -0.15191911140E+02 -0.17404136062E+02  0.25277265634E+02  0.34243806365E+02  0.51100000000E-03 0.  1.
        -12    1    3    3    0    0 -0.82582810727E+01 -0.98262235804E+01 -0.96791419596E+01  0.16076058758E+02  0.00000000000E+00 0.  1.
</event>
<event>
 7    1  0.7578565E-012  0.5930194E+02  0.7816164E-02  0.1266605E+00
        -11   -1    0    0    0    0  0.00000000000E+00  0.00000000000E+00  0.45593999997E+02  0.45594000000E+02  0.51100000000E-03 0.  1.
         11   -1    0    0    0    0 -0.00000000000E+00 -0.00000000000E+00 -0.45593999997E+02  0.45594000000E+02  0.51100000000E-03 0. -1.
    9900012    2    1    2    0    0 -0.79101352255E+01  0.59728699170E+01  0.30306354587E+02  0.59301944385E+02  0.50000000651E+02 0.  0.
         12    1    1    2    0    0  0.79101352255E+01 -0.59728699170E+01 -0.30306354587E+02  0.31886055615E+02  0.00000000000E+00 0. -1.
         11    1    3    3    0    0 -0.13545237392E+02  0.11957361467E+02 -0.47937744719E+01  0.18693106302E+02  0.51100000000E-03 0. -1.
        -11    1    3    3    0    0  0.76099887163E+01 -0.28080050171E+01  0.35882179757E+02  0.36787601781E+02  0.51100000000E-03 0.  1.
         12    1    3    3    0    0 -0.19748865494E+01 -0.31764865328E+01 -0.78205069820E+00  0.38212363014E+01  0.00000000000E+00 0. -1.
</event>
<event>
 7    1  0.7578565E-012  0.5930192E+02  0.7816164E-02  0.1266605E+00
        -11   -1    0    0    0    0  0.00000000000E+00  0.00000000000E+00  0.45593999997E+02  0.45594000000E+02  0.51100000000E-03 0.  1.
         11   -1    0    0    0    0 -0.00000000000E+00 -0.00000000000E+00 -0.45593999997E+02  0.45594000000E+02  0.51100000000E-03 0. -1.
    9900012    2    1    2    0    0  0.20581406039E+02  0.99809311403E+01 -0.22215060255E+02  0.59301918975E+02  0.49999954310E+02 0.  0.
         12    1    1    2    0    0 -0.20581406039E+02 -0.99809311403E+01  0.22215060255E+02  0.31886081025E+02  0.00000000000E+00 0. -1.
         11    1    3    3    0    0 -0.60941408143E+01  0.45683290602E+01 -0.63877819461E+01  0.99404195645E+01  0.51100000000E-03 0. -1.
        -11    1    3    3    0    0  0.34272206978E+02  0.56703791248E+01 -0.35464314139E+01  0.34918684778E+02  0.51100000000E-03 0.  1.
        -12    1    3    3    0    0 -0.75966601248E+01 -0.25777704473E+00 -0.12280846895E+02  0.14442814633E+02  0.00000000000E+00 0.  1.
</event>
<event>
 7    1  0.7578565E-012  0.5930196E+02  0.7816164E-02  0.1266605E+00
        -11   -1    0    0    0    0  0.00000000000E+00  0.00000000000E+00  0.45593999997E+02  0.45594000000E+02  0.51100000000E-03 0. -1.
         11   -1    0    0    0    0 -0.00000000000E+00 -0.00000000000E+00 -0.45593999997E+02  0.45594000000E+02  0.51100000000E-03 0.  1.
    9900012    2    1    2    0    0 -0.85188233021E+01 -0.29772035202E+02 -0.76010115678E+01  0.59301955915E+02  0.50000021680E+02 0.  0.
         12    1    1    2    0    0  0.85188233021E+01  0.29772035202E+02  0.76010115678E+01  0.31886044085E+02  0.00000000000E+00 0. -1.
         11    1    3    3    0    0  0.36513121692E+01  0.12134358685E+02  0.21770930054E+00  0.12673678978E+02  0.51100000000E-03 0. -1.
        -11    1    3    3    0    0 -0.89983035409E+01 -0.33080510609E+02 -0.12051143152E+02  0.36338955686E+02  0.51100000000E-03 0.  1.
        -12    1    3    3    0    0 -0.31718319304E+01 -0.88258832776E+01  0.42324222834E+01  0.10289321251E+02  0.00000000000E+00 0.  1.
</event>
<event>
 7    1  0.7578565E-012  0.5930188E+02  0.7816164E-02  0.1266605E+00
        -11   -1    0    0    0    0  0.00000000000E+00  0.00000000000E+00  0.45593999997E+02  0.45594000000E+02  0.51100000000E-03 0.  1.
         11   -1    0    0    0    0 -0.00000000000E+00 -0.00000000000E+00 -0.45593999997E+02  0.45594000000E+02  0.51100000000E-03 0. -1.
    9900012    2    1    2    0    0 -0.20545495324E+02  0.21495572463E+02  0.11512931987E+02  0.59301880504E+02  0.49999884148E+02 0.  0.
         12    1    1    2    0    0  0.20545495324E+02 -0.21495572463E+02 -0.11512931987E+02  0.31886119496E+02  0.00000000000E+00 0. -1.
         11    1    3    3    0    0 -0.39200185241E+01  0.12373970782E+02 -0.17521265381E+02  0.21805422238E+02  0.51100000000E-03 0. -1.
        -11    1    3    3    0    0 -0.67584495347E+01  0.80332662472E+01  0.52792304914E+01  0.11750756638E+02  0.51100000000E-03 0.  1.
         12    1    3    3    0    0 -0.98670272649E+01  0.10883354332E+01  0.23754966876E+02  0.25745701629E+02  0.00000000000E+00 0. -1.
</event>
<event>
 7    1  0.7578565E-012  0.5930194E+02  0.7816164E-02  0.1266605E+00
        -11   -1    0    0    0    0  0.00000000000E+00  0.00000000000E+00  0.45593999997E+02  0.45594000000E+02  0.51100000000E-03 0.  1.
         11   -1    0    0    0    0 -0.00000000000E+00 -0.00000000000E+00 -0.45593999997E+02  0.45594000000E+02  0.51100000000E-03 0. -1.
    9900012    2    1    2    0    0  0.30997867130E+02 -0.71337773786E+01 -0.22276259895E+01  0.59301939349E+02  0.49999991468E+02 0.  0.
         12    1    1    2    0    0 -0.30997867130E+02  0.71337773786E+01  0.22276259895E+01  0.31886060651E+02  0.00000000000E+00 0. -1.
         11    1    3    3    0    0  0.13863756470E+02  0.35175840386E+01 -0.84688755424E+01  0.16622243956E+02  0.51100000000E-03 0. -1.
        -11    1    3    3    0    0 -0.59996375184E+01  0.11564458931E+00 -0.10547686716E+02  0.12135185180E+02  0.51100000000E-03 0.  1.
        -12    1    3    3    0    0  0.23133748178E+02 -0.10767006007E+02  0.16788936269E+02  0.30544510213E+02  0.00000000000E+00 0.  1.
</event>
<event>
 7    1  0.7578565E-012  0.5930193E+02  0.7816164E-02  0.1266605E+00
        -11   -1    0    0    0    0  0.00000000000E+00  0.00000000000E+00  0.45593999997E+02  0.45594000000E+02  0.51100000000E-03 0. -1.
         11   -1    0    0    0    0 -0.00000000000E+00 -0.00000000000E+00 -0.45593999997E+02  0.45594000000E+02  0.51100000000E-03 0.  1.
    9900012    2    1    2    0    0 -0.27449278772E+02  0.85355126193E+01  0.13798669554E+02  0.59301934670E+02  0.49999982934E+02 0.  0.
         12    1    1    2    0    0  0.27449278772E+02 -0.85355126193E+01 -0.13798669554E+02  0.31886065330E+02  0.00000000000E+00 0. -1.
         11    1    3    3    0    0 -0.17159172295E+02 -0.57411603882E+00  0.12689892286E+02  0.21349477033E+02  0.51100000000E-03 0. -1.
        -11    1    3    3    0    0  0.42137098724E+01 -0.48550384350E+01 -0.12219076398E+02  0.13806975678E+02  0.51100000000E-03 0.  1.
        -12    1    3    3    0    0 -0.14503816349E+02  0.13964667093E+02  0.13327853666E+02  0.24145481959E+02  0.00000000000E+00 0.  1.
</event>
<event>
 7    1  0.7578565E-012  0.5930198E+02  0.7816164E-02  0.1266605E+00
        -11   -1    0    0    0    0  0.00000000000E+00  0.00000000000E+00  0.45593999997E+02  0.45594000000E+02  0.51100000000E-03 0.  1.
         11   -1    0    0    0    0 -0.00000000000E+00 -0.00000000000E+00 -0.45593999997E+02  0.45594000000E+02  0.51100000000E-03 0. -1.
    9900012    2    1    2    0    0  0.22372104408E+02  0.19836499575E+01  0.22633428785E+02  0.59301983921E+02  0.50000072756E+02 0.  0.
         12    1    1    2    0    0 -0.22372104408E+02 -0.19836499575E+01 -0.22633428785E+02  0.31886016079E+02  0.00000000000E+00 0. -1.
         11    1    3    3    0    0  0.11228927773E+02 -0.19611375877E+02 -0.22615927910E+01  0.22711443920E+02  0.51100000000E-03 0. -1.
        -11    1    3    3    0    0  0.22970596163E+01 -0.66307447548E-02  0.64282794839E+01  0.68263683048E+01  0.51100000000E-03 0.  1.
         12    1    3    3    0    0  0.88461170187E+01  0.21601656579E+02  0.18466742092E+02  0.29764171696E+02  0.00000000000E+00 0. -1.
</event>
<event>
 7    1  0.7578565E-012  0.5930192E+02  0.7816164E-02  0.1266605E+00
        -11   -1    0    0    0    0  0.00000000000E+00  0.00000000000E+00  0.45593999997E+02  0.45594000000E+02  0.51100000000E-03 0.  1.
         11   -1    0    0    0    0 -0.00000000000E+00 -0.00000000000E+00 -0.45593999997E+02  0.45594000000E+02  0.51100000000E-03 0. -1.
    9900012    2    1    2    0    0 -0.60563636721E+00 -0.24681465491E+02 -0.20178715842E+02  0.59301919852E+02  0.49999955909E+02 0.  0.
         12    1    1    2    0    0  0.60563636721E+00  0.24681465491E+02  0.20178715842E+02  0.31886080148E+02  0.00000000000E+00 0. -1.
         11    1    3    3    0    0  0.12527992690E+01 -0.23864523048E+02 -0.33114551056E+01  0.24125726963E+02  0.51100000000E-03 0. -1.
        -11    1    3    3    0    0 -0.13395680383E+01  0.14987314060E+02 -0.78094869015E+01  0.16952938129E+02  0.51100000000E-03 0.  1.
         12    1    3    3    0    0 -0.51886759790E+00 -0.15804256504E+02 -0.90577738344E+01  0.18223254760E+02  0.00000000000E+00 0. -1.
</event>
<event>
 7    1  0.7578565E-012  0.5930193E+02  0.7816164E-02  0.1266605E+00
        -11   -1    0    0    0    0  0.00000000000E+00  0.00000000000E+00  0.45593999997E+02  0.45594000000E+02  0.51100000000E-03 0. -1.
         11   -1    0    0    0    0 -0.00000000000E+00 -0.00000000000E+00 -0.45593999997E+02  0.45594000000E+02  0.51100000000E-03 0.  1.
    9900012    2    1    2    0    0 -0.14970313718E+02 -0.15256771244E+02 -0.23660980400E+02  0.59301931646E+02  0.49999977418E+02 0.  0.
         12    1    1    2    0    0  0.14970313718E+02  0.15256771244E+02  0.23660980400E+02  0.31886068354E+02  0.00000000000E+00 0. -1.
         11    1    3    3    0    0  0.91780651532E+01  0.71523630685E+01 -0.24077648461E+00  0.11638348293E+02  0.51100000000E-03 0. -1.
        -11    1    3    3    0    0 -0.18108665717E+02 -0.49313690307E+00 -0.14648761954E+02  0.23297063873E+02  0.51100000000E-03 0.  1.
         12    1    3    3    0    0 -0.60397131537E+01 -0.21915997410E+02 -0.87714419613E+01  0.24366519479E+02  0.00000000000E+00 0. -1.
</event>
<event>
 7    1  0.7578565E-012  0.5930194E+02  0.7816164E-02  0.1266605E+00
        -11   -1    0    0    0    0  0.00000000000E+00  0.00000000000E+00  0.45593999997E+02  0.45594000000E+02  0.51100000000E-03 0. -1.
         11   -1    0    0    0    0 -0.00000000000E+00 -0.00000000000E+00 -0.45593999997E+02  0.45594000000E+02  0.51100000000E-03 0.  1.
    9900012    2    1    2    0    0  0.30493455027E+02 -0.34258940416E+01 -0.86679523943E+01  0.59301938026E+02  0.49999989055E+02 0.  0.
         12    1    1    2    0    0 -0.30493455027E+02  0.34258940416E+01  0.86679523943E+01  0.31886061974E+02  0.00000000000E+00 0. -1.
         11    1    3    3    0    0  0.17919291767E+02 -0.20416336323E+02 -0.11848031347E+02  0.29636188239E+02  0.51100000000E-03 0. -1.
        -11    1    3    3    0    0  0.77011198513E+01  0.13616626529E+02 -0.75785161507E+01  0.17382568058E+02  0.51100000000E-03 0.  1.
         12    1    3    3    0    0  0.48730434089E+01  0.33738157531E+01  0.10758595103E+02  0.12283181729E+02  0.00000000000E+00 0. -1.
</event>
<event>
 7    1  0.7578565E-012  0.5930189E+02  0.7816164E-02  0.1266605E+00
        -11   -1    0    0    0    0  0.00000000000E+00  0.00000000000E+00  0.45593999997E+02  0.45594000000E+02  0.51100000000E-03 0. -1.
         11   -1    0    0    0    0 -0.00000000000E+00 -0.00000000000E+00 -0.45593999997E+02  0.45594000000E+02  0.51100000000E-03 0.  1.
    9900012    2    1    2    0    0  0.21883443813E+02  0.22885085917E+01 -0.23078166833E+02  0.59301887520E+02  0.49999896944E+02 0.  0.
         12    1    1    2    0    0 -0.21883443813E+02 -0.22885085917E+01  0.23078166833E+02  0.31886112480E+02  0.00000000000E+00 0. -1.
         11    1    3    3    0    0 -0.57876971178E+01  0.11495675503E+02 -0.11139450069E+02  0.17021613945E+02  0.51100000000E-03 0. -1.
        -11    1    3    3    0    0  0.13186554120E+02 -0.18767313389E+02 -0.91875256068E+01  0.24708457832E+02  0.51100000000E-03 0.  1.
        -12    1    3    3    0    0  0.14484586810E+02  0.95601464777E+01 -0.27511911571E+01  0.17571815743E+02  0.00000000000E+00 0.  1.
</event>
<event>
 7    1  0.7578565E-012  0.5930196E+02  0.7816164E-02  0.1266605E+00
        -11   -1    0    0    0    0  0.00000000000E+00  0.00000000000E+00  0.45593999997E+02  0.45594000000E+02  0.51100000000E-03 0.  1.
         11   -1    0    0    0    0 -0.00000000000E+00 -0.00000000000E+00 -0.45593999997E+02  0.45594000000E+02  0.51100000000E-03 0. -1.
    9900012    2    1    2    0    0  0.27620360765E+02  0.15869828355E+02  0.14085743312E+01  0.59301955051E+02  0.50000020105E+02 0.  0.
         12    1    1    2    0    0 -0.27620360765E+02 -0.15869828355E+02 -0.14085743312E+01  0.31886044949E+02  0.00000000000E+00 0. -1.
         11    1    3    3    0    0  0.17199801298E+02  0.13665203903E+02 -0.40199464196E+01  0.22332284520E+02  0.51100000000E-03 0. -1.
        -11    1    3    3    0    0  0.37562673358E+00  0.37570211777E+01  0.19359845051E+02  0.19724601498E+02  0.51100000000E-03 0.  1.
        -12    1    3    3    0    0  0.10044932733E+02 -0.15523967262E+01 -0.13931324300E+02  0.17245069034E+02  0.00000000000E+00 0.  1.
</event>
<event>
 7    1  0.7578565E-012  0.5930197E+02  0.7816164E-02  0.1266605E+00
        -11   -1    0    0    0    0  0.00000000000E+00  0.00000000000E+00  0.45593999997E+02  0.45594000000E+02  0.51100000000E-03 0. -1.
         11   -1    0    0    0    0 -0.00000000000E+00 -0.00000000000E+00 -0.45593999997E+02  0.45594000000E+02  0.51100000000E-03 0.  1.
    9900012    2    1    2    0    0 -0.27818937860E+02 -0.55751430974E+01 -0.14551405847E+02  0.59301969573E+02  0.50000046589E+02 0.  0.
         12    1    1    2    0    0  0.27818937860E+02  0.55751430974E+01  0.14551405847E+02  0.31886030427E+02  0.00000000000E+00 0. -1.
         11    1    3    3    0    0 -0.45532974277E+01  0.11604404659E+02 -0.15360321540E+02  0.19782168815E+02  0.51100000000E-03 0. -1.
        -11    1    3    3    0    0  0.22349257816E+01 -0.98219160061E+01  0.70000898898E+01  0.12266465913E+02  0.51100000000E-03 0.  1.
        -12    1    3    3    0    0 -0.25500566214E+02 -0.73576317504E+01 -0.61911741967E+01  0.27253334845E+02  0.00000000000E+00 0.  1.
</event>
<event>
 7    1  0.7578565E-012  0.5930196E+02  0.7816164E-02  0.1266605E+00
        -11   -1    0    0    0    0  0.00000000000E+00  0.00000000000E+00  0.45593999997E+02  0.45594000000E+02  0.51100000000E-03 0.  1.
         11   -1    0    0    0    0 -0.00000000000E+00 -0.00000000000E+00 -0.45593999997E+02  0.45594000000E+02  0.51100000000E-03 0. -1.
    9900012    2    1    2    0    0 -0.15194770188E+02 -0.27405779091E+02 -0.58959219332E+01  0.59301958162E+02  0.50000025777E+02 0.  0.
         12    1    1    2    0    0  0.15194770188E+02  0.27405779091E+02  0.58959219332E+01  0.31886041838E+02  0.00000000000E+00 0. -1.
         11    1    3    3    0    0 -0.27669496952E+01  0.45373605943E+01 -0.84914867068E+00  0.53818867978E+01  0.51100000000E-03 0. -1.
        -11    1    3    3    0    0  0.10938450911E+02 -0.14527085811E+02 -0.14526160729E+02  0.23274348031E+02  0.51100000000E-03 0.  1.
        -12    1    3    3    0    0 -0.23366271404E+02 -0.17416053874E+02  0.94793874664E+01  0.30645723333E+02  0.00000000000E+00 0.  1.
</event>
<event>
 7    1  0.7578565E-012  0.5930196E+02  0.7816164E-02  0.1266605E+00
        -11   -1    0    0    0    0  0.00000000000E+00  0.00000000000E+00  0.45593999997E+02  0.45594000000E+02  0.51100000000E-03 0.  1.
         11   -1    0    0    0    0 -0.00000000000E+00 -0.00000000000E+00 -0.45593999997E+02  0.45594000000E+02  0.51100000000E-03 0. -1.
    9900012    2    1    2    0    0  0.16161053777E+02 -0.22867363093E+02  0.15252000111E+02  0.59301961341E+02  0.50000031574E+02 0.  0.
         12    1    1    2    0    0 -0.16161053777E+02  0.22867363093E+02 -0.15252000111E+02  0.31886038659E+02  0.00000000000E+00 0. -1.
         11    1    3    3    0    0  0.11311499544E+02 -0.12437782605E+00  0.12186081612E+01  0.11377631471E+02  0.51100000000E-03 0. -1.
        -11    1    3    3    0    0 -0.10926244118E+02 -0.24569558346E+02  0.16938171287E+02  0.31779673608E+02  0.51100000000E-03 0.  1.
        -12    1    3    3    0    0  0.15775798351E+02  0.18265730786E+01 -0.29047793370E+01  0.16144656262E+02  0.00000000000E+00 0.  1.
</event>
<event>
 7    1  0.7578565E-012  0.5930197E+02  0.7816164E-02  0.1266605E+00
        -11   -1    0    0    0    0  0.00000000000E+00  0.00000000000E+00  0.45593999997E+02  0.45594000000E+02  0.51100000000E-03 0.  1.
         11   -1    0    0    0    0 -0.00000000000E+00 -0.00000000000E+00 -0.45593999997E+02  0.45594000000E+02  0.51100000000E-03 0. -1.
    9900012    2    1    2    0    0 -0.12242043403E+02 -0.27195492230E+02  0.11280814221E+02  0.59301965537E+02  0.50000039228E+02 0.  0.
         12    1    1    2    0    0  0.12242043403E+02  0.27195492230E+02 -0.11280814221E+02  0.31886034463E+02  0.00000000000E+00 0. -1.
         11    1    3    3    0    0 -0.95057942823E+01 -0.33440915603E+02 -0.70800994254E+01  0.35479328762E+02  0.51100000000E-03 0. -1.
        -11    1    3    3    0    0  0.30254367668E+01  0.16638750540E+01  0.15572978836E+02  0.15951157259E+02  0.51100000000E-03 0.  1.
        -12    1    3    3    0    0 -0.57616858871E+01  0.45815483189E+01  0.27879348102E+01  0.78714795157E+01  0.00000000000E+00 0.  1.
</event>
<event>
 7    1  0.7578565E-012  0.5930198E+02  0.7816164E-02  0.1266605E+00
        -11   -1    0    0    0    0  0.00000000000E+00  0.00000000000E+00  0.45593999997E+02  0.45594000000E+02  0.51100000000E-03 0.  1.
         11   -1    0    0    0    0 -0.00000000000E+00 -0.00000000000E+00 -0.45593999997E+02  0.45594000000E+02  0.51100000000E-03 0. -1.
    9900012    2    1    2    0    0 -0.20795692680E+02 -0.13426884706E+02  0.20099161038E+02  0.59301978903E+02  0.50000063604E+02 0.  0.
         12    1    1    2    0    0  0.20795692680E+02  0.13426884706E+02 -0.20099161038E+02  0.31886021097E+02  0.00000000000E+00 0. -1.
         11    1    3    3    0    0  0.11190052982E+02 -0.14849106008E+02 -0.36541343564E+01  0.18949035150E+02  0.51100000000E-03 0.  1.
        -11    1    3    3    0    0 -0.27116661517E+02  0.22030451801E+01  0.17336631916E+02  0.32260278151E+02  0.51100000000E-03 0. -1.
        -12    1    3    3    0    0 -0.48690841453E+01 -0.78082387790E+00  0.64166634788E+01  0.80926656018E+01  0.00000000000E+00 0.  1.
</event>
<event>
 7    1  0.7578565E-012  0.5930194E+02  0.7816164E-02  0.1266605E+00
        -11   -1    0    0    0    0  0.00000000000E+00  0.00000000000E+00  0.45593999997E+02  0.45594000000E+02  0.51100000000E-03 0.  1.
         11   -1    0    0    0    0 -0.00000000000E+00 -0.00000000000E+00 -0.45593999997E+02  0.45594000000E+02  0.51100000000E-03 0. -1.
    9900012    2    1    2    0    0 -0.14532280472E+02 -0.27870308814E+02 -0.53646460198E+01  0.59301941667E+02  0.49999995695E+02 0.  0.
         12    1    1    2    0    0  0.14532280472E+02  0.27870308814E+02  0.53646460198E+01  0.31886058333E+02  0.00000000000E+00 0. -1.
         11    1    3    3    0    0 -0.18758072015E+02 -0.21500629209E+02 -0.16848536779E+02  0.33136317145E+02  0.51100000000E-03 0. -1.
        -11    1    3    3    0    0  0.13274598886E+02 -0.24027065438E+01  0.52077199614E+01  0.14460578196E+02  0.51100000000E-03 0.  1.
        -12    1    3    3    0    0 -0.90488073426E+01 -0.39669730610E+01  0.62761707981E+01  0.11705046325E+02  0.00000000000E+00 0.  1.
</event>
<event>
 7    1  0.7578565E-012  0.5930191E+02  0.7816164E-02  0.1266605E+00
        -11   -1    0    0    0    0  0.00000000000E+00  0.00000000000E+00  0.45593999997E+02  0.45594000000E+02  0.51100000000E-03 0.  1.
         11   -1    0    0    0    0 -0.00000000000E+00 -0.00000000000E+00 -0.45593999997E+02  0.45594000000E+02  0.51100000000E-03 0. -1.
    9900012    2    1    2    0    0 -0.14038337088E+00  0.17341564225E+02  0.26757671592E+02  0.59301912967E+02  0.49999943352E+02 0.  0.
         12    1    1    2    0    0  0.14038337088E+00 -0.17341564225E+02 -0.26757671592E+02  0.31886087033E+02  0.00000000000E+00 0. -1.
         11    1    3    3    0    0 -0.77279105068E+01  0.55937167680E+01 -0.17051914937E+01  0.96911271983E+01  0.51100000000E-03 0. -1.
        -11    1    3    3    0    0 -0.68232511906E+01  0.21872792647E+02  0.17885047221E+02  0.29066316061E+02  0.51100000000E-03 0.  1.
        -12    1    3    3    0    0  0.14410778327E+02 -0.10124945190E+02  0.10577815864E+02  0.20544469707E+02  0.00000000000E+00 0.  1.
</event>
<event>
 7    1  0.7578565E-012  0.5930191E+02  0.7816164E-02  0.1266605E+00
        -11   -1    0    0    0    0  0.00000000000E+00  0.00000000000E+00  0.45593999997E+02  0.45594000000E+02  0.51100000000E-03 0.  1.
         11   -1    0    0    0    0 -0.00000000000E+00 -0.00000000000E+00 -0.45593999997E+02  0.45594000000E+02  0.51100000000E-03 0. -1.
    9900012    2    1    2    0    0  0.21224449788E+02 -0.14208848103E+02  0.19088054201E+02  0.59301914533E+02  0.49999946208E+02 0.  0.
         12    1    1    2    0    0 -0.21224449788E+02  0.14208848103E+02 -0.19088054201E+02  0.31886085467E+02  0.00000000000E+00 0. -1.
         11    1    3    3    0    0 -0.36887272439E+01 -0.77961535220E+01 -0.10606444627E+02  0.13670529848E+02  0.51100000000E-03 0. -1.
        -11    1    3    3    0    0  0.17968729336E+02  0.54091557066E+01  0.90118476572E+01  0.20817002615E+02  0.51100000000E-03 0.  1.
        -12    1    3    3    0    0  0.69444476959E+01 -0.11821850288E+02  0.20682651172E+02  0.24814382070E+02  0.00000000000E+00 0.  1.
</event>
<event>
 7    1  0.7578565E-012  0.5930195E+02  0.7816164E-02  0.1266605E+00
        -11   -1    0    0    0    0  0.00000000000E+00  0.00000000000E+00  0.45593999997E+02  0.45594000000E+02  0.51100000000E-03 0. -1.
         11   -1    0    0    0    0 -0.00000000000E+00 -0.00000000000E+00 -0.45593999997E+02  0.45594000000E+02  0.51100000000E-03 0.  1.
    9900012    2    1    2    0    0 -0.56229753978E+01  0.30862382186E+02 -0.57109911911E+01  0.59301954354E+02  0.50000018833E+02 0.  0.
         12    1    1    2    0    0  0.56229753978E+01 -0.30862382186E+02  0.57109911911E+01  0.31886045646E+02  0.00000000000E+00 0. -1.
         11    1    3    3    0    0  0.13354080154E+01  0.37549296475E+01  0.73549117960E+01  0.83652578570E+01  0.51100000000E-03 0. -1.
        -11    1    3    3    0    0 -0.23180744663E+02  0.20587541535E+02 -0.40535224871E+01  0.31266992730E+02  0.51100000000E-03 0.  1.
        -12    1    3    3    0    0  0.16222361250E+02  0.65199110042E+01 -0.90123805000E+01  0.19669703767E+02  0.00000000000E+00 0.  1.
</event>
<event>
 7    1  0.7578565E-012  0.5930195E+02  0.7816164E-02  0.1266605E+00
        -11   -1    0    0    0    0  0.00000000000E+00  0.00000000000E+00  0.45593999997E+02  0.45594000000E+02  0.51100000000E-03 0. -1.
         11   -1    0    0    0    0 -0.00000000000E+00 -0.00000000000E+00 -0.45593999997E+02  0.45594000000E+02  0.51100000000E-03 0.  1.
    9900012    2    1    2    0    0 -0.98167535546E+01 -0.20324032033E+01 -0.30269140276E+02  0.59301950289E+02  0.50000011420E+02 0.  0.
         12    1    1    2    0    0  0.98167535546E+01  0.20324032033E+01  0.30269140276E+02  0.31886049711E+02  0.00000000000E+00 0. -1.
         11    1    3    3    0    0  0.20922927655E+01 -0.25807255720E+01  0.56354088636E+01  0.65418397118E+01  0.51100000000E-03 0.  1.
        -11    1    3    3    0    0 -0.14709799249E+02 -0.15568646636E+02 -0.14695593614E+02  0.25975400362E+02  0.51100000000E-03 0. -1.
        -12    1    3    3    0    0  0.28007529290E+01  0.16116969005E+02 -0.21208955525E+02  0.26784710216E+02  0.00000000000E+00 0.  1.
</event>
<event>
 7    1  0.7578565E-012  0.5930195E+02  0.7816164E-02  0.1266605E+00
        -11   -1    0    0    0    0  0.00000000000E+00  0.00000000000E+00  0.45593999997E+02  0.45594000000E+02  0.51100000000E-03 0.  1.
         11   -1    0    0    0    0 -0.00000000000E+00 -0.00000000000E+00 -0.45593999997E+02  0.45594000000E+02  0.51100000000E-03 0. -1.
    9900012    2    1    2    0    0 -0.53142191693E+01 -0.31365135378E+02  0.21697400867E+01  0.59301946392E+02  0.50000004312E+02 0.  0.
         12    1    1    2    0    0  0.53142191693E+01  0.31365135378E+02 -0.21697400867E+01  0.31886053608E+02  0.00000000000E+00 0. -1.
         11    1    3    3    0    0  0.84419062640E+01  0.30890867342E+01 -0.37428711052E+01  0.97374186822E+01  0.51100000000E-03 0. -1.
        -11    1    3    3    0    0 -0.12283603396E+02 -0.24810113299E+02  0.18753235846E+02  0.33438189085E+02  0.51100000000E-03 0.  1.
         12    1    3    3    0    0 -0.14725220375E+01 -0.96441088124E+01 -0.12840624654E+02  0.16126338625E+02  0.00000000000E+00 0. -1.
</event>
<event>
 7    1  0.7578565E-012  0.5930195E+02  0.7816164E-02  0.1266605E+00
        -11   -1    0    0    0    0  0.00000000000E+00  0.00000000000E+00  0.45593999997E+02  0.45594000000E+02  0.51100000000E-03 0.  1.
         11   -1    0    0    0    0 -0.00000000000E+00 -0.00000000000E+00 -0.45593999997E+02  0.45594000000E+02  0.51100000000E-03 0. -1.
    9900012    2    1    2    0    0 -0.21708045434E+02  0.10402803231E+02  0.20910827211E+02  0.59301949033E+02  0.50000009128E+02 0.  0.
         12    1    1    2    0    0  0.21708045434E+02 -0.10402803231E+02 -0.20910827211E+02  0.31886050967E+02  0.00000000000E+00 0. -1.
         11    1    3    3    0    0 -0.58162718770E+01 -0.10991326721E+01 -0.46313336035E+01  0.75157409738E+01  0.51100000000E-03 0. -1.
        -11    1    3    3    0    0 -0.62970219851E+01 -0.31428245980E+01  0.32271177438E+02  0.33029664331E+02  0.51100000000E-03 0.  1.
        -12    1    3    3    0    0 -0.95947515724E+01  0.14644760502E+02 -0.67290166237E+01  0.18756543728E+02  0.00000000000E+00 0.  1.
</event>
<event>
 7    1  0.7578565E-012  0.5930193E+02  0.7816164E-02  0.1266605E+00
        -11   -1    0    0    0    0  0.00000000000E+00  0.00000000000E+00  0.45593999997E+02  0.45594000000E+02  0.51100000000E-03 0.  1.
         11   -1    0    0    0    0 -0.00000000000E+00 -0.00000000000E+00 -0.45593999997E+02  0.45594000000E+02  0.51100000000E-03 0. -1.
    9900012    2    1    2    0    0  0.26588298893E+02  0.56646825534E+01  0.16664184213E+02  0.59301932480E+02  0.49999978939E+02 0.  0.
         12    1    1    2    0    0 -0.26588298893E+02 -0.56646825534E+01 -0.16664184213E+02  0.31886067520E+02  0.00000000000E+00 0. -1.
         11    1    3    3    0    0  0.18046453407E+02 -0.93791250625E+00  0.40224369655E+01  0.18513080777E+02  0.51100000000E-03 0. -1.
        -11    1    3    3    0    0 -0.10425133093E+02  0.14522822867E+02  0.86114954958E+01  0.19843226526E+02  0.51100000000E-03 0.  1.
        -12    1    3    3    0    0  0.18966978578E+02 -0.79202278071E+01  0.40302517513E+01  0.20945625178E+02  0.00000000000E+00 0.  1.
</event>
<event>
 7    1  0.7578565E-012  0.5930198E+02  0.7816164E-02  0.1266605E+00
        -11   -1    0    0    0    0  0.00000000000E+00  0.00000000000E+00  0.45593999997E+02  0.45594000000E+02  0.51100000000E-03 0.  1.
         11   -1    0    0    0    0 -0.00000000000E+00 -0.00000000000E+00 -0.45593999997E+02  0.45594000000E+02  0.51100000000E-03 0. -1.
    9900012    2    1    2    0    0 -0.69769140584E+01  0.24874047084E+02  0.18690182796E+02  0.59301976713E+02  0.50000059609E+02 0.  0.
         12    1    1    2    0    0  0.69769140584E+01 -0.24874047084E+02 -0.18690182796E+02  0.31886023287E+02  0.00000000000E+00 0. -1.
         11    1    3    3    0    0  0.72394307921E+01  0.47469102859E+01  0.22175780342E+02  0.23805624325E+02  0.51100000000E-03 0. -1.
        -11    1    3    3    0    0 -0.17551012055E+02  0.23942119909E+02 -0.52184822493E+01  0.30141262202E+02  0.51100000000E-03 0.  1.
        -12    1    3    3    0    0  0.33346672047E+01 -0.38149831105E+01  0.17328847039E+01  0.53550901857E+01  0.00000000000E+00 0.  1.
</event>
<event>
 7    1  0.8568613E-012  0.5930195E+02  0.7816164E-02  0.1266605E+00
        -11   -1    0    0    0    0  0.00000000000E+00  0.00000000000E+00  0.45593999997E+02  0.45594000000E+02  0.51100000000E-03 0.  1.
         11   -1    0    0    0    0 -0.00000000000E+00 -0.00000000000E+00 -0.45593999997E+02  0.45594000000E+02  0.51100000000E-03 0. -1.
    9900012    2    1    2    0    0 -0.31137233815E+02  0.17885226010E+01  0.66327902457E+01  0.59301952123E+02  0.50000014765E+02 0.  0.
         12    1    1    2    0    0  0.31137233815E+02 -0.17885226010E+01 -0.66327902457E+01  0.31886047877E+02  0.00000000000E+00 0. -1.
         11    1    3    3    0    0 -0.35412586921E+01 -0.11856715310E+02  0.10920786373E+02  0.16504114224E+02  0.51100000000E-03 0. -1.
        -11    1    3    3    0    0 -0.31881816780E+02  0.95073072498E+01  0.29775199292E+01  0.33402166958E+02  0.51100000000E-03 0.  1.
         12    1    3    3    0    0  0.42858416569E+01  0.41379306608E+01 -0.72655160566E+01  0.93956709409E+01  0.00000000000E+00 0. -1.
</event>
<event>
 7    1  0.7578565E-012  0.5930195E+02  0.7816164E-02  0.1266605E+00
        -11   -1    0    0    0    0  0.00000000000E+00  0.00000000000E+00  0.45593999997E+02  0.45594000000E+02  0.51100000000E-03 0.  1.
         11   -1    0    0    0    0 -0.00000000000E+00 -0.00000000000E+00 -0.45593999997E+02  0.45594000000E+02  0.51100000000E-03 0. -1.
    9900012    2    1    2    0    0 -0.12091741702E+02  0.84458754002E+01  0.28269724936E+02  0.59301946989E+02  0.50000005401E+02 0.  0.
         12    1    1    2    0    0  0.12091741702E+02 -0.84458754002E+01 -0.28269724936E+02  0.31886053011E+02  0.00000000000E+00 0. -1.
         11    1    3    3    0    0 -0.15413947896E+02 -0.13912139717E+02  0.25613991909E+02  0.32972928336E+02  0.51100000000E-03 0.  1.
        -11    1    3    3    0    0  0.14550012777E+01  0.20082405236E+02  0.67942175194E+01  0.21250445189E+02  0.51100000000E-03 0. -1.
        -12    1    3    3    0    0  0.18672049162E+01  0.22756098818E+01 -0.41384844928E+01  0.50785734641E+01  0.00000000000E+00 0.  1.
</event>
<event>
 7    1  0.7578565E-012  0.5930189E+02  0.7816164E-02  0.1266605E+00
        -11   -1    0    0    0    0  0.00000000000E+00  0.00000000000E+00  0.45593999997E+02  0.45594000000E+02  0.51100000000E-03 0. -1.
         11   -1    0    0    0    0 -0.00000000000E+00 -0.00000000000E+00 -0.45593999997E+02  0.45594000000E+02  0.51100000000E-03 0.  1.
    9900012    2    1    2    0    0 -0.62939179135E+01  0.16751618129E+02 -0.26391172593E+02  0.59301888549E+02  0.49999898820E+02 0.  0.
         12    1    1    2    0    0  0.62939179135E+01 -0.16751618129E+02  0.26391172593E+02  0.31886111451E+02  0.00000000000E+00 0. -1.
         11    1    3    3    0    0  0.10008357213E+02  0.15575233120E+02  0.15919490611E+01  0.18581964452E+02  0.51100000000E-03 0. -1.
        -11    1    3    3    0    0 -0.15469196866E+02  0.28737573629E+01 -0.32343392392E+02  0.35967340251E+02  0.51100000000E-03 0.  1.
         12    1    3    3    0    0 -0.83307826033E+00 -0.16973723535E+01  0.43602707385E+01  0.47525838453E+01  0.00000000000E+00 0. -1.
</event>
<event>
 7    1  0.7578565E-012  0.5930193E+02  0.7816164E-02  0.1266605E+00
        -11   -1    0    0    0    0  0.00000000000E+00  0.00000000000E+00  0.45593999997E+02  0.45594000000E+02  0.51100000000E-03 0.  1.
         11   -1    0    0    0    0 -0.00000000000E+00 -0.00000000000E+00 -0.45593999997E+02  0.45594000000E+02  0.51100000000E-03 0. -1.
    9900012    2    1    2    0    0 -0.99278259827E+01  0.16224711567E+02  0.25591368791E+02  0.59301934850E+02  0.49999983262E+02 0.  0.
         12    1    1    2    0    0  0.99278259827E+01 -0.16224711567E+02 -0.25591368791E+02  0.31886065150E+02  0.00000000000E+00 0. -1.
         11    1    3    3    0    0 -0.53378460811E+01 -0.52720017698E+01  0.25769013227E+02  0.26838938996E+02  0.51100000000E-03 0. -1.
        -11    1    3    3    0    0 -0.11989054720E+02  0.21492490780E+02  0.21563062676E+01  0.24704539057E+02  0.51100000000E-03 0.  1.
         12    1    3    3    0    0  0.73990748180E+01  0.42225566785E-02 -0.23339507041E+01  0.77584567976E+01  0.00000000000E+00 0. -1.
</event>
<event>
 7    1  0.7578565E-012  0.5930199E+02  0.7816164E-02  0.1266605E+00
        -11   -1    0    0    0    0  0.00000000000E+00  0.00000000000E+00  0.45593999997E+02  0.45594000000E+02  0.51100000000E-03 0.  1.
         11   -1    0    0    0    0 -0.00000000000E+00 -0.00000000000E+00 -0.45593999997E+02  0.45594000000E+02  0.51100000000E-03 0. -1.
    9900012    2    1    2    0    0  0.10510437547E+02  0.21041587523E+01  0.30030333459E+02  0.59301988817E+02  0.50000081685E+02 0.  0.
         12    1    1    2    0    0 -0.10510437547E+02 -0.21041587523E+01 -0.30030333459E+02  0.31886011183E+02  0.00000000000E+00 0. -1.
         11    1    3    3    0    0  0.51608789918E+01  0.20239263105E+01 -0.40255573572E+01  0.68509898537E+01  0.51100000000E-03 0. -1.
        -11    1    3    3    0    0 -0.13196718157E+02 -0.35449737509E+01  0.30223615004E+02  0.33169068621E+02  0.51100000000E-03 0.  1.
        -12    1    3    3    0    0  0.18546276712E+02  0.36252061926E+01  0.38322758125E+01  0.19281930342E+02  0.00000000000E+00 0.  1.
</event>
<event>
 7    1  0.7578565E-012  0.5930195E+02  0.7816164E-02  0.1266605E+00
        -11   -1    0    0    0    0  0.00000000000E+00  0.00000000000E+00  0.45593999997E+02  0.45594000000E+02  0.51100000000E-03 0. -1.
         11   -1    0    0    0    0 -0.00000000000E+00 -0.00000000000E+00 -0.45593999997E+02  0.45594000000E+02  0.51100000000E-03 0.  1.
    9900012    2    1    2    0    0  0.31397387762E+02  0.55329186069E+01 -0.55777272186E+00  0.59301948865E+02  0.50000008822E+02 0.  0.
         12    1    1    2    0    0 -0.31397387762E+02 -0.55329186069E+01  0.55777272186E+00  0.31886051135E+02  0.00000000000E+00 0. -1.
         11    1    3    3    0    0 -0.30596951920E+01  0.10541915177E+02 -0.16402918640E+01  0.11098840838E+02  0.51100000000E-03 0.  1.
        -11    1    3    3    0    0  0.35119172257E+02 -0.54118646302E+01  0.11812106667E+02  0.37445565866E+02  0.51100000000E-03 0. -1.
         12    1    3    3    0    0 -0.66208930362E+00  0.40286805962E+00 -0.10729587524E+02  0.10757542162E+02  0.00000000000E+00 0. -1.
</event>
<event>
 7    1  0.7578565E-012  0.5930195E+02  0.7816164E-02  0.1266605E+00
        -11   -1    0    0    0    0  0.00000000000E+00  0.00000000000E+00  0.45593999997E+02  0.45594000000E+02  0.51100000000E-03 0. -1.
         11   -1    0    0    0    0 -0.00000000000E+00 -0.00000000000E+00 -0.45593999997E+02  0.45594000000E+02  0.51100000000E-03 0.  1.
    9900012    2    1    2    0    0 -0.75378771573E+00  0.10574334491E+02 -0.30072165401E+02  0.59301954811E+02  0.50000019667E+02 0.  0.
         12    1    1    2    0    0  0.75378771573E+00 -0.10574334491E+02  0.30072165401E+02  0.31886045189E+02  0.00000000000E+00 0. -1.
         11    1    3    3    0    0  0.91978516473E+01  0.18374146454E+02 -0.10380546204E+02  0.23020978967E+02  0.51100000000E-03 0. -1.
        -11    1    3    3    0    0 -0.48581054359E+01 -0.15475349675E+02 -0.21460775440E+02  0.26900790300E+02  0.51100000000E-03 0.  1.
        -12    1    3    3    0    0 -0.50935339272E+01  0.76755377124E+01  0.17691562432E+01  0.93801855448E+01  0.00000000000E+00 0.  1.
</event>
<event>
 7    1  0.7578565E-012  0.5930193E+02  0.7816164E-02  0.1266605E+00
        -11   -1    0    0    0    0  0.00000000000E+00  0.00000000000E+00  0.45593999997E+02  0.45594000000E+02  0.51100000000E-03 0. -1.
         11   -1    0    0    0    0 -0.00000000000E+00 -0.00000000000E+00 -0.45593999997E+02  0.45594000000E+02  0.51100000000E-03 0.  1.
    9900012    2    1    2    0    0  0.23892745839E+02  0.20001987233E+02  0.67659903414E+01  0.59301930592E+02  0.49999975496E+02 0.  0.
         12    1    1    2    0    0 -0.23892745839E+02 -0.20001987233E+02 -0.67659903414E+01  0.31886069408E+02  0.00000000000E+00 0. -1.
         11    1    3    3    0    0  0.79905226659E+01  0.29566438439E+02  0.10107885134E+01  0.30643831812E+02  0.51100000000E-03 0.  1.
        -11    1    3    3    0    0 -0.58026624125E-01 -0.11922314201E+02  0.29581216933E+01  0.12283949984E+02  0.51100000000E-03 0. -1.
        -12    1    3    3    0    0  0.15960249798E+02  0.23578629952E+01  0.27970801347E+01  0.16374148796E+02  0.00000000000E+00 0.  1.
</event>
<event>
 7    1  0.7578565E-012  0.5930195E+02  0.7816164E-02  0.1266605E+00
        -11   -1    0    0    0    0  0.00000000000E+00  0.00000000000E+00  0.45593999997E+02  0.45594000000E+02  0.51100000000E-03 0. -1.
         11   -1    0    0    0    0 -0.00000000000E+00 -0.00000000000E+00 -0.45593999997E+02  0.45594000000E+02  0.51100000000E-03 0.  1.
    9900012    2    1    2    0    0 -0.25539758947E+02  0.15212287196E+02 -0.11533730811E+02  0.59301954224E+02  0.50000018596E+02 0.  0.
         12    1    1    2    0    0  0.25539758947E+02 -0.15212287196E+02  0.11533730811E+02  0.31886045776E+02  0.00000000000E+00 0. -1.
         11    1    3    3    0    0 -0.13936611628E+02 -0.59368393035E+01 -0.25772158815E+02  0.29894470640E+02  0.51100000000E-03 0. -1.
        -11    1    3    3    0    0 -0.17957756200E+00  0.35949952444E+01 -0.71944460200E+00  0.36706729225E+01  0.51100000000E-03 0.  1.
         12    1    3    3    0    0 -0.11423569758E+02  0.17554131255E+02  0.14957872606E+02  0.25736810662E+02  0.00000000000E+00 0. -1.
</event>
<event>
 7    1  0.7578565E-012  0.5930191E+02  0.7816164E-02  0.1266605E+00
        -11   -1    0    0    0    0  0.00000000000E+00  0.00000000000E+00  0.45593999997E+02  0.45594000000E+02  0.51100000000E-03 0.  1.
         11   -1    0    0    0    0 -0.00000000000E+00 -0.00000000000E+00 -0.45593999997E+02  0.45594000000E+02  0.51100000000E-03 0. -1.
    9900012    2    1    2    0    0  0.19709256862E+02  0.25061388219E+02 -0.44146372595E+00  0.59301907801E+02  0.49999933931E+02 0.  0.
         12    1    1    2    0    0 -0.19709256862E+02 -0.25061388219E+02  0.44146372595E+00  0.31886092199E+02  0.00000000000E+00 0. -1.
         11    1    3    3    0    0 -0.65771505363E+01  0.18913337634E+02  0.15184901117E+02  0.25130747538E+02  0.51100000000E-03 0. -1.
        -11    1    3    3    0    0  0.15231402448E+02  0.31023408867E+01 -0.98698685620E+00  0.15575438447E+02  0.51100000000E-03 0.  1.
         12    1    3    3    0    0  0.11055004951E+02  0.30457096981E+01 -0.14639377986E+02  0.18595721816E+02  0.00000000000E+00 0. -1.
</event>
<event>
 7    1  0.7578565E-012  0.5930195E+02  0.7816164E-02  0.1266605E+00
        -11   -1    0    0    0    0  0.00000000000E+00  0.00000000000E+00  0.45593999997E+02  0.45594000000E+02  0.51100000000E-03 0.  1.
         11   -1    0    0    0    0 -0.00000000000E+00 -0.00000000000E+00 -0.45593999997E+02  0.45594000000E+02  0.51100000000E-03 0. -1.
    9900012    2    1    2    0    0  0.85998480509E+01  0.25607163977E+01  0.30597474387E+02  0.59301951423E+02  0.50000013488E+02 0.  0.
         12    1    1    2    0    0 -0.85998480509E+01 -0.25607163977E+01 -0.30597474387E+02  0.31886048577E+02  0.00000000000E+00 0. -1.
         11    1    3    3    0    0  0.27613290282E+01 -0.14024631623E+02  0.11619796505E+02  0.18421045064E+02  0.51100000000E-03 0. -1.
        -11    1    3    3    0    0  0.16087170138E+02  0.12064205565E+02  0.15554112117E+01  0.20168326734E+02  0.51100000000E-03 0.  1.
        -12    1    3    3    0    0 -0.10248651115E+02  0.45211424561E+01  0.17422266670E+02  0.20712579625E+02  0.00000000000E+00 0.  1.
</event>
<event>
 7    1  0.7578565E-012  0.5930201E+02  0.7816164E-02  0.1266605E+00
        -11   -1    0    0    0    0  0.00000000000E+00  0.00000000000E+00  0.45593999997E+02  0.45594000000E+02  0.51100000000E-03 0.  1.
         11   -1    0    0    0    0 -0.00000000000E+00 -0.00000000000E+00 -0.45593999997E+02  0.45594000000E+02  0.51100000000E-03 0. -1.
    9900012    2    1    2    0    0  0.15170100490E+02  0.20815540193E+02  0.18796222702E+02  0.59302005421E+02  0.50000111967E+02 0.  0.
         12    1    1    2    0    0 -0.15170100490E+02 -0.20815540193E+02 -0.18796222702E+02  0.31885994579E+02  0.00000000000E+00 0. -1.
         11    1    3    3    0    0  0.11982765085E+02  0.21007590348E+02 -0.11871176546E+02  0.26941238728E+02  0.51100000000E-03 0. -1.
        -11    1    3    3    0    0  0.41274155051E+01  0.31316802862E+01  0.87186218420E+01  0.10141861133E+02  0.51100000000E-03 0.  1.
         12    1    3    3    0    0 -0.94008009997E+00 -0.33237304414E+01  0.21948777407E+02  0.22218905560E+02  0.00000000000E+00 0. -1.
</event>
<event>
 7    1  0.7578565E-012  0.5930194E+02  0.7816164E-02  0.1266605E+00
        -11   -1    0    0    0    0  0.00000000000E+00  0.00000000000E+00  0.45593999997E+02  0.45594000000E+02  0.51100000000E-03 0.  1.
         11   -1    0    0    0    0 -0.00000000000E+00 -0.00000000000E+00 -0.45593999997E+02  0.45594000000E+02  0.51100000000E-03 0. -1.
    9900012    2    1    2    0    0 -0.15361383532E+02 -0.24240327580E+02  0.13898028943E+02  0.59301940449E+02  0.49999993474E+02 0.  0.
         12    1    1    2    0    0  0.15361383532E+02  0.24240327580E+02 -0.13898028943E+02  0.31886059551E+02  0.00000000000E+00 0. -1.
         11    1    3    3    0    0  0.24382002533E+01  0.47514678602E+01  0.36853977090E+01  0.64887151145E+01  0.51100000000E-03 0. -1.
        -11    1    3    3    0    0 -0.25856204873E+02 -0.32198711077E+02  0.27739159302E+01  0.41388342988E+02  0.51100000000E-03 0.  1.
        -12    1    3    3    0    0  0.80566210885E+01  0.32069156371E+01  0.74387153034E+01  0.11424882347E+02  0.00000000000E+00 0.  1.
</event>
<event>
 7    1  0.7578565E-012  0.5930191E+02  0.7816164E-02  0.1266605E+00
        -11   -1    0    0    0    0  0.00000000000E+00  0.00000000000E+00  0.45593999997E+02  0.45594000000E+02  0.51100000000E-03 0.  1.
         11   -1    0    0    0    0 -0.00000000000E+00 -0.00000000000E+00 -0.45593999997E+02  0.45594000000E+02  0.51100000000E-03 0. -1.
    9900012    2    1    2    0    0  0.10155496304E+02  0.29894302257E+02  0.44631070857E+01  0.59301909969E+02  0.49999937884E+02 0.  0.
         12    1    1    2    0    0 -0.10155496304E+02 -0.29894302257E+02 -0.44631070857E+01  0.31886090031E+02  0.00000000000E+00 0. -1.
         11    1    3    3    0    0  0.22732571556E+00  0.24697596779E+02 -0.12303098938E+02  0.27593281925E+02  0.51100000000E-03 0. -1.
        -11    1    3    3    0    0 -0.49761488653E+01  0.36601812906E-01  0.15040324752E+02  0.15842183124E+02  0.51100000000E-03 0.  1.
        -12    1    3    3    0    0  0.14904319454E+02  0.51601036650E+01  0.17258812718E+01  0.15866444920E+02  0.00000000000E+00 0.  1.
</event>
<event>
 7    1  0.7578565E-012  0.5930196E+02  0.7816164E-02  0.1266605E+00
        -11   -1    0    0    0    0  0.00000000000E+00  0.00000000000E+00  0.45593999997E+02  0.45594000000E+02  0.51100000000E-03 0.  1.
         11   -1    0    0    0    0 -0.00000000000E+00 -0.00000000000E+00 -0.45593999997E+02  0.45594000000E+02  0.51100000000E-03 0. -1.
    9900012    2    1    2    0    0  0.24188569756E+02 -0.17523172611E+02  0.11161139938E+02  0.59301960266E+02  0.50000029615E+02 0.  0.
         12    1    1    2    0    0 -0.24188569756E+02  0.17523172611E+02 -0.11161139938E+02  0.31886039734E+02  0.00000000000E+00 0. -1.
         11    1    3    3    0    0 -0.84043167641E+01 -0.94779820270E+01  0.10729341281E+02  0.16600706255E+02  0.51100000000E-03 0.  1.
        -11    1    3    3    0    0  0.17724455407E+02 -0.12343606693E+02 -0.10237881597E+02  0.23902618382E+02  0.51100000000E-03 0. -1.
        -12    1    3    3    0    0  0.14868431113E+02  0.42984161094E+01  0.10669680254E+02  0.18798635630E+02  0.00000000000E+00 0.  1.
</event>
<event>
 7    1  0.7578565E-012  0.5930195E+02  0.7816164E-02  0.1266605E+00
        -11   -1    0    0    0    0  0.00000000000E+00  0.00000000000E+00  0.45593999997E+02  0.45594000000E+02  0.51100000000E-03 0. -1.
         11   -1    0    0    0    0 -0.00000000000E+00 -0.00000000000E+00 -0.45593999997E+02  0.45594000000E+02  0.51100000000E-03 0.  1.
    9900012    2    1    2    0    0 -0.29125430094E+02 -0.12720082602E+01 -0.12915561547E+02  0.59301946414E+02  0.50000004352E+02 0.  0.
         12    1    1    2    0    0  0.29125430094E+02  0.12720082602E+01  0.12915561547E+02  0.31886053586E+02  0.00000000000E+00 0. -1.
         11    1    3    3    0    0 -0.14222149971E+02  0.80205477692E+01  0.88135447379E+01  0.18554711192E+02  0.51100000000E-03 0. -1.
        -11    1    3    3    0    0  0.19765776400E+01 -0.60784104521E+01 -0.22654779044E+02  0.23539178970E+02  0.51100000000E-03 0.  1.
        -12    1    3    3    0    0 -0.16879857763E+02 -0.32141455773E+01  0.92567275930E+00  0.17208056252E+02  0.00000000000E+00 0.  1.
</event>
<event>
 7    1  0.7578565E-012  0.5930193E+02  0.7816164E-02  0.1266605E+00
        -11   -1    0    0    0    0  0.00000000000E+00  0.00000000000E+00  0.45593999997E+02  0.45594000000E+02  0.51100000000E-03 0.  1.
         11   -1    0    0    0    0 -0.00000000000E+00 -0.00000000000E+00 -0.45593999997E+02  0.45594000000E+02  0.51100000000E-03 0. -1.
    9900012    2    1    2    0    0 -0.22617316543E+02 -0.13393583550E+02  0.18049656704E+02  0.59301934155E+02  0.49999981995E+02 0.  0.
         12    1    1    2    0    0  0.22617316543E+02  0.13393583550E+02 -0.18049656704E+02  0.31886065845E+02  0.00000000000E+00 0. -1.
         11    1    3    3    0    0  0.18601370865E+01  0.14868013264E+02  0.72329364615E+01  0.16638308163E+02  0.51100000000E-03 0. -1.
        -11    1    3    3    0    0 -0.23961127247E+02 -0.20869146051E+02  0.30378433669E+01  0.31919983841E+02  0.51100000000E-03 0.  1.
        -12    1    3    3    0    0 -0.51632638293E+00 -0.73924507635E+01  0.77788768756E+01  0.10743642151E+02  0.00000000000E+00 0.  1.
</event>
<event>
 7    1  0.7578565E-012  0.5930197E+02  0.7816164E-02  0.1266605E+00
        -11   -1    0    0    0    0  0.00000000000E+00  0.00000000000E+00  0.45593999997E+02  0.45594000000E+02  0.51100000000E-03 0.  1.
         11   -1    0    0    0    0 -0.00000000000E+00 -0.00000000000E+00 -0.45593999997E+02  0.45594000000E+02  0.51100000000E-03 0. -1.
    9900012    2    1    2    0    0 -0.29262120984E+01  0.15844549926E+02 -0.27515566072E+02  0.59301970836E+02  0.50000048892E+02 0.  0.
         12    1    1    2    0    0  0.29262120984E+01 -0.15844549926E+02  0.27515566072E+02  0.31886029164E+02  0.00000000000E+00 0. -1.
         11    1    3    3    0    0 -0.13548306719E+02  0.18229331951E+01  0.47195169772E+01  0.14462141651E+02  0.51100000000E-03 0.  1.
        -11    1    3    3    0    0  0.68502877931E+01  0.14417000135E+02 -0.36071517230E+02  0.39445287314E+02  0.51100000000E-03 0. -1.
         12    1    3    3    0    0  0.37718068272E+01 -0.39538340429E+00  0.38364341810E+01  0.53945418715E+01  0.00000000000E+00 0. -1.
</event>
<event>
 7    1  0.7578565E-012  0.5930193E+02  0.7816164E-02  0.1266605E+00
        -11   -1    0    0    0    0  0.00000000000E+00  0.00000000000E+00  0.45593999997E+02  0.45594000000E+02  0.51100000000E-03 0.  1.
         11   -1    0    0    0    0 -0.00000000000E+00 -0.00000000000E+00 -0.45593999997E+02  0.45594000000E+02  0.51100000000E-03 0. -1.
    9900012    2    1    2    0    0 -0.31141100437E+02  0.44318787522E+01 -0.52260531210E+01  0.59301932244E+02  0.49999978509E+02 0.  0.
         12    1    1    2    0    0  0.31141100437E+02 -0.44318787522E+01  0.52260531210E+01  0.31886067756E+02  0.00000000000E+00 0. -1.
         11    1    3    3    0    0 -0.92424684038E+01 -0.12519472009E+02 -0.35345461697E+01  0.15957863844E+02  0.51100000000E-03 0. -1.
        -11    1    3    3    0    0  0.29504641336E+01  0.15725592623E+02  0.63254802247E+01  0.17204976091E+02  0.51100000000E-03 0.  1.
        -12    1    3    3    0    0 -0.24849096167E+02  0.12257581380E+01 -0.80169871760E+01  0.26139092309E+02  0.00000000000E+00 0.  1.
</event>
<event>
 7    1  0.7578565E-012  0.5930192E+02  0.7816164E-02  0.1266605E+00
        -11   -1    0    0    0    0  0.00000000000E+00  0.00000000000E+00  0.45593999997E+02  0.45594000000E+02  0.51100000000E-03 0.  1.
         11   -1    0    0    0    0 -0.00000000000E+00 -0.00000000000E+00 -0.45593999997E+02  0.45594000000E+02  0.51100000000E-03 0. -1.
    9900012    2    1    2    0    0  0.20092156330E+02  0.61018788553E+01  0.23995715219E+02  0.59301921212E+02  0.49999958390E+02 0.  0.
         12    1    1    2    0    0 -0.20092156330E+02 -0.61018788553E+01 -0.23995715219E+02  0.31886078788E+02  0.00000000000E+00 0. -1.
         11    1    3    3    0    0  0.74375386710E+01 -0.16237138324E+02  0.19760596940E+01  0.17968485039E+02  0.51100000000E-03 0. -1.
        -11    1    3    3    0    0  0.18160490366E+02  0.19412445808E+02  0.22836267001E+02  0.35044850597E+02  0.51100000000E-03 0.  1.
         12    1    3    3    0    0 -0.55058727068E+01  0.29265713706E+01 -0.81661147514E+00  0.62885855764E+01  0.00000000000E+00 0. -1.
</event>
<event>
 7    1  0.7578565E-012  0.5930192E+02  0.7816164E-02  0.1266605E+00
        -11   -1    0    0    0    0  0.00000000000E+00  0.00000000000E+00  0.45593999997E+02  0.45594000000E+02  0.51100000000E-03 0.  1.
         11   -1    0    0    0    0 -0.00000000000E+00 -0.00000000000E+00 -0.45593999997E+02  0.45594000000E+02  0.51100000000E-03 0. -1.
    9900012    2    1    2    0    0  0.11996576470E+02  0.21774443460E+01  0.29462906120E+02  0.59301922350E+02  0.49999960464E+02 0.  0.
         12    1    1    2    0    0 -0.11996576470E+02 -0.21774443460E+01 -0.29462906120E+02  0.31886077650E+02  0.00000000000E+00 0. -1.
         11    1    3    3    0    0  0.65969029892E+01 -0.65707485968E+01 -0.10114733207E+02  0.13747788705E+02  0.51100000000E-03 0. -1.
        -11    1    3    3    0    0 -0.65013990950E+01  0.73043034192E+01  0.11973690374E+02  0.15459311112E+02  0.51100000000E-03 0.  1.
         12    1    3    3    0    0  0.11901072576E+02  0.14438895237E+01  0.27603948954E+02  0.30094822532E+02  0.00000000000E+00 0. -1.
</event>
<event>
 7    1  0.7578565E-012  0.5930193E+02  0.7816164E-02  0.1266605E+00
        -11   -1    0    0    0    0  0.00000000000E+00  0.00000000000E+00  0.45593999997E+02  0.45594000000E+02  0.51100000000E-03 0. -1.
         11   -1    0    0    0    0 -0.00000000000E+00 -0.00000000000E+00 -0.45593999997E+02  0.45594000000E+02  0.51100000000E-03 0.  1.
    9900012    2    1    2    0    0  0.26995656610E+02 -0.10709026881E+02 -0.13163299859E+02  0.59301934145E+02  0.49999981976E+02 0.  0.
         12    1    1    2    0    0 -0.26995656610E+02  0.10709026881E+02  0.13163299859E+02  0.31886065855E+02  0.00000000000E+00 0. -1.
         11    1    3    3    0    0  0.42862817708E+01  0.98776972613E+01 -0.55969741363E+01  0.12135371208E+02  0.51100000000E-03 0. -1.
        -11    1    3    3    0    0  0.25455380651E+02 -0.94855563402E+01  0.75659007184E+01  0.28199202774E+02  0.51100000000E-03 0.  1.
        -12    1    3    3    0    0 -0.27460058117E+01 -0.11101167802E+02 -0.15132226441E+02  0.18967360163E+02  0.00000000000E+00 0.  1.
</event>
<event>
 7    1  0.7578565E-012  0.5930194E+02  0.7816164E-02  0.1266605E+00
        -11   -1    0    0    0    0  0.00000000000E+00  0.00000000000E+00  0.45593999997E+02  0.45594000000E+02  0.51100000000E-03 0.  1.
         11   -1    0    0    0    0 -0.00000000000E+00 -0.00000000000E+00 -0.45593999997E+02  0.45594000000E+02  0.51100000000E-03 0. -1.
    9900012    2    1    2    0    0 -0.22974173713E+01 -0.17314603260E+02  0.26676714795E+02  0.59301941528E+02  0.49999995441E+02 0.  0.
         12    1    1    2    0    0  0.22974173713E+01  0.17314603260E+02 -0.26676714795E+02  0.31886058472E+02  0.00000000000E+00 0. -1.
         11    1    3    3    0    0 -0.93256963498E+01  0.15076632427E+01 -0.14194854604E+01  0.95528320458E+01  0.51100000000E-03 0.  1.
        -11    1    3    3    0    0 -0.43979771322E+01 -0.26024510597E+02  0.23897343578E+02  0.35604780368E+02  0.51100000000E-03 0. -1.
        -12    1    3    3    0    0  0.11426256111E+02  0.72022440945E+01  0.41988566770E+01  0.14144329114E+02  0.00000000000E+00 0.  1.
</event>
<event>
 7    1  0.7578565E-012  0.5930195E+02  0.7816164E-02  0.1266605E+00
        -11   -1    0    0    0    0  0.00000000000E+00  0.00000000000E+00  0.45593999997E+02  0.45594000000E+02  0.51100000000E-03 0.  1.
         11   -1    0    0    0    0 -0.00000000000E+00 -0.00000000000E+00 -0.45593999997E+02  0.45594000000E+02  0.51100000000E-03 0. -1.
    9900012    2    1    2    0    0  0.10696015848E+02  0.94928984372E+01  0.28499131390E+02  0.59301947159E+02  0.50000005712E+02 0.  0.
         12    1    1    2    0    0 -0.10696015848E+02 -0.94928984372E+01 -0.28499131390E+02  0.31886052841E+02  0.00000000000E+00 0. -1.
         11    1    3    3    0    0 -0.74228837108E+01 -0.40851150739E+01 -0.39493677272E+01  0.93479876688E+01  0.51100000000E-03 0. -1.
        -11    1    3    3    0    0 -0.37302827753E+01  0.14537589862E+02  0.19251177058E+02  0.24410332791E+02  0.51100000000E-03 0.  1.
        -12    1    3    3    0    0  0.21849182334E+02 -0.95957635070E+00  0.13197322059E+02  0.25543626700E+02  0.00000000000E+00 0.  1.
</event>
<event>
 7    1  0.7578565E-012  0.5930203E+02  0.7816164E-02  0.1266604E+00
        -11   -1    0    0    0    0  0.00000000000E+00  0.00000000000E+00  0.45593999997E+02  0.45594000000E+02  0.51100000000E-03 0.  1.
         11   -1    0    0    0    0 -0.00000000000E+00 -0.00000000000E+00 -0.45593999997E+02  0.45594000000E+02  0.51100000000E-03 0. -1.
    9900012    2    1    2    0    0  0.66802753711E+00 -0.67020894690E+01  0.31166504895E+02  0.59302026730E+02  0.50000150828E+02 0.  0.
         12    1    1    2    0    0 -0.66802753711E+00  0.67020894690E+01 -0.31166504895E+02  0.31885973270E+02  0.00000000000E+00 0. -1.
         11    1    3    3    0    0  0.70455427585E+01 -0.43156485834E+01 -0.80527234512E+01  0.11537367581E+02  0.51100000000E-03 0. -1.
        -11    1    3    3    0    0 -0.15766326732E+02 -0.63939828619E+01  0.23214557719E+02  0.28781517781E+02  0.51100000000E-03 0.  1.
        -12    1    3    3    0    0  0.93888115106E+01  0.40075419763E+01  0.16004670628E+02  0.18983141367E+02  0.00000000000E+00 0.  1.
</event>
<event>
 7    1  0.7578565E-012  0.5930214E+02  0.7816164E-02  0.1266604E+00
        -11   -1    0    0    0    0  0.00000000000E+00  0.00000000000E+00  0.45593999997E+02  0.45594000000E+02  0.51100000000E-03 0. -1.
         11   -1    0    0    0    0 -0.00000000000E+00 -0.00000000000E+00 -0.45593999997E+02  0.45594000000E+02  0.51100000000E-03 0.  1.
    9900012    2    1    2    0    0  0.26374136688E+02 -0.17796483734E+02 -0.20972438994E+01  0.59302135556E+02  0.50000349301E+02 0.  0.
         12    1    1    2    0    0 -0.26374136688E+02  0.17796483734E+02  0.20972438994E+01  0.31885864444E+02  0.00000000000E+00 0. -1.
         11    1    3    3    0    0  0.12082977750E+02 -0.26072904023E+02  0.83973185986E+01  0.29938430744E+02  0.51100000000E-03 0. -1.
        -11    1    3    3    0    0  0.52907020223E+01  0.14003066631E+02 -0.11165583380E+02  0.18674786623E+02  0.51100000000E-03 0.  1.
        -12    1    3    3    0    0  0.90004569163E+01 -0.57266463421E+01  0.67102088153E+00  0.10688918189E+02  0.00000000000E+00 0.  1.
</event>
<event>
 7    1  0.7578565E-012  0.5930192E+02  0.7816164E-02  0.1266605E+00
        -11   -1    0    0    0    0  0.00000000000E+00  0.00000000000E+00  0.45593999997E+02  0.45594000000E+02  0.51100000000E-03 0.  1.
         11   -1    0    0    0    0 -0.00000000000E+00 -0.00000000000E+00 -0.45593999997E+02  0.45594000000E+02  0.51100000000E-03 0. -1.
    9900012    2    1    2    0    0 -0.28440597309E+02 -0.10737082301E+02  0.96213171786E+01  0.59301917520E+02  0.49999951657E+02 0.  0.
         12    1    1    2    0    0  0.28440597309E+02  0.10737082301E+02 -0.96213171786E+01  0.31886082480E+02  0.00000000000E+00 0. -1.
         11    1    3    3    0    0  0.70286058093E+01 -0.16917629599E+02  0.64274554488E+00  0.18330865036E+02  0.51100000000E-03 0. -1.
        -11    1    3    3    0    0 -0.30169507306E+02 -0.16601518823E+01  0.89299714191E+01  0.31507136734E+02  0.51100000000E-03 0.  1.
         12    1    3    3    0    0 -0.52996958129E+01  0.78406991807E+01  0.48600214679E-01  0.94639157505E+01  0.00000000000E+00 0. -1.
</event>
<event>
 7    1  0.7578565E-012  0.5930194E+02  0.7816164E-02  0.1266605E+00
        -11   -1    0    0    0    0  0.00000000000E+00  0.00000000000E+00  0.45593999997E+02  0.45594000000E+02  0.51100000000E-03 0. -1.
         11   -1    0    0    0    0 -0.00000000000E+00 -0.00000000000E+00 -0.45593999997E+02  0.45594000000E+02  0.51100000000E-03 0.  1.
    9900012    2    1    2    0    0 -0.28896968474E+02  0.66309425539E+01  0.11735286137E+02  0.59301935225E+02  0.49999983946E+02 0.  0.
         12    1    1    2    0    0  0.28896968474E+02 -0.66309425539E+01 -0.11735286137E+02  0.31886064775E+02  0.00000000000E+00 0. -1.
         11    1    3    3    0    0 -0.14836434584E+02  0.20910718439E+02 -0.14051518676E+01  0.25677857949E+02  0.51100000000E-03 0. -1.
        -11    1    3    3    0    0  0.18806646287E+01 -0.14496479267E+02  0.36363476606E+01  0.15063460265E+02  0.51100000000E-03 0.  1.
        -12    1    3    3    0    0 -0.15941198518E+02  0.21670338144E+00  0.95040903437E+01  0.18560617011E+02  0.00000000000E+00 0.  1.
</event>
<event>
 7    1  0.7578565E-012  0.5930211E+02  0.7816164E-02  0.1266604E+00
        -11   -1    0    0    0    0  0.00000000000E+00  0.00000000000E+00  0.45593999997E+02  0.45594000000E+02  0.51100000000E-03 0. -1.
         11   -1    0    0    0    0 -0.00000000000E+00 -0.00000000000E+00 -0.45593999997E+02  0.45594000000E+02  0.51100000000E-03 0.  1.
    9900012    2    1    2    0    0 -0.13262099808E+01  0.28860376987E+02 -0.13491847135E+02  0.59302107635E+02  0.50000298380E+02 0.  0.
         12    1    1    2    0    0  0.13262099808E+01 -0.28860376987E+02  0.13491847135E+02  0.31885892365E+02  0.00000000000E+00 0. -1.
         11    1    3    3    0    0 -0.14252016385E+02  0.10699655255E+02 -0.12550129991E+02  0.21796980449E+02  0.51100000000E-03 0. -1.
        -11    1    3    3    0    0  0.13607353485E+02 -0.78571319820E+00 -0.95913826542E+01  0.16666494400E+02  0.51100000000E-03 0.  1.
         12    1    3    3    0    0 -0.68154708029E+00  0.18946434931E+02  0.86496655103E+01  0.20838632787E+02  0.00000000000E+00 0. -1.
</event>
<event>
 7    1  0.7578565E-012  0.5930196E+02  0.7816164E-02  0.1266605E+00
        -11   -1    0    0    0    0  0.00000000000E+00  0.00000000000E+00  0.45593999997E+02  0.45594000000E+02  0.51100000000E-03 0.  1.
         11   -1    0    0    0    0 -0.00000000000E+00 -0.00000000000E+00 -0.45593999997E+02  0.45594000000E+02  0.51100000000E-03 0. -1.
    9900012    2    1    2    0    0  0.15961026178E+02 -0.27357180866E+02  0.36810228322E+01  0.59301958685E+02  0.50000026732E+02 0.  0.
         12    1    1    2    0    0 -0.15961026178E+02  0.27357180866E+02 -0.36810228322E+01  0.31886041315E+02  0.00000000000E+00 0. -1.
         11    1    3    3    0    0  0.31143537466E+01 -0.56054068017E+00 -0.95855418787E+01  0.10094355774E+02  0.51100000000E-03 0. -1.
        -11    1    3    3    0    0  0.75017433289E+01 -0.35327342245E+02  0.14789974735E+02  0.39026152974E+02  0.51100000000E-03 0.  1.
        -12    1    3    3    0    0  0.53449291030E+01  0.85307020585E+01 -0.15234100242E+01  0.10181449937E+02  0.00000000000E+00 0.  1.
</event>
<event>
 7    1  0.7578565E-012  0.5930192E+02  0.7816164E-02  0.1266605E+00
        -11   -1    0    0    0    0  0.00000000000E+00  0.00000000000E+00  0.45593999997E+02  0.45594000000E+02  0.51100000000E-03 0. -1.
         11   -1    0    0    0    0 -0.00000000000E+00 -0.00000000000E+00 -0.45593999997E+02  0.45594000000E+02  0.51100000000E-03 0.  1.
    9900012    2    1    2    0    0 -0.92958437863E+01 -0.93752618715E+01 -0.29024371027E+02  0.59301915883E+02  0.49999948670E+02 0.  0.
         12    1    1    2    0    0  0.92958437863E+01  0.93752618715E+01  0.29024371027E+02  0.31886084117E+02  0.00000000000E+00 0. -1.
         11    1    3    3    0    0  0.79780911617E+01 -0.11544042291E+02  0.15052649688E+01  0.14113138343E+02  0.51100000000E-03 0. -1.
        -11    1    3    3    0    0 -0.70775728781E+01  0.14113988662E+02 -0.22670348948E+02  0.27626824564E+02  0.51100000000E-03 0.  1.
        -12    1    3    3    0    0 -0.10196362070E+02 -0.11945208242E+02 -0.78592870470E+01  0.17561952975E+02  0.00000000000E+00 0.  1.
</event>
<event>
 7    1  0.7578565E-012  0.5930155E+02  0.7816164E-02  0.1266606E+00
        -11   -1    0    0    0    0  0.00000000000E+00  0.00000000000E+00  0.45593999997E+02  0.45594000000E+02  0.51100000000E-03 0. -1.
         11   -1    0    0    0    0 -0.00000000000E+00 -0.00000000000E+00 -0.45593999997E+02  0.45594000000E+02  0.51100000000E-03 0.  1.
    9900012    2    1    2    0    0 -0.24566917783E+02  0.18361391620E+02  0.87218985481E+01  0.59301550435E+02  0.49999282176E+02 0.  0.
         12    1    1    2    0    0  0.24566917783E+02 -0.18361391620E+02 -0.87218985481E+01  0.31886449565E+02  0.00000000000E+00 0. -1.
         11    1    3    3    0    0  0.60896199179E+01 -0.10824678358E+02  0.65795954088E+01  0.14055184393E+02  0.51100000000E-03 0. -1.
        -11    1    3    3    0    0 -0.25796205142E+02  0.19980088762E+02  0.75853492003E+01  0.33499039829E+02  0.51100000000E-03 0.  1.
         12    1    3    3    0    0 -0.48603325587E+01  0.92059812164E+01 -0.54430460610E+01  0.11747326213E+02  0.00000000000E+00 0. -1.
</event>
<event>
 7    1  0.7578565E-012  0.5930195E+02  0.7816164E-02  0.1266605E+00
        -11   -1    0    0    0    0  0.00000000000E+00  0.00000000000E+00  0.45593999997E+02  0.45594000000E+02  0.51100000000E-03 0.  1.
         11   -1    0    0    0    0 -0.00000000000E+00 -0.00000000000E+00 -0.45593999997E+02  0.45594000000E+02  0.51100000000E-03 0. -1.
    9900012    2    1    2    0    0 -0.15485442125E+01 -0.12379253568E+02  0.29344100491E+02  0.59301950673E+02  0.50000012119E+02 0.  0.
         12    1    1    2    0    0  0.15485442125E+01  0.12379253568E+02 -0.29344100491E+02  0.31886049327E+02  0.00000000000E+00 0. -1.
         11    1    3    3    0    0 -0.13638398683E+02 -0.20311511234E+01  0.37613842979E+02  0.40061611019E+02  0.51100000000E-03 0.  1.
        -11    1    3    3    0    0  0.12833003042E+02 -0.87447259160E+01 -0.79447215820E+01  0.17443474416E+02  0.51100000000E-03 0. -1.
        -12    1    3    3    0    0 -0.74314857212E+00 -0.16033765289E+01 -0.32502090581E+00  0.17968652378E+01  0.00000000000E+00 0.  1.
</event>
<event>
 7    1  0.7578565E-012  0.5930198E+02  0.7816164E-02  0.1266605E+00
        -11   -1    0    0    0    0  0.00000000000E+00  0.00000000000E+00  0.45593999997E+02  0.45594000000E+02  0.51100000000E-03 0.  1.
         11   -1    0    0    0    0 -0.00000000000E+00 -0.00000000000E+00 -0.45593999997E+02  0.45594000000E+02  0.51100000000E-03 0. -1.
    9900012    2    1    2    0    0  0.25918369390E+02  0.17342680794E+01  0.18491850409E+02  0.59301982858E+02  0.50000070817E+02 0.  0.
         12    1    1    2    0    0 -0.25918369390E+02 -0.17342680794E+01 -0.18491850409E+02  0.31886017142E+02  0.00000000000E+00 0. -1.
         11    1    3    3    0    0  0.10148211633E+02  0.29578636065E+01 -0.14737556139E+02  0.18136447218E+02  0.51100000000E-03 0. -1.
        -11    1    3    3    0    0 -0.21878793150E+01  0.15998216900E+01  0.15630208546E+02  0.15863469507E+02  0.51100000000E-03 0.  1.
         12    1    3    3    0    0  0.17958037072E+02 -0.28234172172E+01  0.17599198003E+02  0.25302066133E+02  0.00000000000E+00 0. -1.
</event>
<event>
 7    1  0.7578565E-012  0.5930201E+02  0.7816164E-02  0.1266605E+00
        -11   -1    0    0    0    0  0.00000000000E+00  0.00000000000E+00  0.45593999997E+02  0.45594000000E+02  0.51100000000E-03 0.  1.
         11   -1    0    0    0    0 -0.00000000000E+00 -0.00000000000E+00 -0.45593999997E+02  0.45594000000E+02  0.51100000000E-03 0. -1.
    9900012    2    1    2    0    0 -0.17365789017E+02  0.26540033786E+02 -0.32820945145E+01  0.59302013016E+02  0.50000125818E+02 0.  0.
         12    1    1    2    0    0  0.17365789017E+02 -0.26540033786E+02  0.32820945145E+01  0.31885986984E+02  0.00000000000E+00 0. -1.
         11    1    3    3    0    0  0.85267623960E+01  0.85344640511E+01  0.78289001383E+00  0.12089485954E+02  0.51100000000E-03 0.  1.
        -11    1    3    3    0    0 -0.33818056069E+02  0.15295607591E+02 -0.79836411260E+01  0.37965182124E+02  0.51100000000E-03 0. -1.
         12    1    3    3    0    0  0.79255046555E+01  0.27099621440E+01  0.39186565977E+01  0.92473449377E+01  0.00000000000E+00 0. -1.
</event>
<event>
 7    1  0.7578565E-012  0.5930194E+02  0.7816164E-02  0.1266605E+00
        -11   -1    0    0    0    0  0.00000000000E+00  0.00000000000E+00  0.45593999997E+02  0.45594000000E+02  0.51100000000E-03 0. -1.
         11   -1    0    0    0    0 -0.00000000000E+00 -0.00000000000E+00 -0.45593999997E+02  0.45594000000E+02  0.51100000000E-03 0.  1.
    9900012    2    1    2    0    0  0.23863119005E+02 -0.87273784037E+01 -0.19264094295E+02  0.59301938603E+02  0.49999990106E+02 0.  0.
         12    1    1    2    0    0 -0.23863119005E+02  0.87273784037E+01  0.19264094295E+02  0.31886061397E+02  0.00000000000E+00 0. -1.
         11    1    3    3    0    0  0.66121135847E+01  0.23191955223E+01 -0.24382489255E+02  0.25369361373E+02  0.51100000000E-03 0. -1.
        -11    1    3    3    0    0  0.19088264077E+02 -0.82203027289E+01 -0.65470190613E+01  0.21789875201E+02  0.51100000000E-03 0.  1.
         12    1    3    3    0    0 -0.18372586572E+01 -0.28262711972E+01  0.11665414022E+02  0.12142702028E+02  0.00000000000E+00 0. -1.
</event>
<event>
 7    1  0.7578565E-012  0.5930194E+02  0.7816164E-02  0.1266605E+00
        -11   -1    0    0    0    0  0.00000000000E+00  0.00000000000E+00  0.45593999997E+02  0.45594000000E+02  0.51100000000E-03 0.  1.
         11   -1    0    0    0    0 -0.00000000000E+00 -0.00000000000E+00 -0.45593999997E+02  0.45594000000E+02  0.51100000000E-03 0. -1.
    9900012    2    1    2    0    0  0.17284481054E+01 -0.30985600407E+02  0.73229716515E+01  0.59301939107E+02  0.49999991026E+02 0.  0.
         12    1    1    2    0    0 -0.17284481054E+01  0.30985600407E+02 -0.73229716515E+01  0.31886060893E+02  0.00000000000E+00 0. -1.
         11    1    3    3    0    0  0.92022466722E+01  0.78031138758E-01 -0.18226786448E+01  0.93813426746E+01  0.51100000000E-03 0. -1.
        -11    1    3    3    0    0 -0.15514536334E+02 -0.51364959443E+01  0.14964055134E+02  0.22158686210E+02  0.51100000000E-03 0.  1.
        -12    1    3    3    0    0  0.80407377669E+01 -0.25927135602E+02 -0.58184048379E+01  0.27761910223E+02  0.00000000000E+00 0.  1.
</event>
<event>
 7    1  0.7578565E-012  0.5930194E+02  0.7816164E-02  0.1266605E+00
        -11   -1    0    0    0    0  0.00000000000E+00  0.00000000000E+00  0.45593999997E+02  0.45594000000E+02  0.51100000000E-03 0.  1.
         11   -1    0    0    0    0 -0.00000000000E+00 -0.00000000000E+00 -0.45593999997E+02  0.45594000000E+02  0.51100000000E-03 0. -1.
    9900012    2    1    2    0    0  0.16974458460E+02  0.12159406255E+02  0.24098494704E+02  0.59301939606E+02  0.49999991935E+02 0.  0.
         12    1    1    2    0    0 -0.16974458460E+02 -0.12159406255E+02 -0.24098494704E+02  0.31886060394E+02  0.00000000000E+00 0. -1.
         11    1    3    3    0    0  0.89556797325E+01  0.49806211697E+01  0.35935175026E+02  0.37367734627E+02  0.51100000000E-03 0. -1.
        -11    1    3    3    0    0  0.10638970762E+02  0.65632011599E+01 -0.32223425233E+01  0.12909175030E+02  0.51100000000E-03 0.  1.
         12    1    3    3    0    0 -0.26201920349E+01  0.61558392536E+00 -0.86143377992E+01  0.90250299494E+01  0.00000000000E+00 0. -1.
</event>
<event>
 7    1  0.7578565E-012  0.5930193E+02  0.7816164E-02  0.1266605E+00
        -11   -1    0    0    0    0  0.00000000000E+00  0.00000000000E+00  0.45593999997E+02  0.45594000000E+02  0.51100000000E-03 0. -1.
         11   -1    0    0    0    0 -0.00000000000E+00 -0.00000000000E+00 -0.45593999997E+02  0.45594000000E+02  0.51100000000E-03 0.  1.
    9900012    2    1    2    0    0 -0.24578208230E+02 -0.17013978780E+02 -0.11097641218E+02  0.59301930403E+02  0.49999975152E+02 0.  0.
         12    1    1    2    0    0  0.24578208230E+02  0.17013978780E+02  0.11097641218E+02  0.31886069597E+02  0.00000000000E+00 0. -1.
         11    1    3    3    0    0 -0.43481411925E+01 -0.52250913406E+01  0.15486022176E+02  0.16912267573E+02  0.51100000000E-03 0. -1.
        -11    1    3    3    0    0 -0.20139335507E+02 -0.65704519283E+00 -0.10207425555E+02  0.22587963161E+02  0.51100000000E-03 0.  1.
         12    1    3    3    0    0 -0.90731530843E-01 -0.11131842247E+02 -0.16376237839E+02  0.19801699669E+02  0.00000000000E+00 0. -1.
</event>
<event>
 7    1  0.7578565E-012  0.5930197E+02  0.7816164E-02  0.1266605E+00
        -11   -1    0    0    0    0  0.00000000000E+00  0.00000000000E+00  0.45593999997E+02  0.45594000000E+02  0.51100000000E-03 0.  1.
         11   -1    0    0    0    0 -0.00000000000E+00 -0.00000000000E+00 -0.45593999997E+02  0.45594000000E+02  0.51100000000E-03 0. -1.
    9900012    2    1    2    0    0 -0.50910223716E+01  0.82822135589E+01  0.30367835866E+02  0.59301968177E+02  0.50000044043E+02 0.  0.
         12    1    1    2    0    0  0.50910223716E+01 -0.82822135589E+01 -0.30367835866E+02  0.31886031823E+02  0.00000000000E+00 0. -1.
         11    1    3    3    0    0  0.69993156646E+01  0.19830784507E+02  0.22522006219E+02  0.30813815057E+02  0.51100000000E-03 0. -1.
        -11    1    3    3    0    0 -0.70418265281E+01 -0.13010182262E+02  0.14018760697E+02  0.20380819784E+02  0.51100000000E-03 0.  1.
        -12    1    3    3    0    0 -0.50485115081E+01  0.14616113133E+01 -0.61729310502E+01  0.81073333365E+01  0.00000000000E+00 0.  1.
</event>
<event>
 7    1  0.7578565E-012  0.5930194E+02  0.7816164E-02  0.1266605E+00
        -11   -1    0    0    0    0  0.00000000000E+00  0.00000000000E+00  0.45593999997E+02  0.45594000000E+02  0.51100000000E-03 0. -1.
         11   -1    0    0    0    0 -0.00000000000E+00 -0.00000000000E+00 -0.45593999997E+02  0.45594000000E+02  0.51100000000E-03 0.  1.
    9900012    2    1    2    0    0 -0.15775893975E+02  0.19302702149E+02 -0.19880842992E+02  0.59301936288E+02  0.49999985885E+02 0.  0.
         12    1    1    2    0    0  0.15775893975E+02 -0.19302702149E+02  0.19880842992E+02  0.31886063712E+02  0.00000000000E+00 0. -1.
         11    1    3    3    0    0 -0.14146598990E+02  0.11161303245E+01  0.83551887621E+01  0.16467579950E+02  0.51100000000E-03 0. -1.
        -11    1    3    3    0    0  0.76018374582E+01 -0.54155626611E+00 -0.18070087693E+02  0.19611458014E+02  0.51100000000E-03 0.  1.
        -12    1    3    3    0    0 -0.92311324429E+01  0.18728128091E+02 -0.10165944061E+02  0.23222898325E+02  0.00000000000E+00 0.  1.
</event>
<event>
 7    1  0.7578565E-012  0.5930199E+02  0.7816164E-02  0.1266605E+00
        -11   -1    0    0    0    0  0.00000000000E+00  0.00000000000E+00  0.45593999997E+02  0.45594000000E+02  0.51100000000E-03 0. -1.
         11   -1    0    0    0    0 -0.00000000000E+00 -0.00000000000E+00 -0.45593999997E+02  0.45594000000E+02  0.51100000000E-03 0.  1.
    9900012    2    1    2    0    0  0.27777653702E+02  0.11038828226E+02 -0.11102424828E+02  0.59301990359E+02  0.50000084497E+02 0.  0.
         12    1    1    2    0    0 -0.27777653702E+02 -0.11038828226E+02  0.11102424828E+02  0.31886009641E+02  0.00000000000E+00 0. -1.
         11    1    3    3    0    0 -0.15095785293E+01 -0.98041662016E+01  0.34676085545E+01  0.10508321064E+02  0.51100000000E-03 0. -1.
        -11    1    3    3    0    0  0.16418979436E+02  0.26836941431E+02 -0.14392170807E+02  0.34596804649E+02  0.51100000000E-03 0.  1.
        -12    1    3    3    0    0  0.12868252795E+02 -0.59939470035E+01 -0.17786257504E+00  0.14196864646E+02  0.00000000000E+00 0.  1.
</event>
<event>
 7    1  0.7578565E-012  0.5930195E+02  0.7816164E-02  0.1266605E+00
        -11   -1    0    0    0    0  0.00000000000E+00  0.00000000000E+00  0.45593999997E+02  0.45594000000E+02  0.51100000000E-03 0.  1.
         11   -1    0    0    0    0 -0.00000000000E+00 -0.00000000000E+00 -0.45593999997E+02  0.45594000000E+02  0.51100000000E-03 0. -1.
    9900012    2    1    2    0    0  0.46525929526E+00 -0.10987299716E+02  0.29929636046E+02  0.59301947640E+02  0.50000006588E+02 0.  0.
         12    1    1    2    0    0 -0.46525929526E+00  0.10987299716E+02 -0.29929636046E+02  0.31886052360E+02  0.00000000000E+00 0. -1.
         11    1    3    3    0    0  0.98736385720E+01 -0.18731799348E+02  0.29180474049E+02  0.36053697612E+02  0.51100000000E-03 0. -1.
        -11    1    3    3    0    0  0.58483381070E+01  0.50474718706E+01 -0.17713193482E+00  0.77273156323E+01  0.51100000000E-03 0.  1.
         12    1    3    3    0    0 -0.15256717384E+02  0.26970277618E+01  0.92629393177E+00  0.15520934396E+02  0.00000000000E+00 0. -1.
</event>
<event>
 7    1  0.7578565E-012  0.5930195E+02  0.7816164E-02  0.1266605E+00
        -11   -1    0    0    0    0  0.00000000000E+00  0.00000000000E+00  0.45593999997E+02  0.45594000000E+02  0.51100000000E-03 0. -1.
         11   -1    0    0    0    0 -0.00000000000E+00 -0.00000000000E+00 -0.45593999997E+02  0.45594000000E+02  0.51100000000E-03 0.  1.
    9900012    2    1    2    0    0 -0.35284992909E+01  0.13625007070E+01 -0.31660916520E+02  0.59301947401E+02  0.50000006153E+02 0.  0.
         12    1    1    2    0    0  0.35284992909E+01 -0.13625007070E+01  0.31660916520E+02  0.31886052599E+02  0.00000000000E+00 0. -1.
         11    1    3    3    0    0  0.29851133231E+01 -0.18879506403E+02 -0.22614842450E+02  0.29610433345E+02  0.51100000000E-03 0. -1.
        -11    1    3    3    0    0  0.26483895464E+00  0.21278349686E+02 -0.55368335103E+01  0.21988515880E+02  0.51100000000E-03 0.  1.
        -12    1    3    3    0    0 -0.67784515687E+01 -0.10363425759E+01 -0.35092405595E+01  0.77029981766E+01  0.00000000000E+00 0.  1.
</event>
<event>
 7    1  0.7578565E-012  0.5930193E+02  0.7816164E-02  0.1266605E+00
        -11   -1    0    0    0    0  0.00000000000E+00  0.00000000000E+00  0.45593999997E+02  0.45594000000E+02  0.51100000000E-03 0. -1.
         11   -1    0    0    0    0 -0.00000000000E+00 -0.00000000000E+00 -0.45593999997E+02  0.45594000000E+02  0.51100000000E-03 0.  1.
    9900012    2    1    2    0    0  0.28587637747E+02  0.13168383742E+02  0.51050762947E+01  0.59301934606E+02  0.49999982818E+02 0.  0.
         12    1    1    2    0    0 -0.28587637747E+02 -0.13168383742E+02 -0.51050762947E+01  0.31886065394E+02  0.00000000000E+00 0. -1.
         11    1    3    3    0    0 -0.40884256246E+01 -0.72087729128E+01 -0.50109690476E+01  0.96845981875E+01  0.51100000000E-03 0. -1.
        -11    1    3    3    0    0  0.21892488122E+02 -0.10898081598E+01  0.12899217475E+02  0.25433413647E+02  0.51100000000E-03 0.  1.
         12    1    3    3    0    0  0.10783575249E+02  0.21466964814E+02 -0.27831721331E+01  0.24183922771E+02  0.00000000000E+00 0. -1.
</event>
<event>
 7    1  0.7578565E-012  0.5930194E+02  0.7816164E-02  0.1266605E+00
        -11   -1    0    0    0    0  0.00000000000E+00  0.00000000000E+00  0.45593999997E+02  0.45594000000E+02  0.51100000000E-03 0.  1.
         11   -1    0    0    0    0 -0.00000000000E+00 -0.00000000000E+00 -0.45593999997E+02  0.45594000000E+02  0.51100000000E-03 0. -1.
    9900012    2    1    2    0    0  0.20026187064E+02 -0.24635430894E+02  0.29611112120E+01  0.59301940298E+02  0.49999993199E+02 0.  0.
         12    1    1    2    0    0 -0.20026187064E+02  0.24635430894E+02 -0.29611112120E+01  0.31886059702E+02  0.00000000000E+00 0. -1.
         11    1    3    3    0    0  0.12463499681E+02 -0.10911975887E+02 -0.15816111957E+01  0.16640659131E+02  0.51100000000E-03 0. -1.
        -11    1    3    3    0    0 -0.75197211041E+00 -0.12687802063E+02  0.20797630041E+02  0.24373904054E+02  0.51100000000E-03 0.  1.
        -12    1    3    3    0    0  0.83146594932E+01 -0.10356529445E+01 -0.16254907634E+02  0.18287377114E+02  0.00000000000E+00 0.  1.
</event>
<event>
 7    1  0.7578565E-012  0.5930196E+02  0.7816164E-02  0.1266605E+00
        -11   -1    0    0    0    0  0.00000000000E+00  0.00000000000E+00  0.45593999997E+02  0.45594000000E+02  0.51100000000E-03 0.  1.
         11   -1    0    0    0    0 -0.00000000000E+00 -0.00000000000E+00 -0.45593999997E+02  0.45594000000E+02  0.51100000000E-03 0. -1.
    9900012    2    1    2    0    0  0.13243008593E+01  0.31822144726E+02  0.15222183687E+01  0.59301955773E+02  0.50000021420E+02 0.  0.
         12    1    1    2    0    0 -0.13243008593E+01 -0.31822144726E+02 -0.15222183687E+01  0.31886044227E+02  0.00000000000E+00 0. -1.
         11    1    3    3    0    0 -0.11501973075E+01  0.10783485436E+02 -0.12874187994E+02  0.16833039796E+02  0.51100000000E-03 0. -1.
        -11    1    3    3    0    0 -0.68802620856E+01 -0.51533876709E+01  0.11710664713E+02  0.14527046470E+02  0.51100000000E-03 0.  1.
        -12    1    3    3    0    0  0.93547602524E+01  0.26192046960E+02  0.26857416498E+01  0.27941869507E+02  0.00000000000E+00 0.  1.
</event>
<event>
 7    1  0.7578565E-012  0.5930193E+02  0.7816164E-02  0.1266605E+00
        -11   -1    0    0    0    0  0.00000000000E+00  0.00000000000E+00  0.45593999997E+02  0.45594000000E+02  0.51100000000E-03 0. -1.
         11   -1    0    0    0    0 -0.00000000000E+00 -0.00000000000E+00 -0.45593999997E+02  0.45594000000E+02  0.51100000000E-03 0.  1.
    9900012    2    1    2    0    0  0.22717219575E+02  0.21845075818E+02  0.48416736663E+01  0.59301933974E+02  0.49999981665E+02 0.  0.
         12    1    1    2    0    0 -0.22717219575E+02 -0.21845075818E+02 -0.48416736663E+01  0.31886066026E+02  0.00000000000E+00 0. -1.
         11    1    3    3    0    0 -0.71452041163E+01  0.12034164713E+02  0.11655289932E+02  0.18213205261E+02  0.51100000000E-03 0. -1.
        -11    1    3    3    0    0  0.27496454328E+02  0.16996575738E+02 -0.26015462773E+01  0.32430026684E+02  0.51100000000E-03 0.  1.
         12    1    3    3    0    0  0.23659693630E+01 -0.71856646330E+01 -0.42120699885E+01  0.86587020294E+01  0.00000000000E+00 0. -1.
</event>
<event>
 7    1  0.7578565E-012  0.5930194E+02  0.7816164E-02  0.1266605E+00
        -11   -1    0    0    0    0  0.00000000000E+00  0.00000000000E+00  0.45593999997E+02  0.45594000000E+02  0.51100000000E-03 0.  1.
         11   -1    0    0    0    0 -0.00000000000E+00 -0.00000000000E+00 -0.45593999997E+02  0.45594000000E+02  0.51100000000E-03 0. -1.
    9900012    2    1    2    0    0  0.10240879140E+02  0.26935234908E+02  0.13650578014E+02  0.59301940896E+02  0.49999994288E+02 0.  0.
         12    1    1    2    0    0 -0.10240879140E+02 -0.26935234908E+02 -0.13650578014E+02  0.31886059104E+02  0.00000000000E+00 0. -1.
         11    1    3    3    0    0  0.15490920043E+02  0.62010445393E+01 -0.15553441558E+02  0.22810767232E+02  0.51100000000E-03 0. -1.
        -11    1    3    3    0    0 -0.16905539706E+01  0.19782086675E+01  0.52567744034E+01  0.58655741108E+01  0.51100000000E-03 0.  1.
         12    1    3    3    0    0 -0.35594869329E+01  0.18755981701E+02  0.23947245169E+02  0.30625599553E+02  0.00000000000E+00 0. -1.
</event>
<event>
 7    1  0.7578565E-012  0.5930198E+02  0.7816164E-02  0.1266605E+00
        -11   -1    0    0    0    0  0.00000000000E+00  0.00000000000E+00  0.45593999997E+02  0.45594000000E+02  0.51100000000E-03 0.  1.
         11   -1    0    0    0    0 -0.00000000000E+00 -0.00000000000E+00 -0.45593999997E+02  0.45594000000E+02  0.51100000000E-03 0. -1.
    9900012    2    1    2    0    0  0.23631599236E+02 -0.17582340875E+02  0.12211772889E+02  0.59301975002E+02  0.50000056489E+02 0.  0.
         12    1    1    2    0    0 -0.23631599236E+02  0.17582340875E+02 -0.12211772889E+02  0.31886024998E+02  0.00000000000E+00 0. -1.
         11    1    3    3    0    0  0.16086159347E+02  0.10609959942E+02  0.13511389759E+02  0.23534940535E+02  0.51100000000E-03 0. -1.
        -11    1    3    3    0    0  0.13771045703E+02 -0.14442763672E+02 -0.42115418923E+01  0.20395396726E+02  0.51100000000E-03 0.  1.
        -12    1    3    3    0    0 -0.62256058150E+01 -0.13749537145E+02  0.29119250222E+01  0.15371637740E+02  0.00000000000E+00 0.  1.
</event>
<event>
 7    1  0.7578565E-012  0.5930190E+02  0.7816164E-02  0.1266605E+00
        -11   -1    0    0    0    0  0.00000000000E+00  0.00000000000E+00  0.45593999997E+02  0.45594000000E+02  0.51100000000E-03 0. -1.
         11   -1    0    0    0    0 -0.00000000000E+00 -0.00000000000E+00 -0.45593999997E+02  0.45594000000E+02  0.51100000000E-03 0.  1.
    9900012    2    1    2    0    0  0.24472442683E+02  0.35145878209E+01  0.20136300973E+02  0.59301899654E+02  0.49999919073E+02 0.  0.
         12    1    1    2    0    0 -0.24472442683E+02 -0.35145878209E+01 -0.20136300973E+02  0.31886100346E+02  0.00000000000E+00 0. -1.
         11    1    3    3    0    0  0.11610421190E+02 -0.88073722289E+01  0.22961726295E+02  0.27195818806E+02  0.51100000000E-03 0. -1.
        -11    1    3    3    0    0 -0.71005694423E+01  0.92083201098E+01  0.45805083103E+00  0.11637055318E+02  0.51100000000E-03 0.  1.
         12    1    3    3    0    0  0.19962590935E+02  0.31136399400E+01 -0.32834761531E+01  0.20469025530E+02  0.00000000000E+00 0. -1.
</event>
<event>
 7    1  0.7578565E-012  0.5930194E+02  0.7816164E-02  0.1266605E+00
        -11   -1    0    0    0    0  0.00000000000E+00  0.00000000000E+00  0.45593999997E+02  0.45594000000E+02  0.51100000000E-03 0. -1.
         11   -1    0    0    0    0 -0.00000000000E+00 -0.00000000000E+00 -0.45593999997E+02  0.45594000000E+02  0.51100000000E-03 0.  1.
    9900012    2    1    2    0    0 -0.36602419667E+01 -0.21616197443E+02 -0.23153040805E+02  0.59301942519E+02  0.49999997249E+02 0.  0.
         12    1    1    2    0    0  0.36602419667E+01  0.21616197443E+02  0.23153040805E+02  0.31886057481E+02  0.00000000000E+00 0. -1.
         11    1    3    3    0    0 -0.15250484906E+01  0.39260509442E+01 -0.11924322885E+02  0.12646308767E+02  0.51100000000E-03 0. -1.
        -11    1    3    3    0    0  0.74032179049E+01 -0.16453255009E+02  0.10770767671E+02  0.21012536073E+02  0.51100000000E-03 0.  1.
        -12    1    3    3    0    0 -0.95384113809E+01 -0.90889933779E+01 -0.21999485591E+02  0.25643097679E+02  0.00000000000E+00 0.  1.
</event>
<event>
 7    1  0.7578565E-012  0.5930191E+02  0.7816164E-02  0.1266605E+00
        -11   -1    0    0    0    0  0.00000000000E+00  0.00000000000E+00  0.45593999997E+02  0.45594000000E+02  0.51100000000E-03 0. -1.
         11   -1    0    0    0    0 -0.00000000000E+00 -0.00000000000E+00 -0.45593999997E+02  0.45594000000E+02  0.51100000000E-03 0.  1.
    9900012    2    1    2    0    0 -0.25094399327E+02  0.13654538199E+02 -0.14161472739E+02  0.59301912107E+02  0.49999941784E+02 0.  0.
         12    1    1    2    0    0  0.25094399327E+02 -0.13654538199E+02  0.14161472739E+02  0.31886087893E+02  0.00000000000E+00 0. -1.
         11    1    3    3    0    0  0.55300473985E+01 -0.62254570351E+01  0.80238159056E+01  0.11563708811E+02  0.51100000000E-03 0. -1.
        -11    1    3    3    0    0 -0.14886002265E+02  0.64785441873E+01 -0.21649087755E+02  0.27060073893E+02  0.51100000000E-03 0.  1.
        -12    1    3    3    0    0 -0.15738444460E+02  0.13401451047E+02 -0.53620089014E+00  0.20678129402E+02  0.00000000000E+00 0.  1.
</event>
<event>
 7    1  0.7578565E-012  0.5930194E+02  0.7816164E-02  0.1266605E+00
        -11   -1    0    0    0    0  0.00000000000E+00  0.00000000000E+00  0.45593999997E+02  0.45594000000E+02  0.51100000000E-03 0.  1.
         11   -1    0    0    0    0 -0.00000000000E+00 -0.00000000000E+00 -0.45593999997E+02  0.45594000000E+02  0.51100000000E-03 0. -1.
    9900012    2    1    2    0    0  0.29770430896E+02 -0.16434074590E+01  0.11302271745E+02  0.59301942069E+02  0.49999996427E+02 0.  0.
         12    1    1    2    0    0 -0.29770430896E+02  0.16434074590E+01 -0.11302271745E+02  0.31886057931E+02  0.00000000000E+00 0. -1.
         11    1    3    3    0    0  0.24054213765E+02 -0.22971001098E+01 -0.97102640540E+01  0.26041718396E+02  0.51100000000E-03 0. -1.
        -11    1    3    3    0    0 -0.31902215210E+01 -0.10783060417E+02  0.82498445119E+01  0.13946750161E+02  0.51100000000E-03 0.  1.
        -12    1    3    3    0    0  0.89064386519E+01  0.11436753068E+02  0.12762691287E+02  0.19313473512E+02  0.00000000000E+00 0.  1.
</event>
<event>
 7    1  0.7578565E-012  0.5930193E+02  0.7816164E-02  0.1266605E+00
        -11   -1    0    0    0    0  0.00000000000E+00  0.00000000000E+00  0.45593999997E+02  0.45594000000E+02  0.51100000000E-03 0.  1.
         11   -1    0    0    0    0 -0.00000000000E+00 -0.00000000000E+00 -0.45593999997E+02  0.45594000000E+02  0.51100000000E-03 0. -1.
    9900012    2    1    2    0    0  0.28999260722E+02 -0.39983155537E+01  0.12640313680E+02  0.59301934397E+02  0.49999982436E+02 0.  0.
         12    1    1    2    0    0 -0.28999260722E+02  0.39983155537E+01 -0.12640313680E+02  0.31886065603E+02  0.00000000000E+00 0. -1.
         11    1    3    3    0    0  0.64222990557E+01 -0.36834625208E-01  0.27200691361E+02  0.27948611643E+02  0.51100000000E-03 0. -1.
        -11    1    3    3    0    0  0.73556440052E+01 -0.81920028155E+01 -0.10091969007E+02  0.14935268580E+02  0.51100000000E-03 0.  1.
         12    1    3    3    0    0  0.15221317662E+02  0.42305218869E+01 -0.44684086748E+01  0.16418054174E+02  0.00000000000E+00 0. -1.
</event>
<event>
 7    1  0.7578565E-012  0.5930194E+02  0.7816164E-02  0.1266605E+00
        -11   -1    0    0    0    0  0.00000000000E+00  0.00000000000E+00  0.45593999997E+02  0.45594000000E+02  0.51100000000E-03 0.  1.
         11   -1    0    0    0    0 -0.00000000000E+00 -0.00000000000E+00 -0.45593999997E+02  0.45594000000E+02  0.51100000000E-03 0. -1.
    9900012    2    1    2    0    0  0.23258756306E+02  0.88218984821E+01  0.19948062443E+02  0.59301939833E+02  0.49999992350E+02 0.  0.
         12    1    1    2    0    0 -0.23258756306E+02 -0.88218984821E+01 -0.19948062443E+02  0.31886060167E+02  0.00000000000E+00 0. -1.
         11    1    3    3    0    0 -0.60033892004E+01  0.10840205734E+02 -0.85622694434E+01  0.15061978639E+02  0.51100000000E-03 0. -1.
        -11    1    3    3    0    0  0.29082203744E+02  0.29740383082E+00  0.29752327346E+02  0.41606057328E+02  0.51100000000E-03 0.  1.
        -12    1    3    3    0    0  0.17994176169E+00 -0.23157110823E+01 -0.12419954591E+01  0.26339038659E+01  0.00000000000E+00 0.  1.
</event>
<event>
 7    1  0.7578565E-012  0.5930184E+02  0.7816164E-02  0.1266605E+00
        -11   -1    0    0    0    0  0.00000000000E+00  0.00000000000E+00  0.45593999997E+02  0.45594000000E+02  0.51100000000E-03 0. -1.
         11   -1    0    0    0    0 -0.00000000000E+00 -0.00000000000E+00 -0.45593999997E+02  0.45594000000E+02  0.51100000000E-03 0.  1.
    9900012    2    1    2    0    0 -0.26502486297E+01  0.20633569381E+02 -0.24165245772E+02  0.59301841460E+02  0.49999812942E+02 0.  0.
         12    1    1    2    0    0  0.26502486297E+01 -0.20633569381E+02  0.24165245772E+02  0.31886158540E+02  0.00000000000E+00 0. -1.
         11    1    3    3    0    0 -0.32991027982E+01 -0.13642788301E+01  0.23686784713E+00  0.35779103730E+01  0.51100000000E-03 0. -1.
        -11    1    3    3    0    0 -0.29900224019E+01  0.35459418219E+02 -0.13642502036E+02  0.38110739123E+02  0.51100000000E-03 0.  1.
        -12    1    3    3    0    0  0.36388765704E+01 -0.13461570008E+02 -0.10759611583E+02  0.17613191965E+02  0.00000000000E+00 0.  1.
</event>
<event>
 7    1  0.7578565E-012  0.5930197E+02  0.7816164E-02  0.1266605E+00
        -11   -1    0    0    0    0  0.00000000000E+00  0.00000000000E+00  0.45593999997E+02  0.45594000000E+02  0.51100000000E-03 0.  1.
         11   -1    0    0    0    0 -0.00000000000E+00 -0.00000000000E+00 -0.45593999997E+02  0.45594000000E+02  0.51100000000E-03 0. -1.
    9900012    2    1    2    0    0 -0.31497251394E+02 -0.49623999061E+01 -0.12949317028E+00  0.59301968157E+02  0.50000044007E+02 0.  0.
         12    1    1    2    0    0  0.31497251394E+02  0.49623999061E+01  0.12949317028E+00  0.31886031843E+02  0.00000000000E+00 0. -1.
         11    1    3    3    0    0 -0.17579985763E+02 -0.41054281615E+01 -0.11309214463E+02  0.21302787889E+02  0.51100000000E-03 0. -1.
        -11    1    3    3    0    0 -0.34031743427E+01 -0.12028731571E+02  0.17416666980E+02  0.21438569629E+02  0.51100000000E-03 0.  1.
        -12    1    3    3    0    0 -0.10514091288E+02  0.11171759826E+02 -0.62369456870E+01  0.16560610639E+02  0.00000000000E+00 0.  1.
</event>
<event>
 7    1  0.7578565E-012  0.5930197E+02  0.7816164E-02  0.1266605E+00
        -11   -1    0    0    0    0  0.00000000000E+00  0.00000000000E+00  0.45593999997E+02  0.45594000000E+02  0.51100000000E-03 0. -1.
         11   -1    0    0    0    0 -0.00000000000E+00 -0.00000000000E+00 -0.45593999997E+02  0.45594000000E+02  0.51100000000E-03 0.  1.
    9900012    2    1    2    0    0  0.31263560665E+02  0.53828032841E+01 -0.32146371720E+01  0.59301973456E+02  0.50000053669E+02 0.  0.
         12    1    1    2    0    0 -0.31263560665E+02 -0.53828032841E+01  0.32146371720E+01  0.31886026544E+02  0.00000000000E+00 0. -1.
         11    1    3    3    0    0  0.32415827257E+01  0.70509516556E+01 -0.12243853324E+02  0.14496058854E+02  0.51100000000E-03 0. -1.
        -11    1    3    3    0    0  0.27523105003E+02 -0.11392888700E+02 -0.22885665364E+01  0.29875688427E+02  0.51100000000E-03 0.  1.
        -12    1    3    3    0    0  0.49887293621E+00  0.97247403280E+01  0.11317782688E+02  0.14930226175E+02  0.00000000000E+00 0.  1.
</event>
<event>
 7    1  0.7578565E-012  0.5930195E+02  0.7816164E-02  0.1266605E+00
        -11   -1    0    0    0    0  0.00000000000E+00  0.00000000000E+00  0.45593999997E+02  0.45594000000E+02  0.51100000000E-03 0.  1.
         11   -1    0    0    0    0 -0.00000000000E+00 -0.00000000000E+00 -0.45593999997E+02  0.45594000000E+02  0.51100000000E-03 0. -1.
    9900012    2    1    2    0    0 -0.24962674187E+02 -0.17756253007E+02  0.88487700748E+01  0.59301947324E+02  0.50000006012E+02 0.  0.
         12    1    1    2    0    0  0.24962674187E+02  0.17756253007E+02 -0.88487700748E+01  0.31886052676E+02  0.00000000000E+00 0. -1.
         11    1    3    3    0    0  0.42670188769E+01 -0.12496927702E+01 -0.39577219877E+01  0.59525411136E+01  0.51100000000E-03 0. -1.
        -11    1    3    3    0    0 -0.32230952846E+02 -0.73083947882E+01  0.22240637000E+02  0.39835824206E+02  0.51100000000E-03 0.  1.
        -12    1    3    3    0    0  0.30012597819E+01 -0.91981654482E+01 -0.94341449373E+01  0.13513582004E+02  0.00000000000E+00 0.  1.
</event>
<event>
 7    1  0.7578565E-012  0.5930195E+02  0.7816164E-02  0.1266605E+00
        -11   -1    0    0    0    0  0.00000000000E+00  0.00000000000E+00  0.45593999997E+02  0.45594000000E+02  0.51100000000E-03 0.  1.
         11   -1    0    0    0    0 -0.00000000000E+00 -0.00000000000E+00 -0.45593999997E+02  0.45594000000E+02  0.51100000000E-03 0. -1.
    9900012    2    1    2    0    0 -0.30607860802E+02 -0.23896571073E+01  0.86121126892E+01  0.59301951500E+02  0.50000013627E+02 0.  0.
         12    1    1    2    0    0  0.30607860802E+02  0.23896571073E+01 -0.86121126892E+01  0.31886048500E+02  0.00000000000E+00 0. -1.
         11    1    3    3    0    0 -0.17392610115E+02  0.85978192088E+01 -0.17064105587E+02  0.25838132315E+02  0.51100000000E-03 0. -1.
        -11    1    3    3    0    0 -0.13386980326E+02 -0.40114201640E+01  0.13505603513E+02  0.19434609862E+02  0.51100000000E-03 0.  1.
         12    1    3    3    0    0  0.17172963857E+00 -0.69760561521E+01  0.12170614764E+02  0.14029209323E+02  0.00000000000E+00 0. -1.
</event>
<event>
 7    1  0.7578565E-012  0.5930209E+02  0.7816164E-02  0.1266604E+00
        -11   -1    0    0    0    0  0.00000000000E+00  0.00000000000E+00  0.45593999997E+02  0.45594000000E+02  0.51100000000E-03 0. -1.
         11   -1    0    0    0    0 -0.00000000000E+00 -0.00000000000E+00 -0.45593999997E+02  0.45594000000E+02  0.51100000000E-03 0.  1.
    9900012    2    1    2    0    0  0.20511446298E+02 -0.12889809158E+01 -0.24378891818E+02  0.59302089831E+02  0.50000265910E+02 0.  0.
         12    1    1    2    0    0 -0.20511446298E+02  0.12889809158E+01  0.24378891818E+02  0.31885910169E+02  0.00000000000E+00 0. -1.
         11    1    3    3    0    0 -0.10311263429E+02 -0.13218480656E+02 -0.11213680852E+02  0.20169209773E+02  0.51100000000E-03 0. -1.
        -11    1    3    3    0    0  0.23417102987E+02  0.42834509682E+01 -0.15270159223E+02  0.28282263478E+02  0.51100000000E-03 0.  1.
         12    1    3    3    0    0  0.74056067398E+01  0.76460487719E+01  0.21049482572E+01  0.10850616580E+02  0.00000000000E+00 0. -1.
</event>
<event>
 7    1  0.7597913E-012  0.5930198E+02  0.7816164E-02  0.1266605E+00
        -11   -1    0    0    0    0  0.00000000000E+00  0.00000000000E+00  0.45593999997E+02  0.45594000000E+02  0.51100000000E-03 0.  1.
         11   -1    0    0    0    0 -0.00000000000E+00 -0.00000000000E+00 -0.45593999997E+02  0.45594000000E+02  0.51100000000E-03 0. -1.
    9900012    2    1    2    0    0  0.30017346960E+02  0.35593791899E+01  0.10149295003E+02  0.59301976608E+02  0.50000059418E+02 0.  0.
         12    1    1    2    0    0 -0.30017346960E+02 -0.35593791899E+01 -0.10149295003E+02  0.31886023392E+02  0.00000000000E+00 0. -1.
         11    1    3    3    0    0  0.28422545266E+02 -0.30696583539E+01 -0.35125278209E+01  0.28802807741E+02  0.51100000000E-03 0. -1.
        -11    1    3    3    0    0  0.73161749367E+01  0.14288041279E+02  0.13441197853E+02  0.20936578978E+02  0.51100000000E-03 0.  1.
         12    1    3    3    0    0 -0.57213732432E+01 -0.76590037357E+01  0.22062497094E+00  0.95625898892E+01  0.00000000000E+00 0. -1.
</event>
<event>
 7    1  0.7578565E-012  0.5930196E+02  0.7816164E-02  0.1266605E+00
        -11   -1    0    0    0    0  0.00000000000E+00  0.00000000000E+00  0.45593999997E+02  0.45594000000E+02  0.51100000000E-03 0.  1.
         11   -1    0    0    0    0 -0.00000000000E+00 -0.00000000000E+00 -0.45593999997E+02  0.45594000000E+02  0.51100000000E-03 0. -1.
    9900012    2    1    2    0    0 -0.12044284874E+02  0.18025491199E+02 -0.23382400792E+02  0.59301956064E+02  0.50000021951E+02 0.  0.
         12    1    1    2    0    0  0.12044284874E+02 -0.18025491199E+02  0.23382400792E+02  0.31886043936E+02  0.00000000000E+00 0. -1.
         11    1    3    3    0    0 -0.15116141852E+02  0.79210631365E+01  0.37539204859E+01  0.17473777639E+02  0.51100000000E-03 0. -1.
        -11    1    3    3    0    0  0.11713194173E+02  0.16033903933E+02 -0.23429256993E+02  0.30711806795E+02  0.51100000000E-03 0.  1.
         12    1    3    3    0    0 -0.86413371948E+01 -0.59294758709E+01 -0.37070642845E+01  0.11116371631E+02  0.00000000000E+00 0. -1.
</event>
<event>
 7    1  0.7578565E-012  0.5930195E+02  0.7816164E-02  0.1266605E+00
        -11   -1    0    0    0    0  0.00000000000E+00  0.00000000000E+00  0.45593999997E+02  0.45594000000E+02  0.51100000000E-03 0. -1.
         11   -1    0    0    0    0 -0.00000000000E+00 -0.00000000000E+00 -0.45593999997E+02  0.45594000000E+02  0.51100000000E-03 0.  1.
    9900012    2    1    2    0    0  0.65029419403E+00 -0.31818051470E+02 -0.19771276919E+01  0.59301947943E+02  0.50000007141E+02 0.  0.
         12    1    1    2    0    0 -0.65029419403E+00  0.31818051470E+02  0.19771276919E+01  0.31886052057E+02  0.00000000000E+00 0. -1.
         11    1    3    3    0    0  0.17417071761E+02 -0.19721254429E+02 -0.14968838101E+02  0.30271246742E+02  0.51100000000E-03 0. -1.
        -11    1    3    3    0    0 -0.19528251161E+02 -0.83551407680E+01  0.98130526814E+01  0.23397798483E+02  0.51100000000E-03 0.  1.
        -12    1    3    3    0    0  0.27614735939E+01 -0.37416562731E+01  0.31786577277E+01  0.56329027176E+01  0.00000000000E+00 0.  1.
</event>
<event>
 7    1  0.7578565E-012  0.5930192E+02  0.7816164E-02  0.1266605E+00
        -11   -1    0    0    0    0  0.00000000000E+00  0.00000000000E+00  0.45593999997E+02  0.45594000000E+02  0.51100000000E-03 0.  1.
         11   -1    0    0    0    0 -0.00000000000E+00 -0.00000000000E+00 -0.45593999997E+02  0.45594000000E+02  0.51100000000E-03 0. -1.
    9900012    2    1    2    0    0 -0.16662999559E+02  0.25876032083E+02  0.83365005355E+01  0.59301924170E+02  0.49999963784E+02 0.  0.
         12    1    1    2    0    0  0.16662999559E+02 -0.25876032083E+02 -0.83365005355E+01  0.31886075830E+02  0.00000000000E+00 0. -1.
         11    1    3    3    0    0 -0.72097698875E+01  0.27978119865E+01 -0.11489784646E+02  0.13850042787E+02  0.51100000000E-03 0. -1.
        -11    1    3    3    0    0  0.47512554373E+01  0.19904248714E+02  0.22757520848E+02  0.30604873803E+02  0.51100000000E-03 0.  1.
         12    1    3    3    0    0 -0.14204485108E+02  0.31739713824E+01 -0.29312356667E+01  0.14847007580E+02  0.00000000000E+00 0. -1.
</event>
<event>
 7    1  0.7578565E-012  0.5930214E+02  0.7816164E-02  0.1266604E+00
        -11   -1    0    0    0    0  0.00000000000E+00  0.00000000000E+00  0.45593999997E+02  0.45594000000E+02  0.51100000000E-03 0.  1.
         11   -1    0    0    0    0 -0.00000000000E+00 -0.00000000000E+00 -0.45593999997E+02  0.45594000000E+02  0.51100000000E-03 0. -1.
    9900012    2    1    2    0    0  0.30509838253E+01 -0.64101002643E+01  0.31085533331E+02  0.59302136828E+02  0.50000351621E+02 0.  0.
         12    1    1    2    0    0 -0.30509838253E+01  0.64101002643E+01 -0.31085533331E+02  0.31885863172E+02  0.00000000000E+00 0. -1.
         11    1    3    3    0    0 -0.11750688577E+02 -0.15820959516E+02 -0.24296515309E+01  0.19856602148E+02  0.51100000000E-03 0. -1.
        -11    1    3    3    0    0  0.12041257494E+02  0.33537820077E+01  0.28470242406E+02  0.31093318233E+02  0.51100000000E-03 0.  1.
        -12    1    3    3    0    0  0.27604149084E+01  0.60570772439E+01  0.50449424563E+01  0.83522164479E+01  0.00000000000E+00 0.  1.
</event>
<event>
 7    1  0.7578565E-012  0.5930194E+02  0.7816164E-02  0.1266605E+00
        -11   -1    0    0    0    0  0.00000000000E+00  0.00000000000E+00  0.45593999997E+02  0.45594000000E+02  0.51100000000E-03 0. -1.
         11   -1    0    0    0    0 -0.00000000000E+00 -0.00000000000E+00 -0.45593999997E+02  0.45594000000E+02  0.51100000000E-03 0.  1.
    9900012    2    1    2    0    0 -0.18461219677E+02 -0.10433681191E+02 -0.23812659420E+02  0.59301935899E+02  0.49999985176E+02 0.  0.
         12    1    1    2    0    0  0.18461219677E+02  0.10433681191E+02  0.23812659420E+02  0.31886064101E+02  0.00000000000E+00 0. -1.
         11    1    3    3    0    0 -0.24161619475E+02 -0.20356810151E+02 -0.21182894484E+02  0.38038120277E+02  0.51100000000E-03 0. -1.
        -11    1    3    3    0    0  0.61552669017E+01 -0.67401316319E+00 -0.73869952470E+01  0.96389472151E+01  0.51100000000E-03 0.  1.
         12    1    3    3    0    0 -0.45486710292E+00  0.10597142123E+02  0.47572303107E+01  0.11624868407E+02  0.00000000000E+00 0. -1.
</event>
<event>
 7    1  0.7578565E-012  0.5930195E+02  0.7816164E-02  0.1266605E+00
        -11   -1    0    0    0    0  0.00000000000E+00  0.00000000000E+00  0.45593999997E+02  0.45594000000E+02  0.51100000000E-03 0.  1.
         11   -1    0    0    0    0 -0.00000000000E+00 -0.00000000000E+00 -0.45593999997E+02  0.45594000000E+02  0.51100000000E-03 0. -1.
    9900012    2    1    2    0    0  0.10020650851E+01  0.20817755119E+01  0.31802236096E+02  0.59301950630E+02  0.50000012041E+02 0.  0.
         12    1    1    2    0    0 -0.10020650851E+01 -0.20817755119E+01 -0.31802236096E+02  0.31886049370E+02  0.00000000000E+00 0. -1.
         11    1    3    3    0    0  0.52625646715E+01  0.23032896147E+02  0.25791502934E+02  0.34977285711E+02  0.51100000000E-03 0.  1.
        -11    1    3    3    0    0 -0.64835763497E+01 -0.12621638836E+02  0.71610729750E+00  0.14207580339E+02  0.51100000000E-03 0. -1.
        -12    1    3    3    0    0  0.22230767633E+01 -0.83294817997E+01  0.52946258650E+01  0.10117084580E+02  0.00000000000E+00 0.  1.
</event>
<event>
 7    1  0.7578565E-012  0.5930192E+02  0.7816164E-02  0.1266605E+00
        -11   -1    0    0    0    0  0.00000000000E+00  0.00000000000E+00  0.45593999997E+02  0.45594000000E+02  0.51100000000E-03 0. -1.
         11   -1    0    0    0    0 -0.00000000000E+00 -0.00000000000E+00 -0.45593999997E+02  0.45594000000E+02  0.51100000000E-03 0.  1.
    9900012    2    1    2    0    0 -0.26583850014E+02 -0.16921331379E+02 -0.48672155472E+01  0.59301916447E+02  0.49999949699E+02 0.  0.
         12    1    1    2    0    0  0.26583850014E+02  0.16921331379E+02  0.48672155472E+01  0.31886083553E+02  0.00000000000E+00 0. -1.
         11    1    3    3    0    0 -0.13142946353E+02  0.60730892153E+01  0.75087802632E+01  0.16309544222E+02  0.51100000000E-03 0. -1.
        -11    1    3    3    0    0  0.92247761272E+01 -0.44685498214E+01 -0.87844952567E+01  0.13499325512E+02  0.51100000000E-03 0.  1.
        -12    1    3    3    0    0 -0.22665679788E+02 -0.18525870772E+02 -0.35915005536E+01  0.29493046712E+02  0.00000000000E+00 0.  1.
</event>
<event>
 7    1  0.7578565E-012  0.5930226E+02  0.7816164E-02  0.1266604E+00
        -11   -1    0    0    0    0  0.00000000000E+00  0.00000000000E+00  0.45593999997E+02  0.45594000000E+02  0.51100000000E-03 0.  1.
         11   -1    0    0    0    0 -0.00000000000E+00 -0.00000000000E+00 -0.45593999997E+02  0.45594000000E+02  0.51100000000E-03 0. -1.
    9900012    2    1    2    0    0  0.26125307255E+02  0.16672315952E+02  0.74968249783E+01  0.59302263641E+02  0.50000582895E+02 0.  0.
         12    1    1    2    0    0 -0.26125307255E+02 -0.16672315952E+02 -0.74968249783E+01  0.31885736359E+02  0.00000000000E+00 0. -1.
         11    1    3    3    0    0 -0.99487802876E+00 -0.68142406387E+01 -0.13090525278E+02  0.14791399869E+02  0.51100000000E-03 0. -1.
        -11    1    3    3    0    0  0.86323529885E+01  0.17604182491E+02  0.69740622852E+01  0.20810149070E+02  0.51100000000E-03 0.  1.
         12    1    3    3    0    0  0.18487832296E+02  0.58823740996E+01  0.13613287971E+02  0.23700714703E+02  0.00000000000E+00 0. -1.
</event>
<event>
 7    1  0.7578565E-012  0.5930195E+02  0.7816164E-02  0.1266605E+00
        -11   -1    0    0    0    0  0.00000000000E+00  0.00000000000E+00  0.45593999997E+02  0.45594000000E+02  0.51100000000E-03 0.  1.
         11   -1    0    0    0    0 -0.00000000000E+00 -0.00000000000E+00 -0.45593999997E+02  0.45594000000E+02  0.51100000000E-03 0. -1.
    9900012    2    1    2    0    0 -0.27152781783E+02  0.16462921928E+02  0.29015290927E+01  0.59301949319E+02  0.50000009650E+02 0.  0.
         12    1    1    2    0    0  0.27152781783E+02 -0.16462921928E+02 -0.29015290927E+01  0.31886050681E+02  0.00000000000E+00 0. -1.
         11    1    3    3    0    0 -0.36448708844E+01 -0.75405331798E-01 -0.12295081721E+02  0.12824188259E+02  0.51100000000E-03 0. -1.
        -11    1    3    3    0    0 -0.14076489691E+02  0.26224851072E+02  0.66961666506E+01  0.30507851839E+02  0.51100000000E-03 0.  1.
        -12    1    3    3    0    0 -0.94314212077E+01 -0.96865238115E+01  0.85004441629E+01  0.15969909221E+02  0.00000000000E+00 0.  1.
</event>
<event>
 7    1  0.7578565E-012  0.5930194E+02  0.7816164E-02  0.1266605E+00
        -11   -1    0    0    0    0  0.00000000000E+00  0.00000000000E+00  0.45593999997E+02  0.45594000000E+02  0.51100000000E-03 0. -1.
         11   -1    0    0    0    0 -0.00000000000E+00 -0.00000000000E+00 -0.45593999997E+02  0.45594000000E+02  0.51100000000E-03 0.  1.
    9900012    2    1    2    0    0 -0.69240730201E+01 -0.17115884876E+02 -0.25996628250E+02  0.59301937486E+02  0.49999988070E+02 0.  0.
         12    1    1    2    0    0  0.69240730201E+01  0.17115884876E+02  0.25996628250E+02  0.31886062514E+02  0.00000000000E+00 0. -1.
         11    1    3    3    0    0 -0.12600936525E+02 -0.26492753502E+01  0.11386506641E+02  0.17188798531E+02  0.51100000000E-03 0. -1.
        -11    1    3    3    0    0 -0.10180273307E+01 -0.74193775554E+01 -0.71431887993E+01  0.10349332802E+02  0.51100000000E-03 0.  1.
         12    1    3    3    0    0  0.66948908355E+01 -0.70472319705E+01 -0.30239946092E+02  0.31763806154E+02  0.00000000000E+00 0. -1.
</event>
<event>
 7    1  0.7578565E-012  0.5930194E+02  0.7816164E-02  0.1266605E+00
        -11   -1    0    0    0    0  0.00000000000E+00  0.00000000000E+00  0.45593999997E+02  0.45594000000E+02  0.51100000000E-03 0.  1.
         11   -1    0    0    0    0 -0.00000000000E+00 -0.00000000000E+00 -0.45593999997E+02  0.45594000000E+02  0.51100000000E-03 0. -1.
    9900012    2    1    2    0    0 -0.41377546764E+01 -0.26537579552E+02  0.17185934996E+02  0.59301944993E+02  0.50000001760E+02 0.  0.
         12    1    1    2    0    0  0.41377546764E+01  0.26537579552E+02 -0.17185934996E+02  0.31886055007E+02  0.00000000000E+00 0. -1.
         11    1    3    3    0    0 -0.13298359352E+02 -0.58781485808E+01  0.28857549897E+02  0.32313421028E+02  0.51100000000E-03 0. -1.
        -11    1    3    3    0    0  0.43048543200E+01 -0.65843034330E+01  0.31645015890E+00  0.78730529897E+01  0.51100000000E-03 0.  1.
         12    1    3    3    0    0  0.48557503555E+01 -0.14075127538E+02 -0.11988065060E+02  0.19115470975E+02  0.00000000000E+00 0. -1.
</event>
<event>
 7    1  0.7578565E-012  0.5930194E+02  0.7816164E-02  0.1266605E+00
        -11   -1    0    0    0    0  0.00000000000E+00  0.00000000000E+00  0.45593999997E+02  0.45594000000E+02  0.51100000000E-03 0.  1.
         11   -1    0    0    0    0 -0.00000000000E+00 -0.00000000000E+00 -0.45593999997E+02  0.45594000000E+02  0.51100000000E-03 0. -1.
    9900012    2    1    2    0    0 -0.11408502697E+02  0.43904205038E+01  0.29449806827E+02  0.59301939595E+02  0.49999991916E+02 0.  0.
         12    1    1    2    0    0  0.11408502697E+02 -0.43904205038E+01 -0.29449806827E+02  0.31886060405E+02  0.00000000000E+00 0. -1.
         11    1    3    3    0    0 -0.24660743050E+02  0.29173736848E+01  0.61639564298E+01  0.25586279059E+02  0.51100000000E-03 0. -1.
        -11    1    3    3    0    0  0.65509036911E+01  0.69931014295E+01  0.23125462642E+02  0.25032076012E+02  0.51100000000E-03 0.  1.
         12    1    3    3    0    0  0.67013366612E+01 -0.55200546105E+01  0.16038775511E+00  0.86835845237E+01  0.00000000000E+00 0. -1.
</event>
<event>
 7    1  0.7578565E-012  0.5930195E+02  0.7816164E-02  0.1266605E+00
        -11   -1    0    0    0    0  0.00000000000E+00  0.00000000000E+00  0.45593999997E+02  0.45594000000E+02  0.51100000000E-03 0. -1.
         11   -1    0    0    0    0 -0.00000000000E+00 -0.00000000000E+00 -0.45593999997E+02  0.45594000000E+02  0.51100000000E-03 0.  1.
    9900012    2    1    2    0    0  0.12212345270E+01 -0.94170111196E+01 -0.30439264289E+02  0.59301947836E+02  0.50000006945E+02 0.  0.
         12    1    1    2    0    0 -0.12212345270E+01  0.94170111196E+01  0.30439264289E+02  0.31886052164E+02  0.00000000000E+00 0. -1.
         11    1    3    3    0    0  0.14437557540E+02  0.11726799635E+02 -0.75252667597E+01  0.20064658917E+02  0.51100000000E-03 0. -1.
        -11    1    3    3    0    0 -0.33955090927E+01 -0.11725381897E+02 -0.22530233049E+02  0.25624704177E+02  0.51100000000E-03 0.  1.
         12    1    3    3    0    0 -0.98208139198E+01 -0.94184288571E+01 -0.38376447979E+00  0.13612584742E+02  0.00000000000E+00 0. -1.
</event>
<event>
 7    1  0.7578565E-012  0.5930192E+02  0.7816164E-02  0.1266605E+00
        -11   -1    0    0    0    0  0.00000000000E+00  0.00000000000E+00  0.45593999997E+02  0.45594000000E+02  0.51100000000E-03 0.  1.
         11   -1    0    0    0    0 -0.00000000000E+00 -0.00000000000E+00 -0.45593999997E+02  0.45594000000E+02  0.51100000000E-03 0. -1.
    9900012    2    1    2    0    0 -0.35436624289E+01  0.13651875999E+02  0.28597039558E+02  0.59301922581E+02  0.49999960886E+02 0.  0.
         12    1    1    2    0    0  0.35436624289E+01 -0.13651875999E+02 -0.28597039558E+02  0.31886077419E+02  0.00000000000E+00 0. -1.
         11    1    3    3    0    0 -0.16980794362E+01 -0.13083552613E+02  0.59755269493E+01  0.14483430027E+02  0.51100000000E-03 0. -1.
        -11    1    3    3    0    0  0.10848780434E+02  0.12759173729E+02  0.19460510760E+02  0.25674968947E+02  0.51100000000E-03 0.  1.
         12    1    3    3    0    0 -0.12694363427E+02  0.13976254884E+02  0.31610018491E+01  0.19143523607E+02  0.00000000000E+00 0. -1.
</event>
<event>
 7    1  0.7578565E-012  0.5930157E+02  0.7816164E-02  0.1266606E+00
        -11   -1    0    0    0    0  0.00000000000E+00  0.00000000000E+00  0.45593999997E+02  0.45594000000E+02  0.51100000000E-03 0. -1.
         11   -1    0    0    0    0 -0.00000000000E+00 -0.00000000000E+00 -0.45593999997E+02  0.45594000000E+02  0.51100000000E-03 0.  1.
    9900012    2    1    2    0    0  0.25267572906E+02 -0.19429586295E+02 -0.88622437396E+00  0.59301569378E+02  0.49999316725E+02 0.  0.
         12    1    1    2    0    0 -0.25267572906E+02  0.19429586295E+02  0.88622437396E+00  0.31886430622E+02  0.00000000000E+00 0. -1.
         11    1    3    3    0    0  0.16376735366E+02 -0.18676236136E+02  0.22263072653E+02  0.33356313670E+02  0.51100000000E-03 0. -1.
        -11    1    3    3    0    0  0.33097345343E+01 -0.40022172286E+01 -0.11686502771E+02  0.12788527387E+02  0.51100000000E-03 0.  1.
         12    1    3    3    0    0  0.55811030053E+01  0.32488670694E+01 -0.11462794255E+02  0.13156728322E+02  0.00000000000E+00 0. -1.
</event>
<event>
 7    1  0.7578565E-012  0.5930225E+02  0.7816164E-02  0.1266604E+00
        -11   -1    0    0    0    0  0.00000000000E+00  0.00000000000E+00  0.45593999997E+02  0.45594000000E+02  0.51100000000E-03 0. -1.
         11   -1    0    0    0    0 -0.00000000000E+00 -0.00000000000E+00 -0.45593999997E+02  0.45594000000E+02  0.51100000000E-03 0.  1.
    9900012    2    1    2    0    0  0.11645401589E+02  0.14140018439E+02 -0.26098762688E+02  0.59302252189E+02  0.50000562009E+02 0.  0.
         12    1    1    2    0    0 -0.11645401589E+02 -0.14140018439E+02  0.26098762688E+02  0.31885747811E+02  0.00000000000E+00 0. -1.
         11    1    3    3    0    0 -0.11436126417E+02  0.41891260550E+01 -0.98333185539E+01  0.15653367644E+02  0.51100000000E-03 0.  1.
        -11    1    3    3    0    0  0.16500894216E+02 -0.97429051176E+01 -0.11487729882E+02  0.22342149587E+02  0.51100000000E-03 0. -1.
        -12    1    3    3    0    0  0.65806337909E+01  0.19693797502E+02 -0.47777142521E+01  0.21306734959E+02  0.00000000000E+00 0.  1.
</event>
<event>
 7    1  0.7578565E-012  0.5930197E+02  0.7816164E-02  0.1266605E+00
        -11   -1    0    0    0    0  0.00000000000E+00  0.00000000000E+00  0.45593999997E+02  0.45594000000E+02  0.51100000000E-03 0.  1.
         11   -1    0    0    0    0 -0.00000000000E+00 -0.00000000000E+00 -0.45593999997E+02  0.45594000000E+02  0.51100000000E-03 0. -1.
    9900012    2    1    2    0    0  0.12295729890E+02 -0.70313763031E+01  0.28567352588E+02  0.59301970768E+02  0.50000048769E+02 0.  0.
         12    1    1    2    0    0 -0.12295729890E+02  0.70313763031E+01 -0.28567352588E+02  0.31886029232E+02  0.00000000000E+00 0. -1.
         11    1    3    3    0    0 -0.59960036841E+00  0.36680560209E+01 -0.10920727550E+02  0.11535876476E+02  0.51100000000E-03 0. -1.
        -11    1    3    3    0    0  0.34393511549E+01 -0.15524490274E+02  0.27387914713E+02  0.31669177558E+02  0.51100000000E-03 0.  1.
        -12    1    3    3    0    0  0.94559791036E+01  0.48250579496E+01  0.12100165426E+02  0.16096916734E+02  0.00000000000E+00 0.  1.
</event>
<event>
 7    1  0.7578565E-012  0.5930193E+02  0.7816164E-02  0.1266605E+00
        -11   -1    0    0    0    0  0.00000000000E+00  0.00000000000E+00  0.45593999997E+02  0.45594000000E+02  0.51100000000E-03 0. -1.
         11   -1    0    0    0    0 -0.00000000000E+00 -0.00000000000E+00 -0.45593999997E+02  0.45594000000E+02  0.51100000000E-03 0.  1.
    9900012    2    1    2    0    0 -0.63018877821E+01 -0.25449836287E+02 -0.18146991859E+02  0.59301932977E+02  0.49999979846E+02 0.  0.
         12    1    1    2    0    0  0.63018877821E+01  0.25449836287E+02  0.18146991859E+02  0.31886067023E+02  0.00000000000E+00 0. -1.
         11    1    3    3    0    0 -0.78117439961E+01  0.88725640510E+00 -0.56569523515E+01  0.96856428985E+01  0.51100000000E-03 0. -1.
        -11    1    3    3    0    0  0.18572735715E+02 -0.13178697240E+02  0.31514303926E+01  0.22990347684E+02  0.51100000000E-03 0.  1.
        -12    1    3    3    0    0 -0.17062879501E+02 -0.13158395453E+02 -0.15641469900E+02  0.26625942394E+02  0.00000000000E+00 0.  1.
</event>
<event>
 7    1  0.7578565E-012  0.5930194E+02  0.7816164E-02  0.1266605E+00
        -11   -1    0    0    0    0  0.00000000000E+00  0.00000000000E+00  0.45593999997E+02  0.45594000000E+02  0.51100000000E-03 0.  1.
         11   -1    0    0    0    0 -0.00000000000E+00 -0.00000000000E+00 -0.45593999997E+02  0.45594000000E+02  0.51100000000E-03 0. -1.
    9900012    2    1    2    0    0  0.28125066501E+02 -0.97048322736E+01  0.11468125905E+02  0.59301936478E+02  0.49999986231E+02 0.  0.
         12    1    1    2    0    0 -0.28125066501E+02  0.97048322736E+01 -0.11468125905E+02  0.31886063522E+02  0.00000000000E+00 0. -1.
         11    1    3    3    0    0  0.30114099746E+02  0.19944515360E+01 -0.39084258865E+01  0.30432098738E+02  0.51100000000E-03 0. -1.
        -11    1    3    3    0    0 -0.58760977216E+01  0.24625259011E+01  0.12319444752E+02  0.13869436813E+02  0.51100000000E-03 0.  1.
        -12    1    3    3    0    0  0.38870644768E+01 -0.14161809711E+02  0.30571070400E+01  0.15000400927E+02  0.00000000000E+00 0.  1.
</event>
<event>
 7    1  0.7578565E-012  0.5930193E+02  0.7816164E-02  0.1266605E+00
        -11   -1    0    0    0    0  0.00000000000E+00  0.00000000000E+00  0.45593999997E+02  0.45594000000E+02  0.51100000000E-03 0. -1.
         11   -1    0    0    0    0 -0.00000000000E+00 -0.00000000000E+00 -0.45593999997E+02  0.45594000000E+02  0.51100000000E-03 0.  1.
    9900012    2    1    2    0    0  0.20702121407E+02 -0.13448740767E+02 -0.20181049496E+02  0.59301933800E+02  0.49999981347E+02 0.  0.
         12    1    1    2    0    0 -0.20702121407E+02  0.13448740767E+02  0.20181049496E+02  0.31886066200E+02  0.00000000000E+00 0. -1.
         11    1    3    3    0    0 -0.81802958301E+01  0.96124565121E+01 -0.23295214547E+01  0.12835233949E+02  0.51100000000E-03 0. -1.
        -11    1    3    3    0    0  0.20524957787E+02 -0.24159350217E+02 -0.20355292036E+02  0.37673412498E+02  0.51100000000E-03 0.  1.
        -12    1    3    3    0    0  0.83574594498E+01  0.10981529381E+01  0.25037639949E+01  0.87932873530E+01  0.00000000000E+00 0.  1.
</event>
<event>
 7    1  0.7578565E-012  0.5930191E+02  0.7816164E-02  0.1266605E+00
        -11   -1    0    0    0    0  0.00000000000E+00  0.00000000000E+00  0.45593999997E+02  0.45594000000E+02  0.51100000000E-03 0.  1.
         11   -1    0    0    0    0 -0.00000000000E+00 -0.00000000000E+00 -0.45593999997E+02  0.45594000000E+02  0.51100000000E-03 0. -1.
    9900012    2    1    2    0    0 -0.31024590629E+02 -0.72824490673E+01 -0.10786349919E+01  0.59301909905E+02  0.49999937769E+02 0.  0.
         12    1    1    2    0    0  0.31024590629E+02  0.72824490673E+01  0.10786349919E+01  0.31886090095E+02  0.00000000000E+00 0. -1.
         11    1    3    3    0    0 -0.26736140576E+02  0.51652455737E+01 -0.57222008453E+01  0.27825250358E+02  0.51100000000E-03 0.  1.
        -11    1    3    3    0    0  0.57803924908E+01 -0.88476091975E+01 -0.91808599536E+01  0.13999332684E+02  0.51100000000E-03 0. -1.
        -12    1    3    3    0    0 -0.10068842544E+02 -0.36000854434E+01  0.13824425807E+02  0.17477326863E+02  0.00000000000E+00 0.  1.
</event>
<event>
 7    1  0.7578565E-012  0.5930195E+02  0.7816164E-02  0.1266605E+00
        -11   -1    0    0    0    0  0.00000000000E+00  0.00000000000E+00  0.45593999997E+02  0.45594000000E+02  0.51100000000E-03 0. -1.
         11   -1    0    0    0    0 -0.00000000000E+00 -0.00000000000E+00 -0.45593999997E+02  0.45594000000E+02  0.51100000000E-03 0.  1.
    9900012    2    1    2    0    0  0.91683584632E+01  0.13065813674E+02 -0.27603364159E+02  0.59301952946E+02  0.50000016264E+02 0.  0.
         12    1    1    2    0    0 -0.91683584632E+01 -0.13065813674E+02  0.27603364159E+02  0.31886047054E+02  0.00000000000E+00 0. -1.
         11    1    3    3    0    0  0.87918513273E+01  0.19873661421E+02 -0.29558558098E+02  0.36687428707E+02  0.51100000000E-03 0. -1.
        -11    1    3    3    0    0  0.80395729764E+01 -0.10979985766E+02 -0.26522680373E+00  0.13611214736E+02  0.51100000000E-03 0.  1.
         12    1    3    3    0    0 -0.76630658404E+01  0.41721380196E+01  0.22204207433E+01  0.90033095030E+01  0.00000000000E+00 0. -1.
</event>
<event>
 7    1  0.7578565E-012  0.5930195E+02  0.7816164E-02  0.1266605E+00
        -11   -1    0    0    0    0  0.00000000000E+00  0.00000000000E+00  0.45593999997E+02  0.45594000000E+02  0.51100000000E-03 0.  1.
         11   -1    0    0    0    0 -0.00000000000E+00 -0.00000000000E+00 -0.45593999997E+02  0.45594000000E+02  0.51100000000E-03 0. -1.
    9900012    2    1    2    0    0 -0.46619867989E+01 -0.63456947905E+01  0.30898518837E+02  0.59301946158E+02  0.50000003885E+02 0.  0.
         12    1    1    2    0    0  0.46619867989E+01  0.63456947905E+01 -0.30898518837E+02  0.31886053842E+02  0.00000000000E+00 0. -1.
         11    1    3    3    0    0  0.43027120940E+01 -0.11987090920E+02  0.18515804147E+01  0.12869810814E+02  0.51100000000E-03 0. -1.
        -11    1    3    3    0    0 -0.11836768239E-01  0.10797744174E+02  0.33488538495E+02  0.35186270478E+02  0.51100000000E-03 0.  1.
        -12    1    3    3    0    0 -0.89528621247E+01 -0.51563480445E+01 -0.44416000728E+01  0.11245864866E+02  0.00000000000E+00 0.  1.
</event>
<event>
 7    1  0.7578565E-012  0.5930196E+02  0.7816164E-02  0.1266605E+00
        -11   -1    0    0    0    0  0.00000000000E+00  0.00000000000E+00  0.45593999997E+02  0.45594000000E+02  0.51100000000E-03 0. -1.
         11   -1    0    0    0    0 -0.00000000000E+00 -0.00000000000E+00 -0.45593999997E+02  0.45594000000E+02  0.51100000000E-03 0.  1.
    9900012    2    1    2    0    0  0.30361254196E+02  0.69610223860E+01 -0.68159880308E+01  0.59301964156E+02  0.50000036709E+02 0.  0.
         12    1    1    2    0    0 -0.30361254196E+02 -0.69610223860E+01  0.68159880308E+01  0.31886035844E+02  0.00000000000E+00 0. -1.
         11    1    3    3    0    0  0.23557375176E+02  0.11569422394E+02 -0.43539295010E+01  0.26603724590E+02  0.51100000000E-03 0.  1.
        -11    1    3    3    0    0 -0.92013213531E+01 -0.36065474318E+01 -0.10786859851E+02  0.14629690521E+02  0.51100000000E-03 0. -1.
         12    1    3    3    0    0  0.16005200373E+02 -0.10018525758E+01  0.83248013214E+01  0.18068549046E+02  0.00000000000E+00 0. -1.
</event>
<event>
 7    1  0.7578565E-012  0.5930197E+02  0.7816164E-02  0.1266605E+00
        -11   -1    0    0    0    0  0.00000000000E+00  0.00000000000E+00  0.45593999997E+02  0.45594000000E+02  0.51100000000E-03 0. -1.
         11   -1    0    0    0    0 -0.00000000000E+00 -0.00000000000E+00 -0.45593999997E+02  0.45594000000E+02  0.51100000000E-03 0.  1.
    9900012    2    1    2    0    0 -0.21345673780E+02  0.66254095229E+01 -0.22741704274E+02  0.59301969301E+02  0.50000046092E+02 0.  0.
         12    1    1    2    0    0  0.21345673780E+02 -0.66254095229E+01  0.22741704274E+02  0.31886030699E+02  0.00000000000E+00 0. -1.
         11    1    3    3    0    0 -0.45932341361E+01  0.51188409045E+01 -0.24485741390E+02  0.25433282598E+02  0.51100000000E-03 0.  1.
        -11    1    3    3    0    0 -0.14611816655E+02  0.51901432676E+01  0.14001317529E+02  0.20892095776E+02  0.51100000000E-03 0. -1.
        -12    1    3    3    0    0 -0.21406229882E+01 -0.36835746492E+01 -0.12257280413E+02  0.12976590927E+02  0.00000000000E+00 0.  1.
</event>
<event>
 7    1  0.7578565E-012  0.5930196E+02  0.7816164E-02  0.1266605E+00
        -11   -1    0    0    0    0  0.00000000000E+00  0.00000000000E+00  0.45593999997E+02  0.45594000000E+02  0.51100000000E-03 0.  1.
         11   -1    0    0    0    0 -0.00000000000E+00 -0.00000000000E+00 -0.45593999997E+02  0.45594000000E+02  0.51100000000E-03 0. -1.
    9900012    2    1    2    0    0 -0.13439317105E+02  0.28231651817E+02  0.62512508809E+01  0.59301960012E+02  0.50000029151E+02 0.  0.
         12    1    1    2    0    0  0.13439317105E+02 -0.28231651817E+02 -0.62512508809E+01  0.31886039988E+02  0.00000000000E+00 0. -1.
         11    1    3    3    0    0 -0.15697138143E+02  0.32357894303E+02  0.76372446764E+01  0.36766302182E+02  0.51100000000E-03 0.  1.
        -11    1    3    3    0    0  0.11372957974E+02 -0.19136970729E+01  0.33752510095E+01  0.12016602232E+02  0.51100000000E-03 0. -1.
         12    1    3    3    0    0 -0.91151369359E+01 -0.22125454129E+01 -0.47612448050E+01  0.10519055597E+02  0.00000000000E+00 0. -1.
</event>
<event>
 7    1  0.7578565E-012  0.5930196E+02  0.7816164E-02  0.1266605E+00
        -11   -1    0    0    0    0  0.00000000000E+00  0.00000000000E+00  0.45593999997E+02  0.45594000000E+02  0.51100000000E-03 0.  1.
         11   -1    0    0    0    0 -0.00000000000E+00 -0.00000000000E+00 -0.45593999997E+02  0.45594000000E+02  0.51100000000E-03 0. -1.
    9900012    2    1    2    0    0  0.31778459146E+02  0.10843010724E+01  0.23819067449E+01  0.59301958316E+02  0.50000026059E+02 0.  0.
         12    1    1    2    0    0 -0.31778459146E+02 -0.10843010724E+01 -0.23819067449E+01  0.31886041684E+02  0.00000000000E+00 0. -1.
         11    1    3    3    0    0  0.23487544538E+02 -0.78714995135E+01 -0.21240441391E+02  0.32630991461E+02  0.51100000000E-03 0. -1.
        -11    1    3    3    0    0  0.52266333255E+01  0.55159489310E+01  0.12445789134E+02  0.14582217114E+02  0.51100000000E-03 0.  1.
         12    1    3    3    0    0  0.30642812824E+01  0.34398516549E+01  0.11176559001E+02  0.12088749741E+02  0.00000000000E+00 0. -1.
</event>
<event>
 7    1  0.7578565E-012  0.5930194E+02  0.7816164E-02  0.1266605E+00
        -11   -1    0    0    0    0  0.00000000000E+00  0.00000000000E+00  0.45593999997E+02  0.45594000000E+02  0.51100000000E-03 0.  1.
         11   -1    0    0    0    0 -0.00000000000E+00 -0.00000000000E+00 -0.45593999997E+02  0.45594000000E+02  0.51100000000E-03 0. -1.
    9900012    2    1    2    0    0  0.98706930367E+01  0.62165372865E+01  0.29675659222E+02  0.59301942433E+02  0.49999997092E+02 0.  0.
         12    1    1    2    0    0 -0.98706930367E+01 -0.62165372865E+01 -0.29675659222E+02  0.31886057567E+02  0.00000000000E+00 0. -1.
         11    1    3    3    0    0 -0.86184696830E+00 -0.59064359844E+01 -0.96385866421E+01  0.11337156564E+02  0.51100000000E-03 0. -1.
        -11    1    3    3    0    0  0.20294113145E+01  0.17254967388E+02  0.24871251145E+02  0.30338614728E+02  0.51100000000E-03 0.  1.
         12    1    3    3    0    0  0.87031286905E+01 -0.51319941174E+01  0.14442994720E+02  0.17626171141E+02  0.00000000000E+00 0. -1.
</event>
<event>
 7    1  0.7578565E-012  0.5930194E+02  0.7816164E-02  0.1266605E+00
        -11   -1    0    0    0    0  0.00000000000E+00  0.00000000000E+00  0.45593999997E+02  0.45594000000E+02  0.51100000000E-03 0.  1.
         11   -1    0    0    0    0 -0.00000000000E+00 -0.00000000000E+00 -0.45593999997E+02  0.45594000000E+02  0.51100000000E-03 0. -1.
    9900012    2    1    2    0    0  0.25681914783E+02 -0.36408627594E+01  0.18544660275E+02  0.59301936379E+02  0.49999986050E+02 0.  0.
         12    1    1    2    0    0 -0.25681914783E+02  0.36408627594E+01 -0.18544660275E+02  0.31886063621E+02  0.00000000000E+00 0. -1.
         11    1    3    3    0    0  0.93851254607E+01  0.14021734380E+02 -0.95730069905E+01  0.19399280348E+02  0.51100000000E-03 0. -1.
        -11    1    3    3    0    0  0.15751488914E+02 -0.64357305167E+01  0.18162272873E+02  0.24887671375E+02  0.51100000000E-03 0.  1.
         12    1    3    3    0    0  0.54530040825E+00 -0.11226866623E+02  0.99553943923E+01  0.15014984656E+02  0.00000000000E+00 0. -1.
</event>
<event>
 7    1  0.7578565E-012  0.5930198E+02  0.7816164E-02  0.1266605E+00
        -11   -1    0    0    0    0  0.00000000000E+00  0.00000000000E+00  0.45593999997E+02  0.45594000000E+02  0.51100000000E-03 0.  1.
         11   -1    0    0    0    0 -0.00000000000E+00 -0.00000000000E+00 -0.45593999997E+02  0.45594000000E+02  0.51100000000E-03 0. -1.
    9900012    2    1    2    0    0  0.10421763396E+02 -0.86746816602E+01  0.28859226799E+02  0.59301980718E+02  0.50000066915E+02 0.  0.
         12    1    1    2    0    0 -0.10421763396E+02  0.86746816602E+01 -0.28859226799E+02  0.31886019282E+02  0.00000000000E+00 0. -1.
         11    1    3    3    0    0  0.23547310205E+02 -0.76271229301E+01  0.18497092316E+02  0.30899696544E+02  0.51100000000E-03 0.  1.
        -11    1    3    3    0    0 -0.76603253882E+01 -0.59487649384E+01 -0.53379089781E+01  0.11070757059E+02  0.51100000000E-03 0. -1.
         12    1    3    3    0    0 -0.54652214211E+01  0.49012062083E+01  0.15700043461E+02  0.17331527115E+02  0.00000000000E+00 0. -1.
</event>
<event>
 7    1  0.7578565E-012  0.5930195E+02  0.7816164E-02  0.1266605E+00
        -11   -1    0    0    0    0  0.00000000000E+00  0.00000000000E+00  0.45593999997E+02  0.45594000000E+02  0.51100000000E-03 0.  1.
         11   -1    0    0    0    0 -0.00000000000E+00 -0.00000000000E+00 -0.45593999997E+02  0.45594000000E+02  0.51100000000E-03 0. -1.
    9900012    2    1    2    0    0  0.49253622409E+01  0.47887900256E+01  0.31137250473E+02  0.59301951795E+02  0.50000014165E+02 0.  0.
         12    1    1    2    0    0 -0.49253622409E+01 -0.47887900256E+01 -0.31137250473E+02  0.31886048205E+02  0.00000000000E+00 0. -1.
         11    1    3    3    0    0  0.49508166850E+01 -0.89773936534E+01 -0.32583387646E+01  0.10757367449E+02  0.51100000000E-03 0. -1.
        -11    1    3    3    0    0 -0.53461165169E+01  0.22249971637E+02  0.17128446733E+02  0.28583664695E+02  0.51100000000E-03 0.  1.
         12    1    3    3    0    0  0.53206620728E+01 -0.84837879585E+01  0.17267142505E+02  0.19960919651E+02  0.00000000000E+00 0. -1.
</event>
<event>
 7    1  0.7578565E-012  0.5930196E+02  0.7816164E-02  0.1266605E+00
        -11   -1    0    0    0    0  0.00000000000E+00  0.00000000000E+00  0.45593999997E+02  0.45594000000E+02  0.51100000000E-03 0.  1.
         11   -1    0    0    0    0 -0.00000000000E+00 -0.00000000000E+00 -0.45593999997E+02  0.45594000000E+02  0.51100000000E-03 0. -1.
    9900012    2    1    2    0    0  0.17340951784E+02  0.24888898192E+02  0.98261591390E+01  0.59301964414E+02  0.50000037179E+02 0.  0.
         12    1    1    2    0    0 -0.17340951784E+02 -0.24888898192E+02 -0.98261591390E+01  0.31886035586E+02  0.00000000000E+00 0. -1.
         11    1    3    3    0    0  0.72738120606E+01  0.13007861299E+02 -0.18852333050E+02  0.24031713612E+02  0.51100000000E-03 0. -1.
        -11    1    3    3    0    0 -0.33285288219E+01  0.27696980066E+01  0.59472227077E+01  0.73566153469E+01  0.51100000000E-03 0.  1.
         12    1    3    3    0    0  0.13395668545E+02  0.91113388867E+01  0.22731269481E+02  0.27913635455E+02  0.00000000000E+00 0. -1.
</event>
<event>
 7    1  0.7578565E-012  0.5930195E+02  0.7816164E-02  0.1266605E+00
        -11   -1    0    0    0    0  0.00000000000E+00  0.00000000000E+00  0.45593999997E+02  0.45594000000E+02  0.51100000000E-03 0. -1.
         11   -1    0    0    0    0 -0.00000000000E+00 -0.00000000000E+00 -0.45593999997E+02  0.45594000000E+02  0.51100000000E-03 0.  1.
    9900012    2    1    2    0    0  0.11070769183E+02  0.29821376470E+02 -0.22007927195E+01  0.59301954252E+02  0.50000018647E+02 0.  0.
         12    1    1    2    0    0 -0.11070769183E+02 -0.29821376470E+02  0.22007927195E+01  0.31886045748E+02  0.00000000000E+00 0. -1.
         11    1    3    3    0    0  0.15647367110E+02  0.14099532139E+02 -0.14373127290E+02  0.25499484159E+02  0.51100000000E-03 0. -1.
        -11    1    3    3    0    0 -0.57772152374E+01  0.21105530900E+02  0.15983613932E+02  0.27097888572E+02  0.51100000000E-03 0.  1.
         12    1    3    3    0    0  0.12006173102E+01 -0.53836865697E+01 -0.38112793610E+01  0.67045815211E+01  0.00000000000E+00 0. -1.
</event>
<event>
 7    1  0.7578565E-012  0.5930199E+02  0.7816164E-02  0.1266605E+00
        -11   -1    0    0    0    0  0.00000000000E+00  0.00000000000E+00  0.45593999997E+02  0.45594000000E+02  0.51100000000E-03 0.  1.
         11   -1    0    0    0    0 -0.00000000000E+00 -0.00000000000E+00 -0.45593999997E+02  0.45594000000E+02  0.51100000000E-03 0. -1.
    9900012    2    1    2    0    0  0.22837263537E+02  0.63784288387E+00  0.22243434437E+02  0.59301987001E+02  0.50000078374E+02 0.  0.
         12    1    1    2    0    0 -0.22837263537E+02 -0.63784288387E+00 -0.22243434437E+02  0.31886012999E+02  0.00000000000E+00 0. -1.
         11    1    3    3    0    0  0.37679159016E+01  0.16654963056E+02  0.96765070343E+01  0.19627016413E+02  0.51100000000E-03 0. -1.
        -11    1    3    3    0    0  0.14077961179E+02 -0.17396402877E+02 -0.36288988582E+01  0.22671407791E+02  0.51100000000E-03 0.  1.
        -12    1    3    3    0    0  0.49913864561E+01  0.13792827050E+01  0.16195826261E+02  0.17003562798E+02  0.00000000000E+00 0.  1.
</event>
<event>
 7    1  0.7578565E-012  0.5930194E+02  0.7816164E-02  0.1266605E+00
        -11   -1    0    0    0    0  0.00000000000E+00  0.00000000000E+00  0.45593999997E+02  0.45594000000E+02  0.51100000000E-03 0.  1.
         11   -1    0    0    0    0 -0.00000000000E+00 -0.00000000000E+00 -0.45593999997E+02  0.45594000000E+02  0.51100000000E-03 0. -1.
    9900012    2    1    2    0    0 -0.52185240316E+01 -0.30317712694E+02 -0.83859668006E+01  0.59301935093E+02  0.49999983705E+02 0.  0.
         12    1    1    2    0    0  0.52185240316E+01  0.30317712694E+02  0.83859668006E+01  0.31886064907E+02  0.00000000000E+00 0. -1.
         11    1    3    3    0    0  0.14099687775E+01 -0.14101895348E+01 -0.24511798054E+02  0.24592781270E+02  0.51100000000E-03 0. -1.
        -11    1    3    3    0    0 -0.20808323543E+00 -0.16306021013E+02  0.10979619172E+02  0.19659136739E+02  0.51100000000E-03 0.  1.
         12    1    3    3    0    0 -0.64204095736E+01 -0.12601502147E+02  0.51462120813E+01  0.15050017084E+02  0.00000000000E+00 0. -1.
</event>
<event>
 7    1  0.7578565E-012  0.5930224E+02  0.7816164E-02  0.1266604E+00
        -11   -1    0    0    0    0  0.00000000000E+00  0.00000000000E+00  0.45593999997E+02  0.45594000000E+02  0.51100000000E-03 0.  1.
         11   -1    0    0    0    0 -0.00000000000E+00 -0.00000000000E+00 -0.45593999997E+02  0.45594000000E+02  0.51100000000E-03 0. -1.
    9900012    2    1    2    0    0 -0.16447931965E+02 -0.24386421404E+02  0.12307301650E+02  0.59302240033E+02  0.50000539839E+02 0.  0.
         12    1    1    2    0    0  0.16447931965E+02  0.24386421404E+02 -0.12307301650E+02  0.31885759967E+02  0.00000000000E+00 0. -1.
         11    1    3    3    0    0  0.40069807855E+01  0.76582588287E+01  0.17846685552E+02  0.19829498449E+02  0.51100000000E-03 0. -1.
        -11    1    3    3    0    0 -0.58677660445E+01 -0.17390559111E+02 -0.15935595649E+01  0.18422856915E+02  0.51100000000E-03 0.  1.
         12    1    3    3    0    0 -0.14587146706E+02 -0.14654121121E+02 -0.39458243372E+01  0.21049884668E+02  0.00000000000E+00 0. -1.
</event>
<event>
 7    1  0.7578565E-012  0.5930194E+02  0.7816164E-02  0.1266605E+00
        -11   -1    0    0    0    0  0.00000000000E+00  0.00000000000E+00  0.45593999997E+02  0.45594000000E+02  0.51100000000E-03 0.  1.
         11   -1    0    0    0    0 -0.00000000000E+00 -0.00000000000E+00 -0.45593999997E+02  0.45594000000E+02  0.51100000000E-03 0. -1.
    9900012    2    1    2    0    0 -0.28010289150E+02  0.12049765145E+01  0.15188559599E+02  0.59301943339E+02  0.49999998744E+02 0.  0.
         12    1    1    2    0    0  0.28010289150E+02 -0.12049765145E+01 -0.15188559599E+02  0.31886056661E+02  0.00000000000E+00 0. -1.
         11    1    3    3    0    0 -0.14106550313E+02 -0.22054985222E+02  0.15951965380E+02  0.30657500463E+02  0.51100000000E-03 0. -1.
        -11    1    3    3    0    0 -0.86041438377E+01  0.21196898733E+02  0.19385800963E+00  0.22877442783E+02  0.51100000000E-03 0.  1.
        -12    1    3    3    0    0 -0.52995949996E+01  0.20630630032E+01 -0.95726379038E+00  0.57670000936E+01  0.00000000000E+00 0.  1.
</event>
<event>
 7    1  0.7578565E-012  0.5930195E+02  0.7816164E-02  0.1266605E+00
        -11   -1    0    0    0    0  0.00000000000E+00  0.00000000000E+00  0.45593999997E+02  0.45594000000E+02  0.51100000000E-03 0. -1.
         11   -1    0    0    0    0 -0.00000000000E+00 -0.00000000000E+00 -0.45593999997E+02  0.45594000000E+02  0.51100000000E-03 0.  1.
    9900012    2    1    2    0    0  0.85819808888E+01  0.30691010702E+02 -0.10638067116E+01  0.59301949466E+02  0.50000009919E+02 0.  0.
         12    1    1    2    0    0 -0.85819808888E+01 -0.30691010702E+02  0.10638067116E+01  0.31886050534E+02  0.00000000000E+00 0. -1.
         11    1    3    3    0    0 -0.21601853015E+00  0.26120549278E+02  0.25818988655E+01  0.26248732552E+02  0.51100000000E-03 0. -1.
        -11    1    3    3    0    0  0.80927873098E+01 -0.10693352275E+02 -0.97694915982E+01  0.16591683328E+02  0.51100000000E-03 0.  1.
        -12    1    3    3    0    0  0.70521210913E+00  0.15263813699E+02  0.61237860211E+01  0.16461533586E+02  0.00000000000E+00 0.  1.
</event>
<event>
 7    1  0.7578565E-012  0.5930197E+02  0.7816164E-02  0.1266605E+00
        -11   -1    0    0    0    0  0.00000000000E+00  0.00000000000E+00  0.45593999997E+02  0.45594000000E+02  0.51100000000E-03 0.  1.
         11   -1    0    0    0    0 -0.00000000000E+00 -0.00000000000E+00 -0.45593999997E+02  0.45594000000E+02  0.51100000000E-03 0. -1.
    9900012    2    1    2    0    0  0.16083542913E+01  0.18995948873E+02  0.25559462962E+02  0.59301968198E+02  0.50000044082E+02 0.  0.
         12    1    1    2    0    0 -0.16083542913E+01 -0.18995948873E+02 -0.25559462962E+02  0.31886031802E+02  0.00000000000E+00 0. -1.
         11    1    3    3    0    0 -0.21695483097E+01  0.88009628377E+01 -0.11624749794E+02  0.14741054738E+02  0.51100000000E-03 0.  1.
        -11    1    3    3    0    0  0.39398634016E+01  0.17025235469E+02  0.23716777782E+02  0.29459577645E+02  0.51100000000E-03 0. -1.
         12    1    3    3    0    0 -0.16196080067E+00 -0.68302494335E+01  0.13467434975E+02  0.15101335816E+02  0.00000000000E+00 0. -1.
</event>
<event>
 7    1  0.7578565E-012  0.5930198E+02  0.7816164E-02  0.1266605E+00
        -11   -1    0    0    0    0  0.00000000000E+00  0.00000000000E+00  0.45593999997E+02  0.45594000000E+02  0.51100000000E-03 0.  1.
         11   -1    0    0    0    0 -0.00000000000E+00 -0.00000000000E+00 -0.45593999997E+02  0.45594000000E+02  0.51100000000E-03 0. -1.
    9900012    2    1    2    0    0 -0.10278491198E+02 -0.29474095046E+02  0.65075789613E+01  0.59301980430E+02  0.50000066388E+02 0.  0.
         12    1    1    2    0    0  0.10278491198E+02  0.29474095046E+02 -0.65075789613E+01  0.31886019570E+02  0.00000000000E+00 0. -1.
         11    1    3    3    0    0  0.36563390797E+01 -0.35375727485E+02  0.77654213168E+01  0.36402097179E+02  0.51100000000E-03 0. -1.
        -11    1    3    3    0    0 -0.25018768905E+01  0.44385643713E+01 -0.80458263993E+01  0.95234218830E+01  0.51100000000E-03 0.  1.
        -12    1    3    3    0    0 -0.11432953387E+02  0.14630680676E+01  0.67879840437E+01  0.13376461367E+02  0.00000000000E+00 0.  1.
</event>
<event>
 7    1  0.7578565E-012  0.5930193E+02  0.7816164E-02  0.1266605E+00
        -11   -1    0    0    0    0  0.00000000000E+00  0.00000000000E+00  0.45593999997E+02  0.45594000000E+02  0.51100000000E-03 0. -1.
         11   -1    0    0    0    0 -0.00000000000E+00 -0.00000000000E+00 -0.45593999997E+02  0.45594000000E+02  0.51100000000E-03 0.  1.
    9900012    2    1    2    0    0  0.17017617155E+01  0.29387613915E+02 -0.12255346708E+02  0.59301931451E+02  0.49999977063E+02 0.  0.
         12    1    1    2    0    0 -0.17017617155E+01 -0.29387613915E+02  0.12255346708E+02  0.31886068549E+02  0.00000000000E+00 0. -1.
         11    1    3    3    0    0  0.55766284633E+01  0.35614026735E+02 -0.44332613040E+01  0.36319574493E+02  0.51100000000E-03 0. -1.
        -11    1    3    3    0    0  0.58921441490E+01 -0.27683339139E+01 -0.10432848647E+02  0.12297372340E+02  0.51100000000E-03 0.  1.
         12    1    3    3    0    0 -0.97670108968E+01 -0.34580789056E+01  0.26107632424E+01  0.10684984618E+02  0.00000000000E+00 0. -1.
</event>
<event>
 7    1  0.7578565E-012  0.5930182E+02  0.7816164E-02  0.1266605E+00
        -11   -1    0    0    0    0  0.00000000000E+00  0.00000000000E+00  0.45593999997E+02  0.45594000000E+02  0.51100000000E-03 0.  1.
         11   -1    0    0    0    0 -0.00000000000E+00 -0.00000000000E+00 -0.45593999997E+02  0.45594000000E+02  0.51100000000E-03 0. -1.
    9900012    2    1    2    0    0  0.14868649550E+02 -0.98711832165E+01  0.26423696318E+02  0.59301816085E+02  0.49999766662E+02 0.  0.
         12    1    1    2    0    0 -0.14868649550E+02  0.98711832165E+01 -0.26423696318E+02  0.31886183915E+02  0.00000000000E+00 0. -1.
         11    1    3    3    0    0 -0.58590012754E+01 -0.38980987796E+01 -0.92792743427E+01  0.11645943613E+02  0.51100000000E-03 0. -1.
        -11    1    3    3    0    0  0.23289279017E+02 -0.67267005182E+01  0.19160409288E+02  0.30899195804E+02  0.51100000000E-03 0.  1.
         12    1    3    3    0    0 -0.25616281909E+01  0.75361608127E+00  0.16542561373E+02  0.16756676668E+02  0.00000000000E+00 0. -1.
</event>
<event>
 7    1  0.7578565E-012  0.5930194E+02  0.7816164E-02  0.1266605E+00
        -11   -1    0    0    0    0  0.00000000000E+00  0.00000000000E+00  0.45593999997E+02  0.45594000000E+02  0.51100000000E-03 0. -1.
         11   -1    0    0    0    0 -0.00000000000E+00 -0.00000000000E+00 -0.45593999997E+02  0.45594000000E+02  0.51100000000E-03 0.  1.
    9900012    2    1    2    0    0 -0.29301783429E+02 -0.68873576297E+01 -0.10520964075E+02  0.59301938902E+02  0.49999990653E+02 0.  0.
         12    1    1    2    0    0  0.29301783429E+02  0.68873576297E+01  0.10520964075E+02  0.31886061098E+02  0.00000000000E+00 0. -1.
         11    1    3    3    0    0 -0.65600213208E+01  0.22832236478E+01  0.52966249140E+01  0.87350572806E+01  0.51100000000E-03 0. -1.
        -11    1    3    3    0    0 -0.56475963978E+01 -0.24063642134E+02 -0.12350954136E+02  0.27631508937E+02  0.51100000000E-03 0.  1.
        -12    1    3    3    0    0 -0.17094165710E+02  0.14893060856E+02 -0.34666348536E+01  0.22935372685E+02  0.00000000000E+00 0.  1.
</event>
<event>
 7    1  0.7578565E-012  0.5930193E+02  0.7816164E-02  0.1266605E+00
        -11   -1    0    0    0    0  0.00000000000E+00  0.00000000000E+00  0.45593999997E+02  0.45594000000E+02  0.51100000000E-03 0.  1.
         11   -1    0    0    0    0 -0.00000000000E+00 -0.00000000000E+00 -0.45593999997E+02  0.45594000000E+02  0.51100000000E-03 0. -1.
    9900012    2    1    2    0    0 -0.17016253690E+02  0.73080332307E+00  0.26956154627E+02  0.59301933522E+02  0.49999980840E+02 0.  0.
         12    1    1    2    0    0  0.17016253690E+02 -0.73080332307E+00 -0.26956154627E+02  0.31886066478E+02  0.00000000000E+00 0. -1.
         11    1    3    3    0    0 -0.13399545185E+02 -0.14079556236E+02 -0.39776754057E+01  0.19839445982E+02  0.51100000000E-03 0. -1.
        -11    1    3    3    0    0  0.60072001474E+01  0.20788023423E+01  0.24506001346E+01  0.68127317627E+01  0.51100000000E-03 0.  1.
         12    1    3    3    0    0 -0.96239086518E+01  0.12731557216E+02  0.28483229899E+02  0.32649755778E+02  0.00000000000E+00 0. -1.
</event>
<event>
 7    1  0.7578565E-012  0.5930195E+02  0.7816164E-02  0.1266605E+00
        -11   -1    0    0    0    0  0.00000000000E+00  0.00000000000E+00  0.45593999997E+02  0.45594000000E+02  0.51100000000E-03 0.  1.
         11   -1    0    0    0    0 -0.00000000000E+00 -0.00000000000E+00 -0.45593999997E+02  0.45594000000E+02  0.51100000000E-03 0. -1.
    9900012    2    1    2    0    0 -0.61276129100E+00 -0.31681788671E+02 -0.35509546880E+01  0.59301945227E+02  0.50000002187E+02 0.  0.
         12    1    1    2    0    0  0.61276129100E+00  0.31681788671E+02  0.35509546880E+01  0.31886054773E+02  0.00000000000E+00 0. -1.
         11    1    3    3    0    0 -0.94323245891E+01  0.87223547590E+01  0.21699564257E+01  0.13029080200E+02  0.51100000000E-03 0. -1.
        -11    1    3    3    0    0  0.10961542782E+01 -0.32765687736E+02 -0.10473050525E+02  0.34416226327E+02  0.51100000000E-03 0.  1.
        -12    1    3    3    0    0  0.77234090199E+01 -0.76384556939E+01  0.47521394116E+01  0.11856638700E+02  0.00000000000E+00 0.  1.
</event>
<event>
 7    1  0.7578565E-012  0.5930192E+02  0.7816164E-02  0.1266605E+00
        -11   -1    0    0    0    0  0.00000000000E+00  0.00000000000E+00  0.45593999997E+02  0.45594000000E+02  0.51100000000E-03 0.  1.
         11   -1    0    0    0    0 -0.00000000000E+00 -0.00000000000E+00 -0.45593999997E+02  0.45594000000E+02  0.51100000000E-03 0. -1.
    9900012    2    1    2    0    0 -0.23008120383E+02  0.78733659688E+01  0.20624221460E+02  0.59301921438E+02  0.49999958801E+02 0.  0.
         12    1    1    2    0    0  0.23008120383E+02 -0.78733659688E+01 -0.20624221460E+02  0.31886078562E+02  0.00000000000E+00 0. -1.
         11    1    3    3    0    0 -0.17915052838E+02 -0.94316216394E+01  0.56364491714E+00  0.20253945314E+02  0.51100000000E-03 0. -1.
        -11    1    3    3    0    0  0.18431550535E+01  0.11601154444E+02  0.25829003317E+02  0.28374661542E+02  0.51100000000E-03 0.  1.
        -12    1    3    3    0    0 -0.69362225991E+01  0.57038331640E+01 -0.57684267747E+01  0.10673314582E+02  0.00000000000E+00 0.  1.
</event>
<event>
 7    1  0.7578565E-012  0.5930195E+02  0.7816164E-02  0.1266605E+00
        -11   -1    0    0    0    0  0.00000000000E+00  0.00000000000E+00  0.45593999997E+02  0.45594000000E+02  0.51100000000E-03 0. -1.
         11   -1    0    0    0    0 -0.00000000000E+00 -0.00000000000E+00 -0.45593999997E+02  0.45594000000E+02  0.51100000000E-03 0.  1.
    9900012    2    1    2    0    0 -0.14619522231E+02  0.22662938024E+02 -0.17011208897E+02  0.59301946336E+02  0.50000004209E+02 0.  0.
         12    1    1    2    0    0  0.14619522231E+02 -0.22662938024E+02  0.17011208897E+02  0.31886053664E+02  0.00000000000E+00 0. -1.
         11    1    3    3    0    0 -0.33514299757E+01  0.26594878019E+01  0.25437818913E+01  0.49775279831E+01  0.51100000000E-03 0. -1.
        -11    1    3    3    0    0 -0.10349247492E+02  0.25687609477E+02 -0.30965751148E+02  0.41543205807E+02  0.51100000000E-03 0.  1.
        -12    1    3    3    0    0 -0.91884476326E+00 -0.56841592556E+01  0.11410760360E+02  0.12781212545E+02  0.00000000000E+00 0.  1.
</event>
<event>
 7    1  0.7578565E-012  0.5930194E+02  0.7816164E-02  0.1266605E+00
        -11   -1    0    0    0    0  0.00000000000E+00  0.00000000000E+00  0.45593999997E+02  0.45594000000E+02  0.51100000000E-03 0.  1.
         11   -1    0    0    0    0 -0.00000000000E+00 -0.00000000000E+00 -0.45593999997E+02  0.45594000000E+02  0.51100000000E-03 0. -1.
    9900012    2    1    2    0    0 -0.14053352822E+02  0.28621205078E+02  0.22574541511E+00  0.59301936169E+02  0.49999985667E+02 0.  0.
         12    1    1    2    0    0  0.14053352822E+02 -0.28621205078E+02 -0.22574541511E+00  0.31886063831E+02  0.00000000000E+00 0. -1.
         11    1    3    3    0    0 -0.23541908862E+02  0.13100725923E+02 -0.17602519275E+02  0.32182280492E+02  0.51100000000E-03 0. -1.
        -11    1    3    3    0    0  0.17903211759E+01  0.12487435738E+01  0.76941757211E+01  0.79978091196E+01  0.51100000000E-03 0.  1.
         12    1    3    3    0    0  0.76982348637E+01  0.14271735581E+02  0.10134088970E+02  0.19121846557E+02  0.00000000000E+00 0. -1.
</event>
<event>
 7    1  0.7578565E-012  0.5930197E+02  0.7816164E-02  0.1266605E+00
        -11   -1    0    0    0    0  0.00000000000E+00  0.00000000000E+00  0.45593999997E+02  0.45594000000E+02  0.51100000000E-03 0. -1.
         11   -1    0    0    0    0 -0.00000000000E+00 -0.00000000000E+00 -0.45593999997E+02  0.45594000000E+02  0.51100000000E-03 0.  1.
    9900012    2    1    2    0    0  0.73296638578E+01  0.25555806279E+02 -0.17603846035E+02  0.59301974816E+02  0.50000056150E+02 0.  0.
         12    1    1    2    0    0 -0.73296638578E+01 -0.25555806279E+02  0.17603846035E+02  0.31886025184E+02  0.00000000000E+00 0. -1.
         11    1    3    3    0    0  0.24375790918E+02  0.20700910322E+02 -0.23048340552E+02  0.39419955270E+02  0.51100000000E-03 0. -1.
        -11    1    3    3    0    0 -0.63751681750E+01 -0.16686199975E+01  0.13968922252E+01  0.67363469407E+01  0.51100000000E-03 0.  1.
         12    1    3    3    0    0 -0.10670958885E+02  0.65235159541E+01  0.40476022914E+01  0.13145672605E+02  0.00000000000E+00 0. -1.
</event>
<event>
 7    1  0.7578565E-012  0.5930195E+02  0.7816164E-02  0.1266605E+00
        -11   -1    0    0    0    0  0.00000000000E+00  0.00000000000E+00  0.45593999997E+02  0.45594000000E+02  0.51100000000E-03 0.  1.
         11   -1    0    0    0    0 -0.00000000000E+00 -0.00000000000E+00 -0.45593999997E+02  0.45594000000E+02  0.51100000000E-03 0. -1.
    9900012    2    1    2    0    0 -0.97302268670E+01  0.17262437042E+01  0.30316048721E+02  0.59301952232E+02  0.50000014963E+02 0.  0.
         12    1    1    2    0    0  0.97302268670E+01 -0.17262437042E+01 -0.30316048721E+02  0.31886047768E+02  0.00000000000E+00 0. -1.
         11    1    3    3    0    0 -0.87859721006E+00  0.13313636014E+02  0.20953775033E+02  0.24841206198E+02  0.51100000000E-03 0.  1.
        -11    1    3    3    0    0 -0.18289911911E+02 -0.12935250087E+02  0.21474557399E+01  0.22504513746E+02  0.51100000000E-03 0. -1.
        -12    1    3    3    0    0  0.94382822540E+01  0.13478577773E+01  0.72148179477E+01  0.11956232288E+02  0.00000000000E+00 0.  1.
</event>
<event>
 7    1  0.7578565E-012  0.5930195E+02  0.7816164E-02  0.1266605E+00
        -11   -1    0    0    0    0  0.00000000000E+00  0.00000000000E+00  0.45593999997E+02  0.45594000000E+02  0.51100000000E-03 0.  1.
         11   -1    0    0    0    0 -0.00000000000E+00 -0.00000000000E+00 -0.45593999997E+02  0.45594000000E+02  0.51100000000E-03 0. -1.
    9900012    2    1    2    0    0 -0.35404337602E+00 -0.23802001719E+02  0.21214608348E+02  0.59301949133E+02  0.50000009311E+02 0.  0.
         12    1    1    2    0    0  0.35404337602E+00  0.23802001719E+02 -0.21214608348E+02  0.31886050867E+02  0.00000000000E+00 0. -1.
         11    1    3    3    0    0  0.10049107601E+02  0.24230332358E+01 -0.68875598047E+01  0.12421518988E+02  0.51100000000E-03 0. -1.
        -11    1    3    3    0    0  0.21243341101E+01 -0.30808399295E+01  0.18486763488E+02  0.18861728304E+02  0.51100000000E-03 0.  1.
         12    1    3    3    0    0 -0.12527485088E+02 -0.23144195026E+02  0.96154046645E+01  0.28018701841E+02  0.00000000000E+00 0. -1.
</event>
<event>
 7    1  0.7578565E-012  0.5930194E+02  0.7816164E-02  0.1266605E+00
        -11   -1    0    0    0    0  0.00000000000E+00  0.00000000000E+00  0.45593999997E+02  0.45594000000E+02  0.51100000000E-03 0.  1.
         11   -1    0    0    0    0 -0.00000000000E+00 -0.00000000000E+00 -0.45593999997E+02  0.45594000000E+02  0.51100000000E-03 0. -1.
    9900012    2    1    2    0    0  0.16655615428E+02 -0.10379615558E+02  0.25131151475E+02  0.59301941622E+02  0.49999995612E+02 0.  0.
         12    1    1    2    0    0 -0.16655615428E+02  0.10379615558E+02 -0.25131151475E+02  0.31886058378E+02  0.00000000000E+00 0. -1.
         11    1    3    3    0    0  0.31676568511E+02 -0.58718658709E+01  0.25390578677E+02  0.41019084427E+02  0.51100000000E-03 0. -1.
        -11    1    3    3    0    0 -0.15451845387E+02 -0.39010163370E+01  0.18521946949E+01  0.16043942152E+02  0.51100000000E-03 0.  1.
         12    1    3    3    0    0  0.43089230365E+00 -0.60673335007E+00 -0.21116218964E+01  0.22389150428E+01  0.00000000000E+00 0. -1.
</event>
<event>
 7    1  0.7578565E-012  0.5930199E+02  0.7816164E-02  0.1266605E+00
        -11   -1    0    0    0    0  0.00000000000E+00  0.00000000000E+00  0.45593999997E+02  0.45594000000E+02  0.51100000000E-03 0.  1.
         11   -1    0    0    0    0 -0.00000000000E+00 -0.00000000000E+00 -0.45593999997E+02  0.45594000000E+02  0.51100000000E-03 0. -1.
    9900012    2    1    2    0    0  0.17092764951E+02  0.26559406639E+02  0.43764219798E+01  0.59301987957E+02  0.50000080117E+02 0.  0.
         12    1    1    2    0    0 -0.17092764951E+02 -0.26559406639E+02 -0.43764219798E+01  0.31886012043E+02  0.00000000000E+00 0. -1.
         11    1    3    3    0    0  0.23756195375E+01 -0.37384072312E+01  0.30772813773E+01  0.53934142942E+01  0.51100000000E-03 0. -1.
        -11    1    3    3    0    0 -0.45459379671E+01  0.32118148118E+02  0.80387545325E+01  0.33419493791E+02  0.51100000000E-03 0.  1.
        -12    1    3    3    0    0  0.19263083380E+02 -0.18203342482E+01 -0.67396139300E+01  0.20489079872E+02  0.00000000000E+00 0.  1.
</event>
<event>
 7    1  0.7578565E-012  0.5930195E+02  0.7816164E-02  0.1266605E+00
        -11   -1    0    0    0    0  0.00000000000E+00  0.00000000000E+00  0.45593999997E+02  0.45594000000E+02  0.51100000000E-03 0. -1.
         11   -1    0    0    0    0 -0.00000000000E+00 -0.00000000000E+00 -0.45593999997E+02  0.45594000000E+02  0.51100000000E-03 0.  1.
    9900012    2    1    2    0    0 -0.34404077745E+01 -0.15637054933E+02 -0.27574738739E+02  0.59301951183E+02  0.50000013049E+02 0.  0.
         12    1    1    2    0    0  0.34404077745E+01  0.15637054933E+02  0.27574738739E+02  0.31886048817E+02  0.00000000000E+00 0. -1.
         11    1    3    3    0    0  0.24457764063E+01  0.13513342029E+02  0.27253917532E+01  0.14000714107E+02  0.51100000000E-03 0. -1.
        -11    1    3    3    0    0 -0.32257900585E+00 -0.17272757001E+02 -0.26521146641E+02  0.31651594131E+02  0.51100000000E-03 0.  1.
         12    1    3    3    0    0 -0.55636051749E+01 -0.11877639961E+02 -0.37789838518E+01  0.13649642945E+02  0.00000000000E+00 0. -1.
</event>
<event>
 7    1  0.7578565E-012  0.5930194E+02  0.7816164E-02  0.1266605E+00
        -11   -1    0    0    0    0  0.00000000000E+00  0.00000000000E+00  0.45593999997E+02  0.45594000000E+02  0.51100000000E-03 0.  1.
         11   -1    0    0    0    0 -0.00000000000E+00 -0.00000000000E+00 -0.45593999997E+02  0.45594000000E+02  0.51100000000E-03 0. -1.
    9900012    2    1    2    0    0 -0.14291699816E+02  0.26647385993E+02 -0.10118539181E+02  0.59301941933E+02  0.49999996180E+02 0.  0.
         12    1    1    2    0    0  0.14291699816E+02 -0.26647385993E+02  0.10118539181E+02  0.31886058067E+02  0.00000000000E+00 0. -1.
         11    1    3    3    0    0 -0.13642175954E+02  0.26775511294E+02 -0.24563712967E+02  0.38812536181E+02  0.51100000000E-03 0. -1.
        -11    1    3    3    0    0  0.67743493978E+01 -0.47784351037E+00  0.48153550741E+01  0.83251299650E+01  0.51100000000E-03 0.  1.
         12    1    3    3    0    0 -0.74238732600E+01  0.34971820917E+00  0.96298187120E+01  0.12164275787E+02  0.00000000000E+00 0. -1.
</event>
<event>
 7    1  0.7578565E-012  0.5930195E+02  0.7816164E-02  0.1266605E+00
        -11   -1    0    0    0    0  0.00000000000E+00  0.00000000000E+00  0.45593999997E+02  0.45594000000E+02  0.51100000000E-03 0. -1.
         11   -1    0    0    0    0 -0.00000000000E+00 -0.00000000000E+00 -0.45593999997E+02  0.45594000000E+02  0.51100000000E-03 0.  1.
    9900012    2    1    2    0    0  0.69340394736E+00  0.29781787574E+02 -0.11370330789E+02  0.59301951289E+02  0.50000013243E+02 0.  0.
         12    1    1    2    0    0 -0.69340394736E+00 -0.29781787574E+02  0.11370330789E+02  0.31886048711E+02  0.00000000000E+00 0. -1.
         11    1    3    3    0    0  0.14334389290E+02  0.91691148567E+01  0.60676204145E+01  0.18065530752E+02  0.51100000000E-03 0. -1.
        -11    1    3    3    0    0 -0.48390016890E+01  0.23542444279E+02 -0.32053055185E+01  0.24247404061E+02  0.51100000000E-03 0.  1.
         12    1    3    3    0    0 -0.88019836540E+01 -0.29297715614E+01 -0.14232645684E+02  0.16989016476E+02  0.00000000000E+00 0. -1.
</event>
<event>
 7    1  0.7578565E-012  0.5930195E+02  0.7816164E-02  0.1266605E+00
        -11   -1    0    0    0    0  0.00000000000E+00  0.00000000000E+00  0.45593999997E+02  0.45594000000E+02  0.51100000000E-03 0.  1.
         11   -1    0    0    0    0 -0.00000000000E+00 -0.00000000000E+00 -0.45593999997E+02  0.45594000000E+02  0.51100000000E-03 0. -1.
    9900012    2    1    2    0    0  0.18847640725E+02 -0.96535202193E+01  0.23838958055E+02  0.59301953919E+02  0.50000018039E+02 0.  0.
         12    1    1    2    0    0 -0.18847640725E+02  0.96535202193E+01 -0.23838958055E+02  0.31886046081E+02  0.00000000000E+00 0. -1.
         11    1    3    3    0    0  0.10145731177E+02  0.83252622626E+01 -0.16763096220E+00  0.13125317263E+02  0.51100000000E-03 0. -1.
        -11    1    3    3    0    0  0.13260902609E+02 -0.25586584743E+02  0.11924011744E+02  0.31188249600E+02  0.51100000000E-03 0.  1.
        -12    1    3    3    0    0 -0.45589930606E+01  0.76078022607E+01  0.12082577273E+02  0.14988387056E+02  0.00000000000E+00 0.  1.
</event>
<event>
 7    1  0.7578565E-012  0.5930195E+02  0.7816164E-02  0.1266605E+00
        -11   -1    0    0    0    0  0.00000000000E+00  0.00000000000E+00  0.45593999997E+02  0.45594000000E+02  0.51100000000E-03 0.  1.
         11   -1    0    0    0    0 -0.00000000000E+00 -0.00000000000E+00 -0.45593999997E+02  0.45594000000E+02  0.51100000000E-03 0. -1.
    9900012    2    1    2    0    0 -0.24411134103E+01 -0.27438168067E+02  0.16059511640E+02  0.59301952649E+02  0.50000015724E+02 0.  0.
         12    1    1    2    0    0  0.24411134103E+01  0.27438168067E+02 -0.16059511640E+02  0.31886047351E+02  0.00000000000E+00 0. -1.
         11    1    3    3    0    0 -0.62065275228E+01 -0.63547054379E+01  0.24259766650E+02  0.25834851331E+02  0.51100000000E-03 0. -1.
        -11    1    3    3    0    0  0.71833941887E+01 -0.24339487856E+02 -0.17009340784E+01  0.25434327161E+02  0.51100000000E-03 0.  1.
         12    1    3    3    0    0 -0.34179800763E+01  0.32560252272E+01 -0.64993209318E+01  0.80327741569E+01  0.00000000000E+00 0. -1.
</event>
<event>
 7    1  0.7578565E-012  0.5930196E+02  0.7816164E-02  0.1266605E+00
        -11   -1    0    0    0    0  0.00000000000E+00  0.00000000000E+00  0.45593999997E+02  0.45594000000E+02  0.51100000000E-03 0.  1.
         11   -1    0    0    0    0 -0.00000000000E+00 -0.00000000000E+00 -0.45593999997E+02  0.45594000000E+02  0.51100000000E-03 0. -1.
    9900012    2    1    2    0    0 -0.18646487727E+02 -0.24432436905E+02  0.84902520475E+01  0.59301955129E+02  0.50000020246E+02 0.  0.
         12    1    1    2    0    0  0.18646487727E+02  0.24432436905E+02 -0.84902520475E+01  0.31886044871E+02  0.00000000000E+00 0. -1.
         11    1    3    3    0    0  0.10832417420E+02 -0.10815392679E+02 -0.61145409755E+01  0.16483373367E+02  0.51100000000E-03 0. -1.
        -11    1    3    3    0    0 -0.17102953027E+02  0.33594433718E+01  0.13009173948E+02  0.21749378591E+02  0.51100000000E-03 0.  1.
        -12    1    3    3    0    0 -0.12375952120E+02 -0.16976487598E+02  0.15956190745E+01  0.21069203172E+02  0.00000000000E+00 0.  1.
</event>
<event>
 7    1  0.7578565E-012  0.5930193E+02  0.7816164E-02  0.1266605E+00
        -11   -1    0    0    0    0  0.00000000000E+00  0.00000000000E+00  0.45593999997E+02  0.45594000000E+02  0.51100000000E-03 0. -1.
         11   -1    0    0    0    0 -0.00000000000E+00 -0.00000000000E+00 -0.45593999997E+02  0.45594000000E+02  0.51100000000E-03 0.  1.
    9900012    2    1    2    0    0 -0.27816857136E+02  0.14470241956E+02  0.57927350987E+01  0.59301933716E+02  0.49999981194E+02 0.  0.
         12    1    1    2    0    0  0.27816857136E+02 -0.14470241956E+02 -0.57927350987E+01  0.31886066284E+02  0.00000000000E+00 0. -1.
         11    1    3    3    0    0  0.40575232148E+01  0.14157655920E+02 -0.10001011562E+01  0.14761535095E+02  0.51100000000E-03 0. -1.
        -11    1    3    3    0    0 -0.10229311433E+02 -0.14042741399E+02  0.65480413165E+01  0.18566481728E+02  0.51100000000E-03 0.  1.
        -12    1    3    3    0    0 -0.21645068917E+02  0.14355327435E+02  0.24479493838E+00  0.25973916893E+02  0.00000000000E+00 0.  1.
</event>
<event>
 7    1  0.7578565E-012  0.5930183E+02  0.7816164E-02  0.1266605E+00
        -11   -1    0    0    0    0  0.00000000000E+00  0.00000000000E+00  0.45593999997E+02  0.45594000000E+02  0.51100000000E-03 0. -1.
         11   -1    0    0    0    0 -0.00000000000E+00 -0.00000000000E+00 -0.45593999997E+02  0.45594000000E+02  0.51100000000E-03 0.  1.
    9900012    2    1    2    0    0  0.15803879345E+02  0.11509224136E+02 -0.25189338726E+02  0.59301833281E+02  0.49999798025E+02 0.  0.
         12    1    1    2    0    0 -0.15803879345E+02 -0.11509224136E+02  0.25189338726E+02  0.31886166719E+02  0.00000000000E+00 0. -1.
         11    1    3    3    0    0  0.21778729603E+02  0.18878024418E+02  0.18906337042E+00  0.28822363094E+02  0.51100000000E-03 0. -1.
        -11    1    3    3    0    0 -0.37844175211E+01  0.33377517186E+01 -0.13120604576E+02  0.14057477270E+02  0.51100000000E-03 0.  1.
         12    1    3    3    0    0 -0.21904327371E+01 -0.10706552001E+02 -0.12257797521E+02  0.16421992918E+02  0.00000000000E+00 0. -1.
</event>
<event>
 7    1  0.7578565E-012  0.5930194E+02  0.7816164E-02  0.1266605E+00
        -11   -1    0    0    0    0  0.00000000000E+00  0.00000000000E+00  0.45593999997E+02  0.45594000000E+02  0.51100000000E-03 0.  1.
         11   -1    0    0    0    0 -0.00000000000E+00 -0.00000000000E+00 -0.45593999997E+02  0.45594000000E+02  0.51100000000E-03 0. -1.
    9900012    2    1    2    0    0 -0.56260210311E+01 -0.23394003400E+02  0.20923422042E+02  0.59301935682E+02  0.49999984780E+02 0.  0.
         12    1    1    2    0    0  0.56260210311E+01  0.23394003400E+02 -0.20923422042E+02  0.31886064318E+02  0.00000000000E+00 0. -1.
         11    1    3    3    0    0 -0.28208777238E+01 -0.38348960395E+01 -0.10259819818E+02  0.11310512001E+02  0.51100000000E-03 0. -1.
        -11    1    3    3    0    0 -0.11760540779E+02 -0.64873634291E+01  0.29048224101E+02  0.32003054969E+02  0.51100000000E-03 0.  1.
        -12    1    3    3    0    0  0.89553974712E+01 -0.13071743931E+02  0.21350177596E+01  0.15988368713E+02  0.00000000000E+00 0.  1.
</event>
<event>
 7    1  0.7578565E-012  0.5930195E+02  0.7816164E-02  0.1266605E+00
        -11   -1    0    0    0    0  0.00000000000E+00  0.00000000000E+00  0.45593999997E+02  0.45594000000E+02  0.51100000000E-03 0. -1.
         11   -1    0    0    0    0 -0.00000000000E+00 -0.00000000000E+00 -0.45593999997E+02  0.45594000000E+02  0.51100000000E-03 0.  1.
    9900012    2    1    2    0    0 -0.15435454971E+01 -0.24525862134E+02 -0.20317967867E+02  0.59301948749E+02  0.50000008611E+02 0.  0.
         12    1    1    2    0    0  0.15435454971E+01  0.24525862134E+02  0.20317967867E+02  0.31886051251E+02  0.00000000000E+00 0. -1.
         11    1    3    3    0    0  0.10944452640E+02  0.97059714215E+00  0.86261967268E+01  0.13969050527E+02  0.51100000000E-03 0. -1.
        -11    1    3    3    0    0 -0.10697108309E+02 -0.26984754214E+02 -0.30823744355E+02  0.42340386187E+02  0.51100000000E-03 0.  1.
        -12    1    3    3    0    0 -0.17908898284E+01  0.14882949374E+01  0.18795797611E+01  0.29925120345E+01  0.00000000000E+00 0.  1.
</event>
<event>
 7    1  0.7578565E-012  0.5930195E+02  0.7816164E-02  0.1266605E+00
        -11   -1    0    0    0    0  0.00000000000E+00  0.00000000000E+00  0.45593999997E+02  0.45594000000E+02  0.51100000000E-03 0.  1.
         11   -1    0    0    0    0 -0.00000000000E+00 -0.00000000000E+00 -0.45593999997E+02  0.45594000000E+02  0.51100000000E-03 0. -1.
    9900012    2    1    2    0    0 -0.49448414253E+01 -0.31587418992E+01  0.31341521194E+02  0.59301951987E+02  0.50000014516E+02 0.  0.
         12    1    1    2    0    0  0.49448414253E+01  0.31587418992E+01 -0.31341521194E+02  0.31886048013E+02  0.00000000000E+00 0. -1.
         11    1    3    3    0    0 -0.18285142571E+02 -0.82062334459E+01 -0.42721248131E+01  0.20492431698E+02  0.51100000000E-03 0. -1.
        -11    1    3    3    0    0  0.72451186504E+01  0.38023731902E+01  0.26801697052E+02  0.28022861226E+02  0.51100000000E-03 0.  1.
         12    1    3    3    0    0  0.60951824953E+01  0.12451183565E+01  0.88119489547E+01  0.10786659064E+02  0.00000000000E+00 0. -1.
</event>
<event>
 7    1  0.7578565E-012  0.5930196E+02  0.7816164E-02  0.1266605E+00
        -11   -1    0    0    0    0  0.00000000000E+00  0.00000000000E+00  0.45593999997E+02  0.45594000000E+02  0.51100000000E-03 0. -1.
         11   -1    0    0    0    0 -0.00000000000E+00 -0.00000000000E+00 -0.45593999997E+02  0.45594000000E+02  0.51100000000E-03 0.  1.
    9900012    2    1    2    0    0  0.21689014182E+02  0.42247244095E+01 -0.22988208675E+02  0.59301962764E+02  0.50000034171E+02 0.  0.
         12    1    1    2    0    0 -0.21689014182E+02 -0.42247244095E+01  0.22988208675E+02  0.31886037236E+02  0.00000000000E+00 0. -1.
         11    1    3    3    0    0 -0.22201683436E+01 -0.16039137231E+02  0.12826571549E+01  0.16242791639E+02  0.51100000000E-03 0. -1.
        -11    1    3    3    0    0  0.13313018535E+02  0.17746580144E+02 -0.23224695061E+02  0.32117970519E+02  0.51100000000E-03 0.  1.
        -12    1    3    3    0    0  0.10596163991E+02  0.25172814965E+01 -0.10461707689E+01  0.10941200607E+02  0.00000000000E+00 0.  1.
</event>
<event>
 7    1  0.7578565E-012  0.5930194E+02  0.7816164E-02  0.1266605E+00
        -11   -1    0    0    0    0  0.00000000000E+00  0.00000000000E+00  0.45593999997E+02  0.45594000000E+02  0.51100000000E-03 0.  1.
         11   -1    0    0    0    0 -0.00000000000E+00 -0.00000000000E+00 -0.45593999997E+02  0.45594000000E+02  0.51100000000E-03 0. -1.
    9900012    2    1    2    0    0  0.10340079415E+02 -0.23668412654E+02 -0.18697857122E+02  0.59301939396E+02  0.49999991554E+02 0.  0.
         12    1    1    2    0    0 -0.10340079415E+02  0.23668412654E+02  0.18697857122E+02  0.31886060604E+02  0.00000000000E+00 0. -1.
         11    1    3    3    0    0 -0.39530551067E+01 -0.13423436821E-01  0.51407228214E+00  0.39863636861E+01  0.51100000000E-03 0. -1.
        -11    1    3    3    0    0  0.24621960114E+02 -0.76375508836E+01  0.31075319041E+01  0.25965936496E+02  0.51100000000E-03 0.  1.
        -12    1    3    3    0    0 -0.10328825593E+02 -0.16017438333E+02 -0.22319461309E+02  0.29349639214E+02  0.00000000000E+00 0.  1.
</event>
<event>
 7    1  0.7578565E-012  0.5930195E+02  0.7816164E-02  0.1266605E+00
        -11   -1    0    0    0    0  0.00000000000E+00  0.00000000000E+00  0.45593999997E+02  0.45594000000E+02  0.51100000000E-03 0.  1.
         11   -1    0    0    0    0 -0.00000000000E+00 -0.00000000000E+00 -0.45593999997E+02  0.45594000000E+02  0.51100000000E-03 0. -1.
    9900012    2    1    2    0    0  0.17154188617E+02  0.24381328622E+02  0.11313921468E+02  0.59301949892E+02  0.50000010696E+02 0.  0.
         12    1    1    2    0    0 -0.17154188617E+02 -0.24381328622E+02 -0.11313921468E+02  0.31886050108E+02  0.00000000000E+00 0. -1.
         11    1    3    3    0    0  0.91234471945E+01 -0.90814562916E+01  0.13533846393E+02  0.18678199472E+02  0.51100000000E-03 0. -1.
        -11    1    3    3    0    0  0.40924373308E+01  0.31346606950E+02  0.51247714525E+01  0.32025319566E+02  0.51100000000E-03 0.  1.
         12    1    3    3    0    0  0.39383040914E+01  0.21161779636E+01 -0.73446963769E+01  0.85984308544E+01  0.00000000000E+00 0. -1.
</event>
<event>
 7    1  0.7578565E-012  0.5930199E+02  0.7816164E-02  0.1266605E+00
        -11   -1    0    0    0    0  0.00000000000E+00  0.00000000000E+00  0.45593999997E+02  0.45594000000E+02  0.51100000000E-03 0.  1.
         11   -1    0    0    0    0 -0.00000000000E+00 -0.00000000000E+00 -0.45593999997E+02  0.45594000000E+02  0.51100000000E-03 0. -1.
    9900012    2    1    2    0    0  0.55510725107E+01 -0.29245989157E+02  0.11426946634E+02  0.59301993710E+02  0.50000090608E+02 0.  0.
         12    1    1    2    0    0 -0.55510725107E+01  0.29245989157E+02 -0.11426946634E+02  0.31886006290E+02  0.00000000000E+00 0. -1.
         11    1    3    3    0    0  0.53233197898E+01 -0.28792672840E+02  0.17262549400E+00  0.29281146539E+02  0.51100000000E-03 0. -1.
        -11    1    3    3    0    0 -0.16852338719E+01 -0.92782049123E+00  0.20488526047E+02  0.20578643393E+02  0.51100000000E-03 0.  1.
         12    1    3    3    0    0  0.19129865928E+01  0.47450417415E+00 -0.92342049066E+01  0.94422037773E+01  0.00000000000E+00 0. -1.
</event>
<event>
 7    1  0.7578565E-012  0.5930194E+02  0.7816164E-02  0.1266605E+00
        -11   -1    0    0    0    0  0.00000000000E+00  0.00000000000E+00  0.45593999997E+02  0.45594000000E+02  0.51100000000E-03 0.  1.
         11   -1    0    0    0    0 -0.00000000000E+00 -0.00000000000E+00 -0.45593999997E+02  0.45594000000E+02  0.51100000000E-03 0. -1.
    9900012    2    1    2    0    0 -0.17299896829E+02  0.33328896684E+01  0.26576798219E+02  0.59301940547E+02  0.49999993653E+02 0.  0.
         12    1    1    2    0    0  0.17299896829E+02 -0.33328896684E+01 -0.26576798219E+02  0.31886059453E+02  0.00000000000E+00 0. -1.
         11    1    3    3    0    0  0.10738921122E+02  0.84050626120E+01  0.18360600071E+02  0.22870967177E+02  0.51100000000E-03 0. -1.
        -11    1    3    3    0    0 -0.28421399970E+02 -0.74144781614E+01  0.12190568416E+02  0.31801893359E+02  0.51100000000E-03 0.  1.
         12    1    3    3    0    0  0.38258201831E+00  0.23423052179E+01 -0.39743702672E+01  0.46290800117E+01  0.00000000000E+00 0. -1.
</event>
<event>
 7    1  0.7578565E-012  0.5930192E+02  0.7816164E-02  0.1266605E+00
        -11   -1    0    0    0    0  0.00000000000E+00  0.00000000000E+00  0.45593999997E+02  0.45594000000E+02  0.51100000000E-03 0. -1.
         11   -1    0    0    0    0 -0.00000000000E+00 -0.00000000000E+00 -0.45593999997E+02  0.45594000000E+02  0.51100000000E-03 0.  1.
    9900012    2    1    2    0    0 -0.67427050964E+01 -0.17686269597E+02 -0.25660351706E+02  0.59301923823E+02  0.49999963151E+02 0.  0.
         12    1    1    2    0    0  0.67427050964E+01  0.17686269597E+02  0.25660351706E+02  0.31886076177E+02  0.00000000000E+00 0. -1.
         11    1    3    3    0    0  0.13395484713E+02 -0.10216167938E+02 -0.34204971000E+01  0.17190372268E+02  0.51100000000E-03 0. -1.
        -11    1    3    3    0    0  0.10092763075E+01  0.88629154396E+01 -0.70934388955E+01  0.11396788336E+02  0.51100000000E-03 0.  1.
         12    1    3    3    0    0 -0.21147466117E+02 -0.16333017099E+02 -0.15146415711E+02  0.30714763219E+02  0.00000000000E+00 0. -1.
</event>
<event>
 7    1  0.7578565E-012  0.5930198E+02  0.7816164E-02  0.1266605E+00
        -11   -1    0    0    0    0  0.00000000000E+00  0.00000000000E+00  0.45593999997E+02  0.45594000000E+02  0.51100000000E-03 0. -1.
         11   -1    0    0    0    0 -0.00000000000E+00 -0.00000000000E+00 -0.45593999997E+02  0.45594000000E+02  0.51100000000E-03 0.  1.
    9900012    2    1    2    0    0 -0.33698057007E+01 -0.30078469188E+02  0.10032355884E+02  0.59301983257E+02  0.50000071545E+02 0.  0.
         12    1    1    2    0    0  0.33698057007E+01  0.30078469188E+02 -0.10032355884E+02  0.31886016743E+02  0.00000000000E+00 0. -1.
         11    1    3    3    0    0  0.79434944073E+01 -0.42872590014E+01  0.14570632843E+02  0.17140100199E+02  0.51100000000E-03 0. -1.
        -11    1    3    3    0    0  0.32227712025E+00 -0.10913780154E+02 -0.16514641760E+02  0.19797672907E+02  0.51100000000E-03 0.  1.
        -12    1    3    3    0    0 -0.11635577228E+02 -0.14877430033E+02  0.11976364801E+02  0.22364210151E+02  0.00000000000E+00 0.  1.
</event>
<event>
 7    1  0.7578565E-012  0.5930194E+02  0.7816164E-02  0.1266605E+00
        -11   -1    0    0    0    0  0.00000000000E+00  0.00000000000E+00  0.45593999997E+02  0.45594000000E+02  0.51100000000E-03 0.  1.
         11   -1    0    0    0    0 -0.00000000000E+00 -0.00000000000E+00 -0.45593999997E+02  0.45594000000E+02  0.51100000000E-03 0. -1.
    9900012    2    1    2    0    0  0.21367662329E+02  0.81054965624E+01  0.22236113299E+02  0.59301940310E+02  0.49999993220E+02 0.  0.
         12    1    1    2    0    0 -0.21367662329E+02 -0.81054965624E+01 -0.22236113299E+02  0.31886059690E+02  0.00000000000E+00 0. -1.
         11    1    3    3    0    0  0.25290801744E+02  0.15708745847E+02  0.14239996784E+02  0.33002528049E+02  0.51100000000E-03 0.  1.
        -11    1    3    3    0    0 -0.70375729789E+01 -0.29616257436E+01 -0.69608529628E+01  0.10332092465E+02  0.51100000000E-03 0. -1.
         12    1    3    3    0    0  0.31144335637E+01 -0.46416235406E+01  0.14956969478E+02  0.15967319796E+02  0.00000000000E+00 0. -1.
</event>
<event>
 7    1  0.7578565E-012  0.5930182E+02  0.7816164E-02  0.1266605E+00
        -11   -1    0    0    0    0  0.00000000000E+00  0.00000000000E+00  0.45593999997E+02  0.45594000000E+02  0.51100000000E-03 0. -1.
         11   -1    0    0    0    0 -0.00000000000E+00 -0.00000000000E+00 -0.45593999997E+02  0.45594000000E+02  0.51100000000E-03 0.  1.
    9900012    2    1    2    0    0  0.14851997511E+02  0.28167249653E+02 -0.16590885082E+01  0.59301821838E+02  0.49999777155E+02 0.  0.
         12    1    1    2    0    0 -0.14851997511E+02 -0.28167249653E+02  0.16590885082E+01  0.31886178162E+02  0.00000000000E+00 0. -1.
         11    1    3    3    0    0 -0.76184577266E+01  0.19893341779E+02  0.18071756221E+02  0.27935180659E+02  0.51100000000E-03 0. -1.
        -11    1    3    3    0    0  0.21210100621E+02  0.84616359922E+01 -0.17396851606E+02  0.28707457186E+02  0.51100000000E-03 0.  1.
         12    1    3    3    0    0  0.12603546168E+01 -0.18772811863E+00 -0.23339931238E+01  0.26591839929E+01  0.00000000000E+00 0. -1.
</event>
<event>
 7    1  0.7578565E-012  0.5930194E+02  0.7816164E-02  0.1266605E+00
        -11   -1    0    0    0    0  0.00000000000E+00  0.00000000000E+00  0.45593999997E+02  0.45594000000E+02  0.51100000000E-03 0. -1.
         11   -1    0    0    0    0 -0.00000000000E+00 -0.00000000000E+00 -0.45593999997E+02  0.45594000000E+02  0.51100000000E-03 0.  1.
    9900012    2    1    2    0    0 -0.96049138268E+01  0.27020688900E+02  0.13940913459E+02  0.59301936174E+02  0.49999985677E+02 0.  0.
         12    1    1    2    0    0  0.96049138268E+01 -0.27020688900E+02 -0.13940913459E+02  0.31886063826E+02  0.00000000000E+00 0. -1.
         11    1    3    3    0    0 -0.99320615145E+01  0.50944402701E+01  0.20133804962E+02  0.23021061446E+02  0.51100000000E-03 0. -1.
        -11    1    3    3    0    0 -0.41050766048E+01  0.50861688195E+01 -0.15294197597E+02  0.16632295319E+02  0.51100000000E-03 0.  1.
        -12    1    3    3    0    0  0.44322242924E+01  0.16840079810E+02  0.91013060939E+01  0.19648579409E+02  0.00000000000E+00 0.  1.
</event>
<event>
 7    1  0.7578565E-012  0.5930185E+02  0.7816164E-02  0.1266605E+00
        -11   -1    0    0    0    0  0.00000000000E+00  0.00000000000E+00  0.45593999997E+02  0.45594000000E+02  0.51100000000E-03 0.  1.
         11   -1    0    0    0    0 -0.00000000000E+00 -0.00000000000E+00 -0.45593999997E+02  0.45594000000E+02  0.51100000000E-03 0. -1.
    9900012    2    1    2    0    0  0.32891892685E+01  0.14090903125E+02  0.28413982920E+02  0.59301847170E+02  0.49999823354E+02 0.  0.
         12    1    1    2    0    0 -0.32891892685E+01 -0.14090903125E+02 -0.28413982920E+02  0.31886152830E+02  0.00000000000E+00 0. -1.
         11    1    3    3    0    0 -0.69005454910E+01 -0.13977735201E+01  0.57542955702E+00  0.70641643754E+01  0.51100000000E-03 0. -1.
        -11    1    3    3    0    0  0.15720058764E+02  0.22165789740E+02  0.32524338843E+02  0.42382485767E+02  0.51100000000E-03 0.  1.
        -12    1    3    3    0    0 -0.55303240048E+01 -0.66771130949E+01 -0.46857854798E+01  0.98551970271E+01  0.00000000000E+00 0.  1.
</event>
<event>
 7    1  0.7578565E-012  0.5930176E+02  0.7816164E-02  0.1266605E+00
        -11   -1    0    0    0    0  0.00000000000E+00  0.00000000000E+00  0.45593999997E+02  0.45594000000E+02  0.51100000000E-03 0. -1.
         11   -1    0    0    0    0 -0.00000000000E+00 -0.00000000000E+00 -0.45593999997E+02  0.45594000000E+02  0.51100000000E-03 0.  1.
    9900012    2    1    2    0    0 -0.19473931489E+02 -0.79304726152E+01 -0.23970933978E+02  0.59301763482E+02  0.49999670726E+02 0.  0.
         12    1    1    2    0    0  0.19473931489E+02  0.79304726152E+01  0.23970933978E+02  0.31886236518E+02  0.00000000000E+00 0. -1.
         11    1    3    3    0    0  0.52290485590E+01  0.25205679179E+01  0.40986861191E+01  0.71060143276E+01  0.51100000000E-03 0. -1.
        -11    1    3    3    0    0  0.17180359084E+01 -0.11517094909E+02 -0.22261175921E+02  0.25122799927E+02  0.51100000000E-03 0.  1.
         12    1    3    3    0    0 -0.26421015956E+02  0.10660543758E+01 -0.58084441753E+01  0.27072949227E+02  0.00000000000E+00 0. -1.
</event>
<event>
 7    1  0.7578565E-012  0.5930197E+02  0.7816164E-02  0.1266605E+00
        -11   -1    0    0    0    0  0.00000000000E+00  0.00000000000E+00  0.45593999997E+02  0.45594000000E+02  0.51100000000E-03 0. -1.
         11   -1    0    0    0    0 -0.00000000000E+00 -0.00000000000E+00 -0.45593999997E+02  0.45594000000E+02  0.51100000000E-03 0.  1.
    9900012    2    1    2    0    0  0.55643503302E+01  0.10537602381E+02 -0.29575600810E+02  0.59301965098E+02  0.50000038427E+02 0.  0.
         12    1    1    2    0    0 -0.55643503302E+01 -0.10537602381E+02  0.29575600810E+02  0.31886034902E+02  0.00000000000E+00 0. -1.
         11    1    3    3    0    0 -0.19136955838E+02  0.79841009600E+01 -0.12222619760E+02  0.24069926899E+02  0.51100000000E-03 0. -1.
        -11    1    3    3    0    0  0.64977232227E+01  0.50032783352E+01 -0.14480001404E+02  0.16641022868E+02  0.51100000000E-03 0.  1.
         12    1    3    3    0    0  0.18203582945E+02 -0.24497769141E+01 -0.28729796461E+01  0.18591015331E+02  0.00000000000E+00 0. -1.
</event>
<event>
 7    1  0.7578565E-012  0.5930190E+02  0.7816164E-02  0.1266605E+00
        -11   -1    0    0    0    0  0.00000000000E+00  0.00000000000E+00  0.45593999997E+02  0.45594000000E+02  0.51100000000E-03 0. -1.
         11   -1    0    0    0    0 -0.00000000000E+00 -0.00000000000E+00 -0.45593999997E+02  0.45594000000E+02  0.51100000000E-03 0.  1.
    9900012    2    1    2    0    0  0.25414164877E+02  0.67412681883E+01 -0.18038817483E+02  0.59301899433E+02  0.49999918671E+02 0.  0.
         12    1    1    2    0    0 -0.25414164877E+02 -0.67412681883E+01  0.18038817483E+02  0.31886100567E+02  0.00000000000E+00 0. -1.
         11    1    3    3    0    0  0.11813292229E+01 -0.73326674646E+01  0.11997485730E+02  0.14110393863E+02  0.51100000000E-03 0. -1.
        -11    1    3    3    0    0  0.92045456276E+01  0.65945155026E+01 -0.25348618805E+02  0.27762632629E+02  0.51100000000E-03 0.  1.
         12    1    3    3    0    0  0.15028290026E+02  0.74794201504E+01 -0.46876844078E+01  0.17428872941E+02  0.00000000000E+00 0. -1.
</event>
<event>
 7    1  0.7578565E-012  0.5930192E+02  0.7816164E-02  0.1266605E+00
        -11   -1    0    0    0    0  0.00000000000E+00  0.00000000000E+00  0.45593999997E+02  0.45594000000E+02  0.51100000000E-03 0.  1.
         11   -1    0    0    0    0 -0.00000000000E+00 -0.00000000000E+00 -0.45593999997E+02  0.45594000000E+02  0.51100000000E-03 0. -1.
    9900012    2    1    2    0    0  0.22437599301E+02 -0.40990648172E+01  0.22281698170E+02  0.59301917330E+02  0.49999951309E+02 0.  0.
         12    1    1    2    0    0 -0.22437599301E+02  0.40990648172E+01 -0.22281698170E+02  0.31886082670E+02  0.00000000000E+00 0. -1.
         11    1    3    3    0    0 -0.33905231070E+01 -0.74624668856E+01 -0.12977169338E+02  0.15348973361E+02  0.51100000000E-03 0. -1.
        -11    1    3    3    0    0  0.11055831344E+02  0.25576164333E+01  0.17228135087E+02  0.20629625478E+02  0.51100000000E-03 0.  1.
         12    1    3    3    0    0  0.14772291063E+02  0.80578563515E+00  0.18030732421E+02  0.23323318490E+02  0.00000000000E+00 0. -1.
</event>
<event>
 7    1  0.7578565E-012  0.5930190E+02  0.7816164E-02  0.1266605E+00
        -11   -1    0    0    0    0  0.00000000000E+00  0.00000000000E+00  0.45593999997E+02  0.45594000000E+02  0.51100000000E-03 0.  1.
         11   -1    0    0    0    0 -0.00000000000E+00 -0.00000000000E+00 -0.45593999997E+02  0.45594000000E+02  0.51100000000E-03 0. -1.
    9900012    2    1    2    0    0 -0.19706426081E+02 -0.22882978462E+02  0.10234723378E+02  0.59301898093E+02  0.49999916227E+02 0.  0.
         12    1    1    2    0    0  0.19706426081E+02  0.22882978462E+02 -0.10234723378E+02  0.31886101907E+02  0.00000000000E+00 0. -1.
         11    1    3    3    0    0  0.76144072683E+01 -0.84275513779E+01  0.11402405790E+02  0.16094026169E+02  0.51100000000E-03 0. -1.
        -11    1    3    3    0    0 -0.18725733664E+02  0.69450390151E+01  0.12989254051E+01  0.20014341749E+02  0.51100000000E-03 0.  1.
         12    1    3    3    0    0 -0.85950996855E+01 -0.21400466099E+02 -0.24666078177E+01  0.23193530175E+02  0.00000000000E+00 0. -1.
</event>
<event>
 7    1  0.7578565E-012  0.5930193E+02  0.7816164E-02  0.1266605E+00
        -11   -1    0    0    0    0  0.00000000000E+00  0.00000000000E+00  0.45593999997E+02  0.45594000000E+02  0.51100000000E-03 0.  1.
         11   -1    0    0    0    0 -0.00000000000E+00 -0.00000000000E+00 -0.45593999997E+02  0.45594000000E+02  0.51100000000E-03 0. -1.
    9900012    2    1    2    0    0  0.10578403782E+02 -0.23011920912E+02  0.19371888182E+02  0.59301934354E+02  0.49999982358E+02 0.  0.
         12    1    1    2    0    0 -0.10578403782E+02  0.23011920912E+02 -0.19371888182E+02  0.31886065646E+02  0.00000000000E+00 0. -1.
         11    1    3    3    0    0 -0.10317124361E+02 -0.12004679275E+02  0.14529333423E+02  0.21486202772E+02  0.51100000000E-03 0. -1.
        -11    1    3    3    0    0  0.21898624711E+02 -0.86894951576E+00 -0.62153555279E+01  0.22780155445E+02  0.51100000000E-03 0.  1.
         12    1    3    3    0    0 -0.10030965685E+01 -0.10138292122E+02  0.11057910286E+02  0.15035576137E+02  0.00000000000E+00 0. -1.
</event>
<event>
 7    1  0.7578565E-012  0.5930195E+02  0.7816164E-02  0.1266605E+00
        -11   -1    0    0    0    0  0.00000000000E+00  0.00000000000E+00  0.45593999997E+02  0.45594000000E+02  0.51100000000E-03 0.  1.
         11   -1    0    0    0    0 -0.00000000000E+00 -0.00000000000E+00 -0.45593999997E+02  0.45594000000E+02  0.51100000000E-03 0. -1.
    9900012    2    1    2    0    0 -0.14691754063E+01  0.26485969302E+02  0.17693362744E+02  0.59301950834E+02  0.50000012413E+02 0.  0.
         12    1    1    2    0    0  0.14691754063E+01 -0.26485969302E+02 -0.17693362744E+02  0.31886049166E+02  0.00000000000E+00 0. -1.
         11    1    3    3    0    0  0.18803280277E+00 -0.24907596976E+01 -0.15134413371E+02  0.15339156057E+02  0.51100000000E-03 0. -1.
        -11    1    3    3    0    0 -0.12624538451E+00  0.20544474916E+02  0.24969912392E+02  0.32335551837E+02  0.51100000000E-03 0.  1.
         12    1    3    3    0    0 -0.15309628246E+01  0.84322540827E+01  0.78578637232E+01  0.11627242940E+02  0.00000000000E+00 0. -1.
</event>
<event>
 7    1  0.7578565E-012  0.5930198E+02  0.7816164E-02  0.1266605E+00
        -11   -1    0    0    0    0  0.00000000000E+00  0.00000000000E+00  0.45593999997E+02  0.45594000000E+02  0.51100000000E-03 0.  1.
         11   -1    0    0    0    0 -0.00000000000E+00 -0.00000000000E+00 -0.45593999997E+02  0.45594000000E+02  0.51100000000E-03 0. -1.
    9900012    2    1    2    0    0  0.19253827670E+02 -0.41496354729E+01  0.25075668185E+02  0.59301976581E+02  0.50000059370E+02 0.  0.
         12    1    1    2    0    0 -0.19253827670E+02  0.41496354729E+01 -0.25075668185E+02  0.31886023419E+02  0.00000000000E+00 0. -1.
         11    1    3    3    0    0  0.11828338568E+01 -0.22902007114E+02  0.10642481675E+02  0.25281681951E+02  0.51100000000E-03 0. -1.
        -11    1    3    3    0    0  0.15699165429E+02  0.17942400786E+02  0.51316824646E+01  0.24387039720E+02  0.51100000000E-03 0.  1.
         12    1    3    3    0    0  0.23718283842E+01  0.80997085518E+00  0.93015040454E+01  0.96332549109E+01  0.00000000000E+00 0. -1.
</event>
<event>
 7    1  0.7578565E-012  0.5930194E+02  0.7816164E-02  0.1266605E+00
        -11   -1    0    0    0    0  0.00000000000E+00  0.00000000000E+00  0.45593999997E+02  0.45594000000E+02  0.51100000000E-03 0. -1.
         11   -1    0    0    0    0 -0.00000000000E+00 -0.00000000000E+00 -0.45593999997E+02  0.45594000000E+02  0.51100000000E-03 0.  1.
    9900012    2    1    2    0    0 -0.34710105419E+01 -0.17203852418E+02 -0.26621425457E+02  0.59301941204E+02  0.49999994849E+02 0.  0.
         12    1    1    2    0    0  0.34710105419E+01  0.17203852418E+02  0.26621425457E+02  0.31886058796E+02  0.00000000000E+00 0. -1.
         11    1    3    3    0    0  0.79927956651E+01 -0.29461080227E+01  0.57798552909E+01  0.10294224714E+02  0.51100000000E-03 0. -1.
        -11    1    3    3    0    0 -0.17969855240E+02  0.15342287313E+01 -0.23865904652E+02  0.29914059575E+02  0.51100000000E-03 0.  1.
        -12    1    3    3    0    0  0.65060490329E+01 -0.15791973127E+02 -0.85353760960E+01  0.19093656914E+02  0.00000000000E+00 0.  1.
</event>
<event>
 7    1  0.7578565E-012  0.5930195E+02  0.7816164E-02  0.1266605E+00
        -11   -1    0    0    0    0  0.00000000000E+00  0.00000000000E+00  0.45593999997E+02  0.45594000000E+02  0.51100000000E-03 0.  1.
         11   -1    0    0    0    0 -0.00000000000E+00 -0.00000000000E+00 -0.45593999997E+02  0.45594000000E+02  0.51100000000E-03 0. -1.
    9900012    2    1    2    0    0 -0.19002862531E+02  0.16980403288E+01  0.25548545415E+02  0.59301948219E+02  0.50000007644E+02 0.  0.
         12    1    1    2    0    0  0.19002862531E+02 -0.16980403288E+01 -0.25548545415E+02  0.31886051781E+02  0.00000000000E+00 0. -1.
         11    1    3    3    0    0  0.34775577693E+01 -0.34986370286E+01 -0.11919998157E+02  0.12900396328E+02  0.51100000000E-03 0. -1.
        -11    1    3    3    0    0 -0.13764375101E+02  0.10362930190E+02  0.24206061730E+02  0.29711643656E+02  0.51100000000E-03 0.  1.
         12    1    3    3    0    0 -0.87160451999E+01 -0.51662528323E+01  0.13262481842E+02  0.16689908234E+02  0.00000000000E+00 0. -1.
</event>
<event>
 7    1  0.7578565E-012  0.5930194E+02  0.7816164E-02  0.1266605E+00
        -11   -1    0    0    0    0  0.00000000000E+00  0.00000000000E+00  0.45593999997E+02  0.45594000000E+02  0.51100000000E-03 0. -1.
         11   -1    0    0    0    0 -0.00000000000E+00 -0.00000000000E+00 -0.45593999997E+02  0.45594000000E+02  0.51100000000E-03 0.  1.
    9900012    2    1    2    0    0 -0.12184302684E+02 -0.28466078951E+02  0.76122025106E+01  0.59301944901E+02  0.50000001592E+02 0.  0.
         12    1    1    2    0    0  0.12184302684E+02  0.28466078951E+02 -0.76122025106E+01  0.31886055099E+02  0.00000000000E+00 0. -1.
         11    1    3    3    0    0  0.10141188957E+02 -0.11122723285E+02 -0.73961604707E+01  0.16770863923E+02  0.51100000000E-03 0. -1.
        -11    1    3    3    0    0 -0.23063705546E+02 -0.63918787239E+00  0.84933099079E+01  0.24586162533E+02  0.51100000000E-03 0.  1.
        -12    1    3    3    0    0  0.73821390483E+00 -0.16704167793E+02  0.65150530733E+01  0.17944918444E+02  0.00000000000E+00 0.  1.
</event>
<event>
 7    1  0.7578565E-012  0.5930195E+02  0.7816164E-02  0.1266605E+00
        -11   -1    0    0    0    0  0.00000000000E+00  0.00000000000E+00  0.45593999997E+02  0.45594000000E+02  0.51100000000E-03 0.  1.
         11   -1    0    0    0    0 -0.00000000000E+00 -0.00000000000E+00 -0.45593999997E+02  0.45594000000E+02  0.51100000000E-03 0. -1.
    9900012    2    1    2    0    0  0.15066441973E+02  0.20166665598E+02  0.19571100988E+02  0.59301951813E+02  0.50000014199E+02 0.  0.
         12    1    1    2    0    0 -0.15066441973E+02 -0.20166665598E+02 -0.19571100988E+02  0.31886048187E+02  0.00000000000E+00 0. -1.
         11    1    3    3    0    0 -0.42311373892E+01  0.88731870939E+01 -0.14643591630E+01  0.99388289466E+01  0.51100000000E-03 0. -1.
        -11    1    3    3    0    0  0.28569593267E+02  0.28795652586E+01  0.52091425649E+01  0.29183021126E+02  0.51100000000E-03 0.  1.
        -12    1    3    3    0    0 -0.92720139041E+01  0.84139132450E+01  0.15826317586E+02  0.20180101741E+02  0.00000000000E+00 0.  1.
</event>
<event>
 7    1  0.7578565E-012  0.5930192E+02  0.7816164E-02  0.1266605E+00
        -11   -1    0    0    0    0  0.00000000000E+00  0.00000000000E+00  0.45593999997E+02  0.45594000000E+02  0.51100000000E-03 0.  1.
         11   -1    0    0    0    0 -0.00000000000E+00 -0.00000000000E+00 -0.45593999997E+02  0.45594000000E+02  0.51100000000E-03 0. -1.
    9900012    2    1    2    0    0  0.20695847184E+02 -0.16453981622E+02  0.17823312692E+02  0.59301920322E+02  0.49999956767E+02 0.  0.
         12    1    1    2    0    0 -0.20695847184E+02  0.16453981622E+02 -0.17823312692E+02  0.31886079678E+02  0.00000000000E+00 0. -1.
         11    1    3    3    0    0  0.75593952497E+00  0.64322695355E+01  0.17787829117E+02  0.18930198121E+02  0.51100000000E-03 0. -1.
        -11    1    3    3    0    0  0.12580726502E+02 -0.93487915762E+01 -0.12863619405E+02  0.20276767190E+02  0.51100000000E-03 0.  1.
        -12    1    3    3    0    0  0.73591811572E+01 -0.13537459581E+02  0.12899102980E+02  0.20094955011E+02  0.00000000000E+00 0.  1.
</event>
<event>
 7    1  0.7578565E-012  0.5930194E+02  0.7816164E-02  0.1266605E+00
        -11   -1    0    0    0    0  0.00000000000E+00  0.00000000000E+00  0.45593999997E+02  0.45594000000E+02  0.51100000000E-03 0.  1.
         11   -1    0    0    0    0 -0.00000000000E+00 -0.00000000000E+00 -0.45593999997E+02  0.45594000000E+02  0.51100000000E-03 0. -1.
    9900012    2    1    2    0    0 -0.25819883748E+02 -0.75246110106E+01  0.17129929797E+02  0.59301942507E+02  0.49999997226E+02 0.  0.
         12    1    1    2    0    0  0.25819883748E+02  0.75246110106E+01 -0.17129929797E+02  0.31886057493E+02  0.00000000000E+00 0. -1.
         11    1    3    3    0    0 -0.38885441570E+01 -0.17890391071E+02 -0.34551598582E+01  0.18631290837E+02  0.51100000000E-03 0. -1.
        -11    1    3    3    0    0 -0.22734423279E+02  0.49549979366E+01  0.24618433991E+02  0.33874375253E+02  0.51100000000E-03 0.  1.
         12    1    3    3    0    0  0.80308368844E+00  0.54107821240E+01 -0.40333443353E+01  0.67962764166E+01  0.00000000000E+00 0. -1.
</event>
<event>
 7    1  0.7578565E-012  0.5930191E+02  0.7816164E-02  0.1266605E+00
        -11   -1    0    0    0    0  0.00000000000E+00  0.00000000000E+00  0.45593999997E+02  0.45594000000E+02  0.51100000000E-03 0.  1.
         11   -1    0    0    0    0 -0.00000000000E+00 -0.00000000000E+00 -0.45593999997E+02  0.45594000000E+02  0.51100000000E-03 0. -1.
    9900012    2    1    2    0    0 -0.11980306633E+02 -0.11456877370E+02  0.27238485935E+02  0.59301907387E+02  0.49999933176E+02 0.  0.
         12    1    1    2    0    0  0.11980306633E+02  0.11456877370E+02 -0.27238485935E+02  0.31886092613E+02  0.00000000000E+00 0. -1.
         11    1    3    3    0    0 -0.10326396400E+02 -0.23222713741E+02  0.18890705576E+02  0.31666822599E+02  0.51100000000E-03 0.  1.
        -11    1    3    3    0    0 -0.12461746525E+02  0.44848313675E+01  0.52019757537E+01  0.14229173935E+02  0.51100000000E-03 0. -1.
         12    1    3    3    0    0  0.10807836292E+02  0.72810050036E+01  0.31458046057E+01  0.13405910853E+02  0.00000000000E+00 0. -1.
</event>
<event>
 7    1  0.7578565E-012  0.5930193E+02  0.7816164E-02  0.1266605E+00
        -11   -1    0    0    0    0  0.00000000000E+00  0.00000000000E+00  0.45593999997E+02  0.45594000000E+02  0.51100000000E-03 0.  1.
         11   -1    0    0    0    0 -0.00000000000E+00 -0.00000000000E+00 -0.45593999997E+02  0.45594000000E+02  0.51100000000E-03 0. -1.
    9900012    2    1    2    0    0  0.11582701713E+02 -0.16834819965E+02  0.24477572423E+02  0.59301926332E+02  0.49999967728E+02 0.  0.
         12    1    1    2    0    0 -0.11582701713E+02  0.16834819965E+02 -0.24477572423E+02  0.31886073668E+02  0.00000000000E+00 0. -1.
         11    1    3    3    0    0  0.29764642331E+01 -0.25581374017E+01 -0.41397365994E+01  0.57044566499E+01  0.51100000000E-03 0. -1.
        -11    1    3    3    0    0  0.19620129277E+02 -0.15445641035E+02  0.33258161471E+02  0.41588731702E+02  0.51100000000E-03 0.  1.
        -12    1    3    3    0    0 -0.11013891798E+02  0.11689584715E+01 -0.46408524490E+01  0.12008737981E+02  0.00000000000E+00 0.  1.
</event>
<event>
 7    1  0.7578565E-012  0.5930193E+02  0.7816164E-02  0.1266605E+00
        -11   -1    0    0    0    0  0.00000000000E+00  0.00000000000E+00  0.45593999997E+02  0.45594000000E+02  0.51100000000E-03 0.  1.
         11   -1    0    0    0    0 -0.00000000000E+00 -0.00000000000E+00 -0.45593999997E+02  0.45594000000E+02  0.51100000000E-03 0. -1.
    9900012    2    1    2    0    0 -0.33856913990E+01  0.27840290412E+02  0.15171576198E+02  0.59301930929E+02  0.49999976110E+02 0.  0.
         12    1    1    2    0    0  0.33856913990E+01 -0.27840290412E+02 -0.15171576198E+02  0.31886069071E+02  0.00000000000E+00 0. -1.
         11    1    3    3    0    0  0.68956208824E+01  0.38621608461E+02  0.39113874056E+01  0.39426858601E+02  0.51100000000E-03 0. -1.
        -11    1    3    3    0    0 -0.91150752613E+01 -0.64555324529E+01  0.10501569048E+02  0.15331061575E+02  0.51100000000E-03 0.  1.
         12    1    3    3    0    0 -0.11662370201E+01 -0.43257855956E+01  0.75861974423E+00  0.45440107529E+01  0.00000000000E+00 0. -1.
</event>
<event>
 7    1  0.7578565E-012  0.5930194E+02  0.7816164E-02  0.1266605E+00
        -11   -1    0    0    0    0  0.00000000000E+00  0.00000000000E+00  0.45593999997E+02  0.45594000000E+02  0.51100000000E-03 0. -1.
         11   -1    0    0    0    0 -0.00000000000E+00 -0.00000000000E+00 -0.45593999997E+02  0.45594000000E+02  0.51100000000E-03 0.  1.
    9900012    2    1    2    0    0 -0.28895502251E+02  0.12958681056E+02 -0.37206645586E+01  0.59301940196E+02  0.49999993013E+02 0.  0.
         12    1    1    2    0    0  0.28895502251E+02 -0.12958681056E+02  0.37206645586E+01  0.31886059804E+02  0.00000000000E+00 0. -1.
         11    1    3    3    0    0 -0.55960101800E+00 -0.10727138269E+02  0.56324129212E+01  0.12128838539E+02  0.51100000000E-03 0. -1.
        -11    1    3    3    0    0 -0.24067576744E+02  0.31200119345E+01 -0.97780583436E+01  0.26164731033E+02  0.51100000000E-03 0.  1.
        -12    1    3    3    0    0 -0.42683244894E+01  0.20565807390E+02  0.42498086382E+00  0.21008370624E+02  0.00000000000E+00 0.  1.
</event>
<event>
 7    1  0.7578565E-012  0.5930194E+02  0.7816164E-02  0.1266605E+00
        -11   -1    0    0    0    0  0.00000000000E+00  0.00000000000E+00  0.45593999997E+02  0.45594000000E+02  0.51100000000E-03 0.  1.
         11   -1    0    0    0    0 -0.00000000000E+00 -0.00000000000E+00 -0.45593999997E+02  0.45594000000E+02  0.51100000000E-03 0. -1.
    9900012    2    1    2    0    0 -0.26390453545E+02  0.17868015714E+02  0.99949828831E+00  0.59301936889E+02  0.49999986981E+02 0.  0.
         12    1    1    2    0    0  0.26390453545E+02 -0.17868015714E+02 -0.99949828831E+00  0.31886063111E+02  0.00000000000E+00 0. -1.
         11    1    3    3    0    0 -0.19057245383E+02 -0.44465231735E+01 -0.11759872708E+02  0.22830785713E+02  0.51100000000E-03 0. -1.
        -11    1    3    3    0    0 -0.16330056235E+01  0.55247300733E+01  0.17244724656E+02  0.18181580748E+02  0.51100000000E-03 0.  1.
         12    1    3    3    0    0 -0.57002025388E+01  0.16789808814E+02 -0.44853536606E+01  0.18289570428E+02  0.00000000000E+00 0. -1.
</event>
<event>
 7    1  0.7578565E-012  0.5930195E+02  0.7816164E-02  0.1266605E+00
        -11   -1    0    0    0    0  0.00000000000E+00  0.00000000000E+00  0.45593999997E+02  0.45594000000E+02  0.51100000000E-03 0.  1.
         11   -1    0    0    0    0 -0.00000000000E+00 -0.00000000000E+00 -0.45593999997E+02  0.45594000000E+02  0.51100000000E-03 0. -1.
    9900012    2    1    2    0    0  0.25828070716E+02 -0.16020528675E+02  0.96422934662E+01  0.59301946634E+02  0.50000004754E+02 0.  0.
         12    1    1    2    0    0 -0.25828070716E+02  0.16020528675E+02 -0.96422934662E+01  0.31886053366E+02  0.00000000000E+00 0. -1.
         11    1    3    3    0    0  0.12107367281E+02  0.42207852354E+01  0.48302743833E+01  0.13701639367E+02  0.51100000000E-03 0. -1.
        -11    1    3    3    0    0  0.48167613829E+01 -0.13540367138E+02 -0.16298046826E+02  0.21729451513E+02  0.51100000000E-03 0.  1.
        -12    1    3    3    0    0  0.89039420529E+01 -0.67009467716E+01  0.21110065909E+02  0.23870855754E+02  0.00000000000E+00 0.  1.
</event>
<event>
 7    1  0.7578565E-012  0.5930195E+02  0.7816164E-02  0.1266605E+00
        -11   -1    0    0    0    0  0.00000000000E+00  0.00000000000E+00  0.45593999997E+02  0.45594000000E+02  0.51100000000E-03 0.  1.
         11   -1    0    0    0    0 -0.00000000000E+00 -0.00000000000E+00 -0.45593999997E+02  0.45594000000E+02  0.51100000000E-03 0. -1.
    9900012    2    1    2    0    0  0.17920753595E+02  0.23005698742E+02 -0.12895903852E+02  0.59301954146E+02  0.50000018454E+02 0.  0.
         12    1    1    2    0    0 -0.17920753595E+02 -0.23005698742E+02  0.12895903852E+02  0.31886045854E+02  0.00000000000E+00 0. -1.
         11    1    3    3    0    0 -0.14186265865E+02  0.17824329287E+01 -0.54983512361E+01  0.15318585865E+02  0.51100000000E-03 0. -1.
        -11    1    3    3    0    0  0.12788533051E+02  0.10055374650E+02  0.66945032839E+01  0.17591859237E+02  0.51100000000E-03 0.  1.
         12    1    3    3    0    0  0.19318486408E+02  0.11167891164E+02 -0.14092055900E+02  0.26391509044E+02  0.00000000000E+00 0. -1.
</event>
<event>
 7    1  0.7578565E-012  0.5930200E+02  0.7816164E-02  0.1266605E+00
        -11   -1    0    0    0    0  0.00000000000E+00  0.00000000000E+00  0.45593999997E+02  0.45594000000E+02  0.51100000000E-03 0.  1.
         11   -1    0    0    0    0 -0.00000000000E+00 -0.00000000000E+00 -0.45593999997E+02  0.45594000000E+02  0.51100000000E-03 0. -1.
    9900012    2    1    2    0    0 -0.85735561634E+01 -0.12328933780E+02  0.28128432408E+02  0.59301997065E+02  0.50000096727E+02 0.  0.
         12    1    1    2    0    0  0.85735561634E+01  0.12328933780E+02 -0.28128432408E+02  0.31886002935E+02  0.00000000000E+00 0. -1.
         11    1    3    3    0    0  0.37921811456E+01  0.13189416257E+01 -0.42358492132E+01  0.58363227868E+01  0.51100000000E-03 0. -1.
        -11    1    3    3    0    0  0.10636841436E+02 -0.33382660820E+01  0.24731563573E+02  0.27128152410E+02  0.51100000000E-03 0.  1.
        -12    1    3    3    0    0 -0.23002578745E+02 -0.10309609324E+02  0.76327180479E+01  0.26337521868E+02  0.00000000000E+00 0.  1.
</event>
<event>
 7    1  0.7578565E-012  0.5930199E+02  0.7816164E-02  0.1266605E+00
        -11   -1    0    0    0    0  0.00000000000E+00  0.00000000000E+00  0.45593999997E+02  0.45594000000E+02  0.51100000000E-03 0.  1.
         11   -1    0    0    0    0 -0.00000000000E+00 -0.00000000000E+00 -0.45593999997E+02  0.45594000000E+02  0.51100000000E-03 0. -1.
    9900012    2    1    2    0    0  0.18778088918E+02 -0.22040693896E+02  0.13353222364E+02  0.59301994318E+02  0.50000091718E+02 0.  0.
         12    1    1    2    0    0 -0.18778088918E+02  0.22040693896E+02 -0.13353222364E+02  0.31886005682E+02  0.00000000000E+00 0. -1.
         11    1    3    3    0    0  0.15685476712E+01  0.10240031174E+02  0.13315974842E+02  0.16871092630E+02  0.51100000000E-03 0. -1.
        -11    1    3    3    0    0  0.21605594023E+02 -0.28027975885E+02 -0.31592101889E+01  0.35529561418E+02  0.51100000000E-03 0.  1.
         12    1    3    3    0    0 -0.43960527757E+01 -0.42527491859E+01  0.31964577103E+01  0.69013402711E+01  0.00000000000E+00 0. -1.
</event>
<event>
 7    1  0.7578565E-012  0.5930194E+02  0.7816164E-02  0.1266605E+00
        -11   -1    0    0    0    0  0.00000000000E+00  0.00000000000E+00  0.45593999997E+02  0.45594000000E+02  0.51100000000E-03 0.  1.
         11   -1    0    0    0    0 -0.00000000000E+00 -0.00000000000E+00 -0.45593999997E+02  0.45594000000E+02  0.51100000000E-03 0. -1.
    9900012    2    1    2    0    0 -0.29502276388E+01 -0.11431958363E+00  0.31749079761E+02  0.59301937562E+02  0.49999988209E+02 0.  0.
         12    1    1    2    0    0  0.29502276388E+01  0.11431958363E+00 -0.31749079761E+02  0.31886062438E+02  0.00000000000E+00 0. -1.
         11    1    3    3    0    0 -0.71864932485E+01 -0.35680339782E+00 -0.63703745227E+01  0.96101334900E+01  0.51100000000E-03 0. -1.
        -11    1    3    3    0    0  0.62112436925E+01  0.15362711309E+02  0.18350424668E+02  0.24725099246E+02  0.51100000000E-03 0.  1.
        -12    1    3    3    0    0 -0.19749780827E+01 -0.15120227495E+02  0.19769029616E+02  0.24966704826E+02  0.00000000000E+00 0.  1.
</event>
<event>
 7    1  0.7578565E-012  0.5930160E+02  0.7816164E-02  0.1266606E+00
        -11   -1    0    0    0    0  0.00000000000E+00  0.00000000000E+00  0.45593999997E+02  0.45594000000E+02  0.51100000000E-03 0. -1.
         11   -1    0    0    0    0 -0.00000000000E+00 -0.00000000000E+00 -0.45593999997E+02  0.45594000000E+02  0.51100000000E-03 0.  1.
    9900012    2    1    2    0    0 -0.19201335842E+02 -0.23392434815E+01 -0.25349149631E+02  0.59301596233E+02  0.49999365702E+02 0.  0.
         12    1    1    2    0    0  0.19201335842E+02  0.23392434815E+01  0.25349149631E+02  0.31886403767E+02  0.00000000000E+00 0. -1.
         11    1    3    3    0    0  0.13768532045E+02 -0.84214865915E+01 -0.81355622096E+00  0.16160315129E+02  0.51100000000E-03 0. -1.
        -11    1    3    3    0    0 -0.19811985911E+02  0.35030273407E+00 -0.19840293627E+02  0.28040591100E+02  0.51100000000E-03 0.  1.
         12    1    3    3    0    0 -0.13157881976E+02  0.57319403759E+01 -0.46952997827E+01  0.15100690004E+02  0.00000000000E+00 0. -1.
</event>
<event>
 7    1  0.7578565E-012  0.5930186E+02  0.7816164E-02  0.1266605E+00
        -11   -1    0    0    0    0  0.00000000000E+00  0.00000000000E+00  0.45593999997E+02  0.45594000000E+02  0.51100000000E-03 0.  1.
         11   -1    0    0    0    0 -0.00000000000E+00 -0.00000000000E+00 -0.45593999997E+02  0.45594000000E+02  0.51100000000E-03 0. -1.
    9900012    2    1    2    0    0 -0.28074498680E+02  0.11419984065E+01  0.15074620870E+02  0.59301861462E+02  0.49999849420E+02 0.  0.
         12    1    1    2    0    0  0.28074498680E+02 -0.11419984065E+01 -0.15074620870E+02  0.31886138538E+02  0.00000000000E+00 0. -1.
         11    1    3    3    0    0  0.54556818807E+01 -0.97408257861E+00  0.22167382332E+02  0.22849642041E+02  0.51100000000E-03 0. -1.
        -11    1    3    3    0    0 -0.22618868277E+02 -0.19113694153E+01  0.24376790502E+00  0.22700792017E+02  0.51100000000E-03 0.  1.
         12    1    3    3    0    0 -0.10911312284E+02  0.40274504004E+01 -0.73365293677E+01  0.13751427404E+02  0.00000000000E+00 0. -1.
</event>
<event>
 7    1  0.7578565E-012  0.5930194E+02  0.7816164E-02  0.1266605E+00
        -11   -1    0    0    0    0  0.00000000000E+00  0.00000000000E+00  0.45593999997E+02  0.45594000000E+02  0.51100000000E-03 0.  1.
         11   -1    0    0    0    0 -0.00000000000E+00 -0.00000000000E+00 -0.45593999997E+02  0.45594000000E+02  0.51100000000E-03 0. -1.
    9900012    2    1    2    0    0 -0.16470394507E+02  0.10677385578E+02  0.25128480754E+02  0.59301937167E+02  0.49999987487E+02 0.  0.
         12    1    1    2    0    0  0.16470394507E+02 -0.10677385578E+02 -0.25128480754E+02  0.31886062833E+02  0.00000000000E+00 0. -1.
         11    1    3    3    0    0 -0.13754626003E+02  0.10931430676E+02 -0.71860059995E+01  0.18982217879E+02  0.51100000000E-03 0. -1.
        -11    1    3    3    0    0  0.75441278960E+01  0.54613020830E+01  0.24506840823E+02  0.26216882605E+02  0.51100000000E-03 0.  1.
         12    1    3    3    0    0 -0.10259896400E+02 -0.57153471809E+01  0.78076459311E+01  0.14102836683E+02  0.00000000000E+00 0. -1.
</event>
<event>
 7    1  0.7578565E-012  0.5930201E+02  0.7816164E-02  0.1266605E+00
        -11   -1    0    0    0    0  0.00000000000E+00  0.00000000000E+00  0.45593999997E+02  0.45594000000E+02  0.51100000000E-03 0. -1.
         11   -1    0    0    0    0 -0.00000000000E+00 -0.00000000000E+00 -0.45593999997E+02  0.45594000000E+02  0.51100000000E-03 0.  1.
    9900012    2    1    2    0    0  0.16645232719E+02  0.26643009771E+02 -0.54591784295E+01  0.59302009800E+02  0.50000119952E+02 0.  0.
         12    1    1    2    0    0 -0.16645232719E+02 -0.26643009771E+02  0.54591784295E+01  0.31885990200E+02  0.00000000000E+00 0. -1.
         11    1    3    3    0    0 -0.73504107620E+01  0.11448450625E+02 -0.19320758499E+02  0.23630219409E+02  0.51100000000E-03 0. -1.
        -11    1    3    3    0    0  0.64725241474E+01 -0.18693662169E+01 -0.13465552744E+01  0.68703209721E+01  0.51100000000E-03 0.  1.
         12    1    3    3    0    0  0.17523119334E+02  0.17063925363E+02  0.15208135344E+02  0.28801469418E+02  0.00000000000E+00 0. -1.
</event>
<event>
 7    1  0.7578565E-012  0.5930183E+02  0.7816164E-02  0.1266605E+00
        -11   -1    0    0    0    0  0.00000000000E+00  0.00000000000E+00  0.45593999997E+02  0.45594000000E+02  0.51100000000E-03 0. -1.
         11   -1    0    0    0    0 -0.00000000000E+00 -0.00000000000E+00 -0.45593999997E+02  0.45594000000E+02  0.51100000000E-03 0.  1.
    9900012    2    1    2    0    0 -0.31461254506E+01  0.90356516758E+01 -0.30416878663E+02  0.59301833499E+02  0.49999798421E+02 0.  0.
         12    1    1    2    0    0  0.31461254506E+01 -0.90356516758E+01  0.30416878663E+02  0.31886166501E+02  0.00000000000E+00 0. -1.
         11    1    3    3    0    0 -0.81452540984E+01  0.13445740257E+02  0.68180202394E+01  0.17135299695E+02  0.51100000000E-03 0. -1.
        -11    1    3    3    0    0  0.10127980203E+02 -0.57603511645E+01 -0.34030870264E+02  0.35970234357E+02  0.51100000000E-03 0.  1.
         12    1    3    3    0    0 -0.51288515550E+01  0.13502625832E+01 -0.32040286383E+01  0.61962994466E+01  0.00000000000E+00 0. -1.
</event>
<event>
 7    1  0.8131611E-012  0.5930209E+02  0.7816164E-02  0.1266604E+00
        -11   -1    0    0    0    0  0.00000000000E+00  0.00000000000E+00  0.45593999997E+02  0.45594000000E+02  0.51100000000E-03 0. -1.
         11   -1    0    0    0    0 -0.00000000000E+00 -0.00000000000E+00 -0.45593999997E+02  0.45594000000E+02  0.51100000000E-03 0.  1.
    9900012    2    1    2    0    0  0.28481188360E+02  0.14084704541E+02 -0.26747986276E+01  0.59302085553E+02  0.50000258108E+02 0.  0.
         12    1    1    2    0    0 -0.28481188360E+02 -0.14084704541E+02  0.26747986276E+01  0.31885914447E+02  0.00000000000E+00 0. -1.
         11    1    3    3    0    0  0.17299738607E+02 -0.14160838917E+02 -0.14875896619E+01  0.22405875077E+02  0.51100000000E-03 0. -1.
        -11    1    3    3    0    0  0.17108608270E+02  0.20553673521E+02 -0.33388826175E+01  0.26950066967E+02  0.51100000000E-03 0.  1.
         12    1    3    3    0    0 -0.59271585162E+01  0.76918699368E+01  0.21516736518E+01  0.99461435091E+01  0.00000000000E+00 0. -1.
</event>
<event>
 7    1  0.7578565E-012  0.5930205E+02  0.7816164E-02  0.1266604E+00
        -11   -1    0    0    0    0  0.00000000000E+00  0.00000000000E+00  0.45593999997E+02  0.45594000000E+02  0.51100000000E-03 0.  1.
         11   -1    0    0    0    0 -0.00000000000E+00 -0.00000000000E+00 -0.45593999997E+02  0.45594000000E+02  0.51100000000E-03 0. -1.
    9900012    2    1    2    0    0  0.80022091729E+01  0.24892605863E+02  0.18249288282E+02  0.59302051667E+02  0.50000196308E+02 0.  0.
         12    1    1    2    0    0 -0.80022091729E+01 -0.24892605863E+02 -0.18249288282E+02  0.31885948333E+02  0.00000000000E+00 0. -1.
         11    1    3    3    0    0  0.18696461728E+02  0.24283783293E+02  0.35913627510E+01  0.30857052660E+02  0.51100000000E-03 0. -1.
        -11    1    3    3    0    0 -0.17232970792E+02 -0.58822058107E+00  0.12998627912E+02  0.21593647530E+02  0.51100000000E-03 0.  1.
         12    1    3    3    0    0  0.65387182366E+01  0.11970431506E+01  0.16592976188E+01  0.68513514777E+01  0.00000000000E+00 0. -1.
</event>
<event>
 7    1  0.7578565E-012  0.5930190E+02  0.7816164E-02  0.1266605E+00
        -11   -1    0    0    0    0  0.00000000000E+00  0.00000000000E+00  0.45593999997E+02  0.45594000000E+02  0.51100000000E-03 0.  1.
         11   -1    0    0    0    0 -0.00000000000E+00 -0.00000000000E+00 -0.45593999997E+02  0.45594000000E+02  0.51100000000E-03 0. -1.
    9900012    2    1    2    0    0  0.27112936212E+02  0.39631914576E+01 -0.16306594084E+02  0.59301902603E+02  0.49999924452E+02 0.  0.
         12    1    1    2    0    0 -0.27112936212E+02 -0.39631914576E+01  0.16306594084E+02  0.31886097397E+02  0.00000000000E+00 0. -1.
         11    1    3    3    0    0 -0.13484013198E+02 -0.37791632086E+01 -0.10339529065E+02  0.17407083272E+02  0.51100000000E-03 0. -1.
        -11    1    3    3    0    0  0.14271152583E+02  0.18970907906E+01 -0.34948666726E+01  0.14814818353E+02  0.51100000000E-03 0.  1.
         12    1    3    3    0    0  0.26325796827E+02  0.58452638755E+01 -0.24721983463E+01  0.27080000979E+02  0.00000000000E+00 0. -1.
</event>
<event>
 7    1  0.7578565E-012  0.5930194E+02  0.7816164E-02  0.1266605E+00
        -11   -1    0    0    0    0  0.00000000000E+00  0.00000000000E+00  0.45593999997E+02  0.45594000000E+02  0.51100000000E-03 0.  1.
         11   -1    0    0    0    0 -0.00000000000E+00 -0.00000000000E+00 -0.45593999997E+02  0.45594000000E+02  0.51100000000E-03 0. -1.
    9900012    2    1    2    0    0  0.16068516817E+02  0.99930226441E+00  0.27523176360E+02  0.59301936044E+02  0.49999985439E+02 0.  0.
         12    1    1    2    0    0 -0.16068516817E+02 -0.99930226441E+00 -0.27523176360E+02  0.31886063956E+02  0.00000000000E+00 0. -1.
         11    1    3    3    0    0  0.88833878180E+01  0.39451247373E+01 -0.63435240688E+01  0.11606846522E+02  0.51100000000E-03 0. -1.
        -11    1    3    3    0    0  0.67430290155E+01 -0.14284338764E+02  0.32665903920E+02  0.36284598019E+02  0.51100000000E-03 0.  1.
        -12    1    3    3    0    0  0.44209998340E+00  0.11338516291E+02  0.12007965087E+01  0.11410491503E+02  0.00000000000E+00 0.  1.
</event>
<event>
 7    1  0.7578565E-012  0.5930194E+02  0.7816164E-02  0.1266605E+00
        -11   -1    0    0    0    0  0.00000000000E+00  0.00000000000E+00  0.45593999997E+02  0.45594000000E+02  0.51100000000E-03 0.  1.
         11   -1    0    0    0    0 -0.00000000000E+00 -0.00000000000E+00 -0.45593999997E+02  0.45594000000E+02  0.51100000000E-03 0. -1.
    9900012    2    1    2    0    0 -0.17421804787E+02 -0.24428249288E+02  0.10791761068E+02  0.59301941099E+02  0.49999994658E+02 0.  0.
         12    1    1    2    0    0  0.17421804787E+02  0.24428249288E+02 -0.10791761068E+02  0.31886058901E+02  0.00000000000E+00 0. -1.
         11    1    3    3    0    0 -0.21289137771E+02  0.61096051143E+01  0.95932597697E+00  0.22169234725E+02  0.51100000000E-03 0. -1.
        -11    1    3    3    0    0  0.45588218156E+01 -0.31255287512E+02  0.12740463396E+02  0.34058703170E+02  0.51100000000E-03 0.  1.
        -12    1    3    3    0    0 -0.69148883151E+00  0.71743310981E+00 -0.29080283054E+01  0.30740032037E+01  0.00000000000E+00 0.  1.
</event>
<event>
 7    1  0.7578565E-012  0.5930195E+02  0.7816164E-02  0.1266605E+00
        -11   -1    0    0    0    0  0.00000000000E+00  0.00000000000E+00  0.45593999997E+02  0.45594000000E+02  0.51100000000E-03 0.  1.
         11   -1    0    0    0    0 -0.00000000000E+00 -0.00000000000E+00 -0.45593999997E+02  0.45594000000E+02  0.51100000000E-03 0. -1.
    9900012    2    1    2    0    0 -0.47415201979E+01  0.31507802659E+02 -0.12234372105E+01  0.59301945983E+02  0.50000003565E+02 0.  0.
         12    1    1    2    0    0  0.47415201979E+01 -0.31507802659E+02  0.12234372105E+01  0.31886054017E+02  0.00000000000E+00 0. -1.
         11    1    3    3    0    0  0.20293885167E+01 -0.12037150456E+02 -0.36947482990E+01  0.12753923871E+02  0.51100000000E-03 0. -1.
        -11    1    3    3    0    0 -0.98931494432E-01  0.95475156287E+01  0.66722308781E+01  0.11648326372E+02  0.51100000000E-03 0.  1.
         12    1    3    3    0    0 -0.66719772202E+01  0.33997437486E+02 -0.42009197896E+01  0.34899695740E+02  0.00000000000E+00 0. -1.
</event>
<event>
 7    1  0.7578565E-012  0.5930194E+02  0.7816164E-02  0.1266605E+00
        -11   -1    0    0    0    0  0.00000000000E+00  0.00000000000E+00  0.45593999997E+02  0.45594000000E+02  0.51100000000E-03 0.  1.
         11   -1    0    0    0    0 -0.00000000000E+00 -0.00000000000E+00 -0.45593999997E+02  0.45594000000E+02  0.51100000000E-03 0. -1.
    9900012    2    1    2    0    0 -0.17400461215E+02 -0.23671577258E+02  0.12393592014E+02  0.59301941238E+02  0.49999994913E+02 0.  0.
         12    1    1    2    0    0  0.17400461215E+02  0.23671577258E+02 -0.12393592014E+02  0.31886058762E+02  0.00000000000E+00 0. -1.
         11    1    3    3    0    0  0.11687939430E+02 -0.30236175837E+01  0.17552834754E+02  0.21303807162E+02  0.51100000000E-03 0.  1.
        -11    1    3    3    0    0 -0.20630474462E+02 -0.20572585923E+02 -0.31522773068E+01  0.29305027224E+02  0.51100000000E-03 0. -1.
        -12    1    3    3    0    0 -0.84579261822E+01 -0.75373750827E-01 -0.20069654333E+01  0.86931068529E+01  0.00000000000E+00 0.  1.
</event>
<event>
 7    1  0.7578565E-012  0.5930195E+02  0.7816164E-02  0.1266605E+00
        -11   -1    0    0    0    0  0.00000000000E+00  0.00000000000E+00  0.45593999997E+02  0.45594000000E+02  0.51100000000E-03 0.  1.
         11   -1    0    0    0    0 -0.00000000000E+00 -0.00000000000E+00 -0.45593999997E+02  0.45594000000E+02  0.51100000000E-03 0. -1.
    9900012    2    1    2    0    0  0.28359988911E+02 -0.13817935033E+02  0.46363329072E+01  0.59301954738E+02  0.50000019533E+02 0.  0.
         12    1    1    2    0    0 -0.28359988911E+02  0.13817935033E+02 -0.46363329072E+01  0.31886045262E+02  0.00000000000E+00 0. -1.
         11    1    3    3    0    0  0.22130090105E+02 -0.20943644552E+02  0.16827626288E+02  0.34807271395E+02  0.51100000000E-03 0. -1.
        -11    1    3    3    0    0  0.64285842335E+01  0.11782226887E+02 -0.23781501272E+01  0.13630963427E+02  0.51100000000E-03 0.  1.
         12    1    3    3    0    0 -0.19868542697E+00 -0.46565173678E+01 -0.98131432540E+01  0.10863719916E+02  0.00000000000E+00 0. -1.
</event>
<event>
 7    1  0.7578565E-012  0.5930195E+02  0.7816164E-02  0.1266605E+00
        -11   -1    0    0    0    0  0.00000000000E+00  0.00000000000E+00  0.45593999997E+02  0.45594000000E+02  0.51100000000E-03 0.  1.
         11   -1    0    0    0    0 -0.00000000000E+00 -0.00000000000E+00 -0.45593999997E+02  0.45594000000E+02  0.51100000000E-03 0. -1.
    9900012    2    1    2    0    0  0.17611331990E+02 -0.24417593583E+01  0.26468826913E+02  0.59301952873E+02  0.50000016131E+02 0.  0.
         12    1    1    2    0    0 -0.17611331990E+02  0.24417593583E+01 -0.26468826913E+02  0.31886047127E+02  0.00000000000E+00 0. -1.
         11    1    3    3    0    0 -0.11275558562E+02 -0.49592923171E+01 -0.73985334847E+01  0.14369102239E+02  0.51100000000E-03 0. -1.
        -11    1    3    3    0    0  0.16070372672E+01 -0.55597827386E+00  0.41030801392E+01  0.44415028435E+01  0.51100000000E-03 0.  1.
         12    1    3    3    0    0  0.27279853285E+02  0.30735112327E+01  0.29764280258E+02  0.40491347790E+02  0.00000000000E+00 0. -1.
</event>
<event>
 7    1  0.7578565E-012  0.5930206E+02  0.7816164E-02  0.1266604E+00
        -11   -1    0    0    0    0  0.00000000000E+00  0.00000000000E+00  0.45593999997E+02  0.45594000000E+02  0.51100000000E-03 0.  1.
         11   -1    0    0    0    0 -0.00000000000E+00 -0.00000000000E+00 -0.45593999997E+02  0.45594000000E+02  0.51100000000E-03 0. -1.
    9900012    2    1    2    0    0 -0.71056496017E+01 -0.19995879081E+02  0.23798901008E+02  0.59302060690E+02  0.50000212764E+02 0.  0.
         12    1    1    2    0    0  0.71056496017E+01  0.19995879081E+02 -0.23798901008E+02  0.31885939310E+02  0.00000000000E+00 0. -1.
         11    1    3    3    0    0  0.95419351094E+01 -0.27585299056E+01 -0.11061049583E+02  0.14866231231E+02  0.51100000000E-03 0.  1.
        -11    1    3    3    0    0 -0.14760539110E+02 -0.12648657274E+02  0.16754057494E+02  0.25662433408E+02  0.51100000000E-03 0. -1.
        -12    1    3    3    0    0 -0.18870456013E+01 -0.45886919009E+01  0.18105893097E+02  0.18773396051E+02  0.00000000000E+00 0.  1.
</event>
<event>
 7    1  0.7578565E-012  0.5930194E+02  0.7816164E-02  0.1266605E+00
        -11   -1    0    0    0    0  0.00000000000E+00  0.00000000000E+00  0.45593999997E+02  0.45594000000E+02  0.51100000000E-03 0.  1.
         11   -1    0    0    0    0 -0.00000000000E+00 -0.00000000000E+00 -0.45593999997E+02  0.45594000000E+02  0.51100000000E-03 0. -1.
    9900012    2    1    2    0    0 -0.26733509050E+02 -0.63970595142E+01  0.16159136369E+02  0.59301944039E+02  0.50000000020E+02 0.  0.
         12    1    1    2    0    0  0.26733509050E+02  0.63970595142E+01 -0.16159136369E+02  0.31886055961E+02  0.00000000000E+00 0. -1.
         11    1    3    3    0    0 -0.36854291529E+02 -0.12004960530E+02  0.14526250406E+02  0.41392871760E+02  0.51100000000E-03 0. -1.
        -11    1    3    3    0    0  0.66420547154E+01 -0.29071172135E+01 -0.27059543749E+01  0.77388894989E+01  0.51100000000E-03 0.  1.
         12    1    3    3    0    0  0.34787277630E+01  0.85150182297E+01  0.43388403371E+01  0.10170182780E+02  0.00000000000E+00 0. -1.
</event>
<event>
 7    1  0.7578565E-012  0.5930196E+02  0.7816164E-02  0.1266605E+00
        -11   -1    0    0    0    0  0.00000000000E+00  0.00000000000E+00  0.45593999997E+02  0.45594000000E+02  0.51100000000E-03 0. -1.
         11   -1    0    0    0    0 -0.00000000000E+00 -0.00000000000E+00 -0.45593999997E+02  0.45594000000E+02  0.51100000000E-03 0.  1.
    9900012    2    1    2    0    0  0.52825959591E+01 -0.31246129956E+02 -0.35345520101E+01  0.59301960496E+02  0.50000030035E+02 0.  0.
         12    1    1    2    0    0 -0.52825959591E+01  0.31246129956E+02  0.35345520101E+01  0.31886039504E+02  0.00000000000E+00 0. -1.
         11    1    3    3    0    0 -0.13578593140E+01  0.18200801706E+01  0.39273377652E+01  0.45365687394E+01  0.51100000000E-03 0. -1.
        -11    1    3    3    0    0 -0.16301937517E+02 -0.24069712892E+02 -0.78758513490E+01  0.30118653360E+02  0.51100000000E-03 0.  1.
        -12    1    3    3    0    0  0.22942392790E+02 -0.89964972353E+01  0.41396157370E+00  0.24646738397E+02  0.00000000000E+00 0.  1.
</event>
<event>
 7    1  0.7578565E-012  0.5930180E+02  0.7816164E-02  0.1266605E+00
        -11   -1    0    0    0    0  0.00000000000E+00  0.00000000000E+00  0.45593999997E+02  0.45594000000E+02  0.51100000000E-03 0.  1.
         11   -1    0    0    0    0 -0.00000000000E+00 -0.00000000000E+00 -0.45593999997E+02  0.45594000000E+02  0.51100000000E-03 0. -1.
    9900012    2    1    2    0    0  0.14695348319E+02  0.22853836856E+02  0.16687672331E+02  0.59301803471E+02  0.49999743658E+02 0.  0.
         12    1    1    2    0    0 -0.14695348319E+02 -0.22853836856E+02 -0.16687672331E+02  0.31886196529E+02  0.00000000000E+00 0. -1.
         11    1    3    3    0    0  0.86633896683E+01  0.26738837027E+02  0.27577888986E+01  0.28242257806E+02  0.51100000000E-03 0. -1.
        -11    1    3    3    0    0  0.16140445417E+02 -0.42862201368E+01  0.12462007442E+02  0.20837161301E+02  0.51100000000E-03 0.  1.
        -12    1    3    3    0    0 -0.10108486766E+02  0.40121996534E+00  0.14678759896E+01  0.10222384364E+02  0.00000000000E+00 0.  1.
</event>
<event>
 7    1  0.7578565E-012  0.5930192E+02  0.7816164E-02  0.1266605E+00
        -11   -1    0    0    0    0  0.00000000000E+00  0.00000000000E+00  0.45593999997E+02  0.45594000000E+02  0.51100000000E-03 0.  1.
         11   -1    0    0    0    0 -0.00000000000E+00 -0.00000000000E+00 -0.45593999997E+02  0.45594000000E+02  0.51100000000E-03 0. -1.
    9900012    2    1    2    0    0  0.51906902745E+01 -0.68659502026E+01  0.30702407800E+02  0.59301915536E+02  0.49999948038E+02 0.  0.
         12    1    1    2    0    0 -0.51906902745E+01  0.68659502026E+01 -0.30702407800E+02  0.31886084464E+02  0.00000000000E+00 0. -1.
         11    1    3    3    0    0 -0.69450084872E+01  0.13255069402E+02  0.10719567402E+02  0.18407583581E+02  0.51100000000E-03 0. -1.
        -11    1    3    3    0    0 -0.75612186200E+01 -0.11643470247E+02  0.50927751531E+01  0.14787791770E+02  0.51100000000E-03 0.  1.
         12    1    3    3    0    0  0.19696917382E+02 -0.84775493572E+01  0.14890065245E+02  0.26106540185E+02  0.00000000000E+00 0. -1.
</event>
<event>
 7    1  0.7578565E-012  0.5930169E+02  0.7816164E-02  0.1266606E+00
        -11   -1    0    0    0    0  0.00000000000E+00  0.00000000000E+00  0.45593999997E+02  0.45594000000E+02  0.51100000000E-03 0.  1.
         11   -1    0    0    0    0 -0.00000000000E+00 -0.00000000000E+00 -0.45593999997E+02  0.45594000000E+02  0.51100000000E-03 0. -1.
    9900012    2    1    2    0    0 -0.31562321840E+02  0.42544144301E+01 -0.15672642038E+01  0.59301693861E+02  0.49999543755E+02 0.  0.
         12    1    1    2    0    0  0.31562321840E+02 -0.42544144301E+01  0.15672642038E+01  0.31886306139E+02  0.00000000000E+00 0. -1.
         11    1    3    3    0    0 -0.23040899367E+02 -0.11643163717E+02  0.59771893672E+00  0.25822540021E+02  0.51100000000E-03 0. -1.
        -11    1    3    3    0    0 -0.38735573040E+01  0.90455937205E+01 -0.15158266832E+02  0.18072085258E+02  0.51100000000E-03 0.  1.
        -12    1    3    3    0    0 -0.46478651694E+01  0.68519844268E+01  0.12993283692E+02  0.15407068582E+02  0.00000000000E+00 0.  1.
</event>
<event>
 7    1  0.7578565E-012  0.5930196E+02  0.7816164E-02  0.1266605E+00
        -11   -1    0    0    0    0  0.00000000000E+00  0.00000000000E+00  0.45593999997E+02  0.45594000000E+02  0.51100000000E-03 0.  1.
         11   -1    0    0    0    0 -0.00000000000E+00 -0.00000000000E+00 -0.45593999997E+02  0.45594000000E+02  0.51100000000E-03 0. -1.
    9900012    2    1    2    0    0  0.13498847110E+02 -0.10220125176E+02  0.27019427522E+02  0.59301963941E+02  0.50000036317E+02 0.  0.
         12    1    1    2    0    0 -0.13498847110E+02  0.10220125176E+02 -0.27019427522E+02  0.31886036059E+02  0.00000000000E+00 0. -1.
         11    1    3    3    0    0  0.10890847344E+02 -0.64008641475E+01 -0.62727777306E+01  0.14104231933E+02  0.51100000000E-03 0. -1.
        -11    1    3    3    0    0 -0.33995094738E+01 -0.16048832737E+02  0.22339130562E+02  0.27715671585E+02  0.51100000000E-03 0.  1.
         12    1    3    3    0    0  0.60075092401E+01  0.12229571709E+02  0.10953074691E+02  0.17482060423E+02  0.00000000000E+00 0. -1.
</event>
<event>
 7    1  0.7578565E-012  0.5930183E+02  0.7816164E-02  0.1266605E+00
        -11   -1    0    0    0    0  0.00000000000E+00  0.00000000000E+00  0.45593999997E+02  0.45594000000E+02  0.51100000000E-03 0. -1.
         11   -1    0    0    0    0 -0.00000000000E+00 -0.00000000000E+00 -0.45593999997E+02  0.45594000000E+02  0.51100000000E-03 0.  1.
    9900012    2    1    2    0    0 -0.12762100179E+02  0.27644804920E+02 -0.94668635945E+01  0.59301828289E+02  0.49999788921E+02 0.  0.
         12    1    1    2    0    0  0.12762100179E+02 -0.27644804920E+02  0.94668635945E+01  0.31886171711E+02  0.00000000000E+00 0. -1.
         11    1    3    3    0    0  0.38826502391E+01  0.29419647398E+02  0.30470007579E+01  0.29830770017E+02  0.51100000000E-03 0. -1.
        -11    1    3    3    0    0 -0.72517964310E+01 -0.18226078598E+01 -0.17359766402E+02  0.18901638572E+02  0.51100000000E-03 0.  1.
        -12    1    3    3    0    0 -0.93929539867E+01  0.47765381479E-01  0.48459020501E+01  0.10569419701E+02  0.00000000000E+00 0.  1.
</event>
<event>
 7    1  0.7578565E-012  0.5930195E+02  0.7816164E-02  0.1266605E+00
        -11   -1    0    0    0    0  0.00000000000E+00  0.00000000000E+00  0.45593999997E+02  0.45594000000E+02  0.51100000000E-03 0.  1.
         11   -1    0    0    0    0 -0.00000000000E+00 -0.00000000000E+00 -0.45593999997E+02  0.45594000000E+02  0.51100000000E-03 0. -1.
    9900012    2    1    2    0    0  0.15419454247E+02  0.14285914223E+01  0.27873282844E+02  0.59301947575E+02  0.50000006470E+02 0.  0.
         12    1    1    2    0    0 -0.15419454247E+02 -0.14285914223E+01 -0.27873282844E+02  0.31886052425E+02  0.00000000000E+00 0. -1.
         11    1    3    3    0    0 -0.49459335514E+01 -0.20432355069E+01  0.20333546604E+02  0.21025940830E+02  0.51100000000E-03 0. -1.
        -11    1    3    3    0    0  0.61499850468E+01 -0.32349078462E+01 -0.11592183642E+02  0.13515386295E+02  0.51100000000E-03 0.  1.
        -12    1    3    3    0    0  0.14215402751E+02  0.67067347754E+01  0.19131919882E+02  0.24760620451E+02  0.00000000000E+00 0.  1.
</event>
<event>
 7    1  0.7578565E-012  0.5930192E+02  0.7816164E-02  0.1266605E+00
        -11   -1    0    0    0    0  0.00000000000E+00  0.00000000000E+00  0.45593999997E+02  0.45594000000E+02  0.51100000000E-03 0. -1.
         11   -1    0    0    0    0 -0.00000000000E+00 -0.00000000000E+00 -0.45593999997E+02  0.45594000000E+02  0.51100000000E-03 0.  1.
    9900012    2    1    2    0    0 -0.29343094215E+02  0.51240988915E+01 -0.11377539886E+02  0.59301921824E+02  0.49999959506E+02 0.  0.
         12    1    1    2    0    0  0.29343094215E+02 -0.51240988915E+01  0.11377539886E+02  0.31886078176E+02  0.00000000000E+00 0. -1.
         11    1    3    3    0    0 -0.48142929929E+01  0.24474743433E+02 -0.56684989192E+01  0.25579725632E+02  0.51100000000E-03 0. -1.
        -11    1    3    3    0    0 -0.22755921330E+02 -0.16004612356E+02 -0.84181327257E+01  0.29066209438E+02  0.51100000000E-03 0.  1.
        -12    1    3    3    0    0 -0.17728798922E+01 -0.33460321855E+01  0.27090917591E+01  0.46559867545E+01  0.00000000000E+00 0.  1.
</event>
<event>
 7    1  0.7578565E-012  0.5930197E+02  0.7816164E-02  0.1266605E+00
        -11   -1    0    0    0    0  0.00000000000E+00  0.00000000000E+00  0.45593999997E+02  0.45594000000E+02  0.51100000000E-03 0. -1.
         11   -1    0    0    0    0 -0.00000000000E+00 -0.00000000000E+00 -0.45593999997E+02  0.45594000000E+02  0.51100000000E-03 0.  1.
    9900012    2    1    2    0    0  0.26625039316E+01  0.21231024637E+02 -0.23640502834E+02  0.59301973145E+02  0.50000053103E+02 0.  0.
         12    1    1    2    0    0 -0.26625039316E+01 -0.21231024637E+02  0.23640502834E+02  0.31886026855E+02  0.00000000000E+00 0. -1.
         11    1    3    3    0    0 -0.60401006956E+01 -0.48851807516E+01 -0.49296371722E+01  0.92004961985E+01  0.51100000000E-03 0. -1.
        -11    1    3    3    0    0  0.20408168630E+02  0.14428000057E+02  0.17720372195E+00  0.24993837919E+02  0.51100000000E-03 0.  1.
        -12    1    3    3    0    0 -0.11705564003E+02  0.11688205332E+02 -0.18888069384E+02  0.25107639028E+02  0.00000000000E+00 0.  1.
</event>
<event>
 7    1  0.7578565E-012  0.5930188E+02  0.7816164E-02  0.1266605E+00
        -11   -1    0    0    0    0  0.00000000000E+00  0.00000000000E+00  0.45593999997E+02  0.45594000000E+02  0.51100000000E-03 0. -1.
         11   -1    0    0    0    0 -0.00000000000E+00 -0.00000000000E+00 -0.45593999997E+02  0.45594000000E+02  0.51100000000E-03 0.  1.
    9900012    2    1    2    0    0 -0.11411508907E+02 -0.10350781022E+02 -0.27917076021E+02  0.59301884889E+02  0.49999892145E+02 0.  0.
         12    1    1    2    0    0  0.11411508907E+02  0.10350781022E+02  0.27917076021E+02  0.31886115111E+02  0.00000000000E+00 0. -1.
         11    1    3    3    0    0  0.10425512598E+02 -0.89429596576E+01 -0.17964012136E+01  0.13852613398E+02  0.51100000000E-03 0. -1.
        -11    1    3    3    0    0 -0.16769989980E+02 -0.12987186014E+02 -0.24962146776E+02  0.32756805955E+02  0.51100000000E-03 0.  1.
        -12    1    3    3    0    0 -0.50670315259E+01  0.11579364650E+02 -0.11585280315E+01  0.12692465536E+02  0.00000000000E+00 0.  1.
</event>
<event>
 7    1  0.7578565E-012  0.5930195E+02  0.7816164E-02  0.1266605E+00
        -11   -1    0    0    0    0  0.00000000000E+00  0.00000000000E+00  0.45593999997E+02  0.45594000000E+02  0.51100000000E-03 0.  1.
         11   -1    0    0    0    0 -0.00000000000E+00 -0.00000000000E+00 -0.45593999997E+02  0.45594000000E+02  0.51100000000E-03 0. -1.
    9900012    2    1    2    0    0  0.11137853152E+02  0.16501185769E+02  0.24907420304E+02  0.59301945199E+02  0.50000002136E+02 0.  0.
         12    1    1    2    0    0 -0.11137853152E+02 -0.16501185769E+02 -0.24907420304E+02  0.31886054801E+02  0.00000000000E+00 0. -1.
         11    1    3    3    0    0 -0.75700788497E+01  0.36776313706E+01 -0.12374269698E+01  0.85066028505E+01  0.51100000000E-03 0. -1.
        -11    1    3    3    0    0  0.18934425459E+02  0.13034118239E+02  0.35033325002E+02  0.41901486450E+02  0.51100000000E-03 0.  1.
        -12    1    3    3    0    0 -0.22649345717E+00 -0.21056384143E+00 -0.88884777286E+01  0.88938558988E+01  0.00000000000E+00 0.  1.
</event>
<event>
 7    1  0.7578565E-012  0.5930194E+02  0.7816164E-02  0.1266605E+00
        -11   -1    0    0    0    0  0.00000000000E+00  0.00000000000E+00  0.45593999997E+02  0.45594000000E+02  0.51100000000E-03 0.  1.
         11   -1    0    0    0    0 -0.00000000000E+00 -0.00000000000E+00 -0.45593999997E+02  0.45594000000E+02  0.51100000000E-03 0. -1.
    9900012    2    1    2    0    0  0.31441767889E+02 -0.33437463163E+01 -0.41177128234E+01  0.59301937742E+02  0.49999988537E+02 0.  0.
         12    1    1    2    0    0 -0.31441767889E+02  0.33437463163E+01  0.41177128234E+01  0.31886062258E+02  0.00000000000E+00 0. -1.
         11    1    3    3    0    0  0.84574135331E+01  0.14311138956E+02  0.12572247583E+01  0.16670847496E+02  0.51100000000E-03 0. -1.
        -11    1    3    3    0    0  0.28008506187E+02 -0.11817815580E+02  0.38179979376E+01  0.30638444680E+02  0.51100000000E-03 0.  1.
        -12    1    3    3    0    0 -0.50241518311E+01 -0.58370696923E+01 -0.91929355193E+01  0.11992645566E+02  0.00000000000E+00 0.  1.
</event>
<event>
 7    1  0.7578565E-012  0.5930196E+02  0.7816164E-02  0.1266605E+00
        -11   -1    0    0    0    0  0.00000000000E+00  0.00000000000E+00  0.45593999997E+02  0.45594000000E+02  0.51100000000E-03 0. -1.
         11   -1    0    0    0    0 -0.00000000000E+00 -0.00000000000E+00 -0.45593999997E+02  0.45594000000E+02  0.51100000000E-03 0.  1.
    9900012    2    1    2    0    0  0.18998860356E+02 -0.67753802153E+01 -0.24695289397E+02  0.59301956183E+02  0.50000022169E+02 0.  0.
         12    1    1    2    0    0 -0.18998860356E+02  0.67753802153E+01  0.24695289397E+02  0.31886043817E+02  0.00000000000E+00 0. -1.
         11    1    3    3    0    0  0.33318881706E+01 -0.12086042754E+02 -0.27624698370E+02  0.30336411597E+02  0.51100000000E-03 0. -1.
        -11    1    3    3    0    0  0.35982197148E+01 -0.88830954733E+01  0.38098608743E+01  0.10313661350E+02  0.51100000000E-03 0.  1.
         12    1    3    3    0    0  0.12068752471E+02  0.14193758012E+02 -0.88045190046E+00  0.18651883236E+02  0.00000000000E+00 0. -1.
</event>
<event>
 7    1  0.7578565E-012  0.5930193E+02  0.7816164E-02  0.1266605E+00
        -11   -1    0    0    0    0  0.00000000000E+00  0.00000000000E+00  0.45593999997E+02  0.45594000000E+02  0.51100000000E-03 0. -1.
         11   -1    0    0    0    0 -0.00000000000E+00 -0.00000000000E+00 -0.45593999997E+02  0.45594000000E+02  0.51100000000E-03 0.  1.
    9900012    2    1    2    0    0 -0.18859654203E+02  0.23728829479E+02 -0.98983502176E+01  0.59301933417E+02  0.49999980649E+02 0.  0.
         12    1    1    2    0    0  0.18859654203E+02 -0.23728829479E+02  0.98983502176E+01  0.31886066583E+02  0.00000000000E+00 0. -1.
         11    1    3    3    0    0 -0.43611035299E+01 -0.60720534722E+01 -0.18400276524E+02  0.19860997804E+02  0.51100000000E-03 0.  1.
        -11    1    3    3    0    0 -0.18343348160E+02  0.22364765956E+02  0.22880329925E+01  0.29015448872E+02  0.51100000000E-03 0. -1.
        -12    1    3    3    0    0  0.38447974873E+01  0.74361169950E+01  0.62138933138E+01  0.10425486741E+02  0.00000000000E+00 0.  1.
</event>
<event>
 7    1  0.7578565E-012  0.5930193E+02  0.7816164E-02  0.1266605E+00
        -11   -1    0    0    0    0  0.00000000000E+00  0.00000000000E+00  0.45593999997E+02  0.45594000000E+02  0.51100000000E-03 0. -1.
         11   -1    0    0    0    0 -0.00000000000E+00 -0.00000000000E+00 -0.45593999997E+02  0.45594000000E+02  0.51100000000E-03 0.  1.
    9900012    2    1    2    0    0  0.40941209862E+01 -0.26995411150E+02 -0.16468379725E+02  0.59301928110E+02  0.49999970970E+02 0.  0.
         12    1    1    2    0    0 -0.40941209862E+01  0.26995411150E+02  0.16468379725E+02  0.31886071890E+02  0.00000000000E+00 0. -1.
         11    1    3    3    0    0  0.22742594847E+01  0.11892808822E+02 -0.39106172275E+01  0.12724153616E+02  0.51100000000E-03 0. -1.
        -11    1    3    3    0    0  0.60889672577E+01 -0.38735380331E+02 -0.74386289038E+01  0.39910379751E+02  0.51100000000E-03 0.  1.
        -12    1    3    3    0    0 -0.42691057563E+01 -0.15283964115E+00 -0.51191335935E+01  0.66673947432E+01  0.00000000000E+00 0.  1.
</event>
<event>
 7    1  0.7578565E-012  0.5930195E+02  0.7816164E-02  0.1266605E+00
        -11   -1    0    0    0    0  0.00000000000E+00  0.00000000000E+00  0.45593999997E+02  0.45594000000E+02  0.51100000000E-03 0. -1.
         11   -1    0    0    0    0 -0.00000000000E+00 -0.00000000000E+00 -0.45593999997E+02  0.45594000000E+02  0.51100000000E-03 0.  1.
    9900012    2    1    2    0    0 -0.25109289508E+02 -0.12307788078E+02 -0.15321945057E+02  0.59301951839E+02  0.50000014246E+02 0.  0.
         12    1    1    2    0    0  0.25109289508E+02  0.12307788078E+02  0.15321945057E+02  0.31886048161E+02  0.00000000000E+00 0. -1.
         11    1    3    3    0    0 -0.19757488197E+02  0.79083996045E+01  0.97618732531E+01  0.23413570719E+02  0.51100000000E-03 0. -1.
        -11    1    3    3    0    0 -0.96498877568E+01 -0.74416109698E+01 -0.11663217914E+02  0.16867974387E+02  0.51100000000E-03 0.  1.
         12    1    3    3    0    0  0.42980864454E+01 -0.12774576713E+02 -0.13420600396E+02  0.19020406733E+02  0.00000000000E+00 0. -1.
</event>
<event>
 7    1  0.7578565E-012  0.5930207E+02  0.7816164E-02  0.1266604E+00
        -11   -1    0    0    0    0  0.00000000000E+00  0.00000000000E+00  0.45593999997E+02  0.45594000000E+02  0.51100000000E-03 0. -1.
         11   -1    0    0    0    0 -0.00000000000E+00 -0.00000000000E+00 -0.45593999997E+02  0.45594000000E+02  0.51100000000E-03 0.  1.
    9900012    2    1    2    0    0  0.30236948461E+02 -0.91219438891E+01 -0.43851864930E+01  0.59302066218E+02  0.50000222845E+02 0.  0.
         12    1    1    2    0    0 -0.30236948461E+02  0.91219438891E+01  0.43851864930E+01  0.31885933782E+02  0.00000000000E+00 0. -1.
         11    1    3    3    0    0  0.15158776542E+02 -0.57315709910E+00  0.10862261795E+02  0.18657592205E+02  0.51100000000E-03 0. -1.
        -11    1    3    3    0    0 -0.43012871783E+01 -0.50751843739E+01 -0.19412171776E+02  0.20520501483E+02  0.51100000000E-03 0.  1.
        -12    1    3    3    0    0  0.19379459097E+02 -0.34736024161E+01  0.41647234882E+01  0.20123972530E+02  0.00000000000E+00 0.  1.
</event>
<event>
 7    1  0.7578565E-012  0.5930196E+02  0.7816164E-02  0.1266605E+00
        -11   -1    0    0    0    0  0.00000000000E+00  0.00000000000E+00  0.45593999997E+02  0.45594000000E+02  0.51100000000E-03 0. -1.
         11   -1    0    0    0    0 -0.00000000000E+00 -0.00000000000E+00 -0.45593999997E+02  0.45594000000E+02  0.51100000000E-03 0.  1.
    9900012    2    1    2    0    0  0.11966531275E+02 -0.26492465704E+02 -0.13102318229E+02  0.59301963043E+02  0.50000034680E+02 0.  0.
         12    1    1    2    0    0 -0.11966531275E+02  0.26492465704E+02  0.13102318229E+02  0.31886036957E+02  0.00000000000E+00 0. -1.
         11    1    3    3    0    0 -0.11624334642E+02 -0.14904383223E+02 -0.17571396395E+01  0.18982974875E+02  0.51100000000E-03 0. -1.
        -11    1    3    3    0    0  0.17279228973E+02  0.20038497006E+01 -0.16980126131E+02  0.24308678517E+02  0.51100000000E-03 0.  1.
         12    1    3    3    0    0  0.63116369431E+01 -0.13591932182E+02  0.56349475419E+01  0.16010309652E+02  0.00000000000E+00 0. -1.
</event>
<event>
 7    1  0.7578565E-012  0.5930201E+02  0.7816164E-02  0.1266605E+00
        -11   -1    0    0    0    0  0.00000000000E+00  0.00000000000E+00  0.45593999997E+02  0.45594000000E+02  0.51100000000E-03 0.  1.
         11   -1    0    0    0    0 -0.00000000000E+00 -0.00000000000E+00 -0.45593999997E+02  0.45594000000E+02  0.51100000000E-03 0. -1.
    9900012    2    1    2    0    0 -0.29423684528E+02 -0.11583356723E+02  0.40974259510E+01  0.59302011485E+02  0.50000123025E+02 0.  0.
         12    1    1    2    0    0  0.29423684528E+02  0.11583356723E+02 -0.40974259510E+01  0.31885988515E+02  0.00000000000E+00 0. -1.
         11    1    3    3    0    0  0.84941304475E+01  0.32277597049E+01  0.26539565164E+01  0.94663704884E+01  0.51100000000E-03 0. -1.
        -11    1    3    3    0    0 -0.20644870489E+02 -0.53447171869E+01 -0.13387599876E+02  0.25179446182E+02  0.51100000000E-03 0.  1.
        -12    1    3    3    0    0 -0.17272944487E+02 -0.94663992413E+01  0.14831069311E+02  0.24656194815E+02  0.00000000000E+00 0.  1.
</event>
<event>
 7    1  0.7578565E-012  0.5930204E+02  0.7816164E-02  0.1266604E+00
        -11   -1    0    0    0    0  0.00000000000E+00  0.00000000000E+00  0.45593999997E+02  0.45594000000E+02  0.51100000000E-03 0.  1.
         11   -1    0    0    0    0 -0.00000000000E+00 -0.00000000000E+00 -0.45593999997E+02  0.45594000000E+02  0.51100000000E-03 0. -1.
    9900012    2    1    2    0    0 -0.26785961886E+02  0.29644006511E+01  0.17042275895E+02  0.59302037680E+02  0.50000170799E+02 0.  0.
         12    1    1    2    0    0  0.26785961886E+02 -0.29644006511E+01 -0.17042275895E+02  0.31885962320E+02  0.00000000000E+00 0. -1.
         11    1    3    3    0    0 -0.94194156133E+01  0.14937828820E+02  0.26727144815E+02  0.32034425085E+02  0.51100000000E-03 0. -1.
        -11    1    3    3    0    0 -0.11757252891E+02 -0.53576374524E+01  0.16168021424E+01  0.13021187505E+02  0.51100000000E-03 0.  1.
         12    1    3    3    0    0 -0.56092933811E+01 -0.66157907164E+01 -0.11301671062E+02  0.14246425089E+02  0.00000000000E+00 0. -1.
</event>
<event>
 7    1  0.7578565E-012  0.5930170E+02  0.7816164E-02  0.1266606E+00
        -11   -1    0    0    0    0  0.00000000000E+00  0.00000000000E+00  0.45593999997E+02  0.45594000000E+02  0.51100000000E-03 0. -1.
         11   -1    0    0    0    0 -0.00000000000E+00 -0.00000000000E+00 -0.45593999997E+02  0.45594000000E+02  0.51100000000E-03 0.  1.
    9900012    2    1    2    0    0  0.27825244151E+02 -0.38738656981E+00 -0.15567338283E+02  0.59301697272E+02  0.49999549976E+02 0.  0.
         12    1    1    2    0    0 -0.27825244151E+02  0.38738656981E+00  0.15567338283E+02  0.31886302728E+02  0.00000000000E+00 0. -1.
         11    1    3    3    0    0  0.47254948847E+01 -0.67549424619E+01 -0.16157948022E+01  0.84006156128E+01  0.51100000000E-03 0. -1.
        -11    1    3    3    0    0  0.27323352709E+02  0.82258484662E+01  0.70548196267E+01  0.29393888250E+02  0.51100000000E-03 0.  1.
        -12    1    3    3    0    0 -0.42236034429E+01 -0.18582925741E+01 -0.21006363108E+02  0.21507193409E+02  0.00000000000E+00 0.  1.
</event>
<event>
 7    1  0.7578565E-012  0.5930180E+02  0.7816164E-02  0.1266605E+00
        -11   -1    0    0    0    0  0.00000000000E+00  0.00000000000E+00  0.45593999997E+02  0.45594000000E+02  0.51100000000E-03 0.  1.
         11   -1    0    0    0    0 -0.00000000000E+00 -0.00000000000E+00 -0.45593999997E+02  0.45594000000E+02  0.51100000000E-03 0. -1.
    9900012    2    1    2    0    0  0.14469761103E+02  0.30711159773E+01  0.28247546642E+02  0.59301801873E+02  0.49999740743E+02 0.  0.
         12    1    1    2    0    0 -0.14469761103E+02 -0.30711159773E+01 -0.28247546642E+02  0.31886198127E+02  0.00000000000E+00 0. -1.
         11    1    3    3    0    0  0.29455877854E-01  0.10373567783E+02 -0.11213222767E+02  0.15275737012E+02  0.51100000000E-03 0. -1.
        -11    1    3    3    0    0 -0.71526989270E-01 -0.27963343944E+01  0.14782055870E+02  0.15044393579E+02  0.51100000000E-03 0.  1.
         12    1    3    3    0    0  0.14511832215E+02 -0.45061174113E+01  0.24678713538E+02  0.28981671281E+02  0.00000000000E+00 0. -1.
</event>
<event>
 7    1  0.7578565E-012  0.5930194E+02  0.7816164E-02  0.1266605E+00
        -11   -1    0    0    0    0  0.00000000000E+00  0.00000000000E+00  0.45593999997E+02  0.45594000000E+02  0.51100000000E-03 0.  1.
         11   -1    0    0    0    0 -0.00000000000E+00 -0.00000000000E+00 -0.45593999997E+02  0.45594000000E+02  0.51100000000E-03 0. -1.
    9900012    2    1    2    0    0  0.84670502886E+01 -0.36137796681E+01  0.30528195081E+02  0.59301936603E+02  0.49999986459E+02 0.  0.
         12    1    1    2    0    0 -0.84670502886E+01  0.36137796681E+01 -0.30528195081E+02  0.31886063397E+02  0.00000000000E+00 0. -1.
         11    1    3    3    0    0 -0.71557990016E+01  0.12819309219E+02  0.69115270915E+01  0.16226809766E+02  0.51100000000E-03 0. -1.
        -11    1    3    3    0    0  0.10698353071E+02 -0.19799193537E+02  0.27816322562E+02  0.35780031083E+02  0.51100000000E-03 0.  1.
         12    1    3    3    0    0  0.49244962188E+01  0.33661046508E+01 -0.41996545727E+01  0.72950957539E+01  0.00000000000E+00 0. -1.
</event>
<event>
 7    1  0.7578565E-012  0.5930193E+02  0.7816164E-02  0.1266605E+00
        -11   -1    0    0    0    0  0.00000000000E+00  0.00000000000E+00  0.45593999997E+02  0.45594000000E+02  0.51100000000E-03 0.  1.
         11   -1    0    0    0    0 -0.00000000000E+00 -0.00000000000E+00 -0.45593999997E+02  0.45594000000E+02  0.51100000000E-03 0. -1.
    9900012    2    1    2    0    0 -0.14899836183E+02  0.27039164212E+02  0.79749451041E+01  0.59301932996E+02  0.49999979880E+02 0.  0.
         12    1    1    2    0    0  0.14899836183E+02 -0.27039164212E+02 -0.79749451041E+01  0.31886067004E+02  0.00000000000E+00 0. -1.
         11    1    3    3    0    0 -0.14763634672E+02  0.76606234305E+01 -0.11173208661E+02  0.20037231648E+02  0.51100000000E-03 0. -1.
        -11    1    3    3    0    0 -0.18524601671E+01  0.87797898686E+01  0.25332103524E+02  0.26874370468E+02  0.51100000000E-03 0.  1.
        -12    1    3    3    0    0  0.17162586557E+01  0.10598750913E+02 -0.61839497596E+01  0.12390330880E+02  0.00000000000E+00 0.  1.
</event>
<event>
 7    1  0.7578565E-012  0.5930195E+02  0.7816164E-02  0.1266605E+00
        -11   -1    0    0    0    0  0.00000000000E+00  0.00000000000E+00  0.45593999997E+02  0.45594000000E+02  0.51100000000E-03 0.  1.
         11   -1    0    0    0    0 -0.00000000000E+00 -0.00000000000E+00 -0.45593999997E+02  0.45594000000E+02  0.51100000000E-03 0. -1.
    9900012    2    1    2    0    0 -0.12081034001E+02  0.25508516915E+02  0.14835235995E+02  0.59301952193E+02  0.50000014892E+02 0.  0.
         12    1    1    2    0    0  0.12081034001E+02 -0.25508516915E+02 -0.14835235995E+02  0.31886047807E+02  0.00000000000E+00 0. -1.
         11    1    3    3    0    0 -0.10605244856E+02 -0.10815398126E+01  0.13942521052E+02  0.17550921354E+02  0.51100000000E-03 0. -1.
        -11    1    3    3    0    0  0.12575945653E+02  0.85864278705E+01 -0.80499093820E+01  0.17224464983E+02  0.51100000000E-03 0.  1.
        -12    1    3    3    0    0 -0.14051734799E+02  0.18003628857E+02  0.89426243248E+01  0.24526565856E+02  0.00000000000E+00 0.  1.
</event>
<event>
 7    1  0.7578565E-012  0.5930202E+02  0.7816164E-02  0.1266605E+00
        -11   -1    0    0    0    0  0.00000000000E+00  0.00000000000E+00  0.45593999997E+02  0.45594000000E+02  0.51100000000E-03 0.  1.
         11   -1    0    0    0    0 -0.00000000000E+00 -0.00000000000E+00 -0.45593999997E+02  0.45594000000E+02  0.51100000000E-03 0. -1.
    9900012    2    1    2    0    0 -0.63096459175E+01  0.20018140091E+02  0.24003715772E+02  0.59302016635E+02  0.50000132418E+02 0.  0.
         12    1    1    2    0    0  0.63096459175E+01 -0.20018140091E+02 -0.24003715772E+02  0.31885983365E+02  0.00000000000E+00 0. -1.
         11    1    3    3    0    0 -0.80891499010E+01  0.28691947549E+01 -0.11033673739E+02  0.13978861939E+02  0.51100000000E-03 0. -1.
        -11    1    3    3    0    0 -0.80434089001E+01  0.58861166870E+01  0.26032344368E+02  0.27875181613E+02  0.51100000000E-03 0.  1.
         12    1    3    3    0    0  0.98229128836E+01  0.11262828649E+02  0.90050451425E+01  0.17447973083E+02  0.00000000000E+00 0. -1.
</event>
<event>
 7    1  0.7578565E-012  0.5930195E+02  0.7816164E-02  0.1266605E+00
        -11   -1    0    0    0    0  0.00000000000E+00  0.00000000000E+00  0.45593999997E+02  0.45594000000E+02  0.51100000000E-03 0.  1.
         11   -1    0    0    0    0 -0.00000000000E+00 -0.00000000000E+00 -0.45593999997E+02  0.45594000000E+02  0.51100000000E-03 0. -1.
    9900012    2    1    2    0    0  0.28613268786E+02  0.66127869448E+01  0.12420624215E+02  0.59301952774E+02  0.50000015951E+02 0.  0.
         12    1    1    2    0    0 -0.28613268786E+02 -0.66127869448E+01 -0.12420624215E+02  0.31886047226E+02  0.00000000000E+00 0. -1.
         11    1    3    3    0    0  0.90479446071E+01 -0.13705641196E+02 -0.54592626768E+00  0.16431918268E+02  0.51100000000E-03 0. -1.
        -11    1    3    3    0    0  0.13759537605E+02  0.16974942681E+02 -0.60785509888E+01  0.22680880417E+02  0.51100000000E-03 0.  1.
        -12    1    3    3    0    0  0.58057865740E+01  0.33434854595E+01  0.19045101472E+02  0.20189154089E+02  0.00000000000E+00 0.  1.
</event>
<event>
 7    1  0.7578565E-012  0.5930195E+02  0.7816164E-02  0.1266605E+00
        -11   -1    0    0    0    0  0.00000000000E+00  0.00000000000E+00  0.45593999997E+02  0.45594000000E+02  0.51100000000E-03 0. -1.
         11   -1    0    0    0    0 -0.00000000000E+00 -0.00000000000E+00 -0.45593999997E+02  0.45594000000E+02  0.51100000000E-03 0.  1.
    9900012    2    1    2    0    0 -0.38153255585E+01 -0.28819371247E+02 -0.13099899442E+02  0.59301949232E+02  0.50000009492E+02 0.  0.
         12    1    1    2    0    0  0.38153255585E+01  0.28819371247E+02  0.13099899442E+02  0.31886050768E+02  0.00000000000E+00 0. -1.
         11    1    3    3    0    0  0.15141771760E+02 -0.52103848889E+01 -0.41172428942E+00  0.16018454354E+02  0.51100000000E-03 0. -1.
        -11    1    3    3    0    0 -0.12951319551E+02 -0.28209811095E+02 -0.32841928653E+01  0.31214035996E+02  0.51100000000E-03 0.  1.
        -12    1    3    3    0    0 -0.60057777676E+01  0.46008247373E+01 -0.94039822869E+01  0.12069458882E+02  0.00000000000E+00 0.  1.
</event>
<event>
 7    1  0.7578565E-012  0.5930192E+02  0.7816164E-02  0.1266605E+00
        -11   -1    0    0    0    0  0.00000000000E+00  0.00000000000E+00  0.45593999997E+02  0.45594000000E+02  0.51100000000E-03 0.  1.
         11   -1    0    0    0    0 -0.00000000000E+00 -0.00000000000E+00 -0.45593999997E+02  0.45594000000E+02  0.51100000000E-03 0. -1.
    9900012    2    1    2    0    0  0.21013229879E+02  0.28308448048E+01  0.23814964062E+02  0.59301921133E+02  0.49999958245E+02 0.  0.
         12    1    1    2    0    0 -0.21013229879E+02 -0.28308448048E+01 -0.23814964062E+02  0.31886078867E+02  0.00000000000E+00 0. -1.
         11    1    3    3    0    0  0.12643119781E+02  0.21475338539E+02  0.12693326644E+02  0.27967108981E+02  0.51100000000E-03 0. -1.
        -11    1    3    3    0    0  0.64311658891E+01 -0.12799379224E+02 -0.41125928426E+01  0.14902933381E+02  0.51100000000E-03 0.  1.
        -12    1    3    3    0    0  0.19389442084E+01 -0.58451145104E+01  0.15234230261E+02  0.16431878771E+02  0.00000000000E+00 0.  1.
</event>
<event>
 7    1  0.7578565E-012  0.5930192E+02  0.7816164E-02  0.1266605E+00
        -11   -1    0    0    0    0  0.00000000000E+00  0.00000000000E+00  0.45593999997E+02  0.45594000000E+02  0.51100000000E-03 0.  1.
         11   -1    0    0    0    0 -0.00000000000E+00 -0.00000000000E+00 -0.45593999997E+02  0.45594000000E+02  0.51100000000E-03 0. -1.
    9900012    2    1    2    0    0  0.15882454250E+02  0.16573642060E+02  0.22131061080E+02  0.59301924219E+02  0.49999963874E+02 0.  0.
         12    1    1    2    0    0 -0.15882454250E+02 -0.16573642060E+02 -0.22131061080E+02  0.31886075781E+02  0.00000000000E+00 0. -1.
         11    1    3    3    0    0  0.39054641111E+01 -0.34090182180E+01  0.24770081007E+02  0.25306737611E+02  0.51100000000E-03 0.  1.
        -11    1    3    3    0    0 -0.27109142718E+01  0.77807389014E+01 -0.10498683348E+02  0.13345834794E+02  0.51100000000E-03 0. -1.
        -12    1    3    3    0    0  0.14687904411E+02  0.12201921377E+02  0.78596634217E+01  0.20649351815E+02  0.00000000000E+00 0.  1.
</event>
<event>
 7    1  0.7578565E-012  0.5930165E+02  0.7816164E-02  0.1266606E+00
        -11   -1    0    0    0    0  0.00000000000E+00  0.00000000000E+00  0.45593999997E+02  0.45594000000E+02  0.51100000000E-03 0. -1.
         11   -1    0    0    0    0 -0.00000000000E+00 -0.00000000000E+00 -0.45593999997E+02  0.45594000000E+02  0.51100000000E-03 0.  1.
    9900012    2    1    2    0    0  0.23518870249E+02 -0.18762412424E+02  0.10562867400E+02  0.59301646407E+02  0.49999457208E+02 0.  0.
         12    1    1    2    0    0 -0.23518870249E+02  0.18762412424E+02 -0.10562867400E+02  0.31886353593E+02  0.00000000000E+00 0. -1.
         11    1    3    3    0    0 -0.26192904467E-01  0.30801207926E+01  0.11346179348E+02  0.11756854011E+02  0.51100000000E-03 0. -1.
        -11    1    3    3    0    0  0.15757486226E+02 -0.21020359724E+02 -0.15766376213E+02  0.30638742047E+02  0.51100000000E-03 0.  1.
        -12    1    3    3    0    0  0.77875769276E+01 -0.82217349285E+00  0.14983064264E+02  0.16906050349E+02  0.00000000000E+00 0.  1.
</event>
<event>
 7    1  0.7578565E-012  0.5930192E+02  0.7816164E-02  0.1266605E+00
        -11   -1    0    0    0    0  0.00000000000E+00  0.00000000000E+00  0.45593999997E+02  0.45594000000E+02  0.51100000000E-03 0.  1.
         11   -1    0    0    0    0 -0.00000000000E+00 -0.00000000000E+00 -0.45593999997E+02  0.45594000000E+02  0.51100000000E-03 0. -1.
    9900012    2    1    2    0    0  0.25400670154E+02 -0.19058017108E+02 -0.28844195409E+01  0.59301922530E+02  0.49999960793E+02 0.  0.
         12    1    1    2    0    0 -0.25400670154E+02  0.19058017108E+02  0.28844195409E+01  0.31886077470E+02  0.00000000000E+00 0. -1.
         11    1    3    3    0    0  0.13542449847E+02 -0.94211863153E+00 -0.16656380922E+02  0.21487683939E+02  0.51100000000E-03 0. -1.
        -11    1    3    3    0    0  0.19002514061E+02 -0.19009573183E+02  0.14564177860E+02  0.30570814354E+02  0.51100000000E-03 0.  1.
        -12    1    3    3    0    0 -0.71442937546E+01  0.89367470629E+00 -0.79221647889E+00  0.72434242374E+01  0.00000000000E+00 0.  1.
</event>
<event>
 7    1  0.7578565E-012  0.5930195E+02  0.7816164E-02  0.1266605E+00
        -11   -1    0    0    0    0  0.00000000000E+00  0.00000000000E+00  0.45593999997E+02  0.45594000000E+02  0.51100000000E-03 0.  1.
         11   -1    0    0    0    0 -0.00000000000E+00 -0.00000000000E+00 -0.45593999997E+02  0.45594000000E+02  0.51100000000E-03 0. -1.
    9900012    2    1    2    0    0 -0.17025176936E+02  0.55477944170E+01  0.26383436363E+02  0.59301946827E+02  0.50000005106E+02 0.  0.
         12    1    1    2    0    0  0.17025176936E+02 -0.55477944170E+01 -0.26383436363E+02  0.31886053173E+02  0.00000000000E+00 0. -1.
         11    1    3    3    0    0 -0.16112957199E+02  0.15263608115E+02  0.13442966617E+02  0.25948380954E+02  0.51100000000E-03 0. -1.
        -11    1    3    3    0    0  0.97028061161E+01  0.61300749573E+01  0.30823301564E+01  0.11883729421E+02  0.51100000000E-03 0.  1.
        -12    1    3    3    0    0 -0.10615025852E+02 -0.15845888655E+02  0.98581395895E+01  0.21469836452E+02  0.00000000000E+00 0.  1.
</event>
<event>
 7    1  0.7578565E-012  0.5930195E+02  0.7816164E-02  0.1266605E+00
        -11   -1    0    0    0    0  0.00000000000E+00  0.00000000000E+00  0.45593999997E+02  0.45594000000E+02  0.51100000000E-03 0.  1.
         11   -1    0    0    0    0 -0.00000000000E+00 -0.00000000000E+00 -0.45593999997E+02  0.45594000000E+02  0.51100000000E-03 0. -1.
    9900012    2    1    2    0    0 -0.18611318540E+02  0.12862576472E+02  0.22469829218E+02  0.59301948561E+02  0.50000008267E+02 0.  0.
         12    1    1    2    0    0  0.18611318540E+02 -0.12862576472E+02 -0.22469829218E+02  0.31886051439E+02  0.00000000000E+00 0. -1.
         11    1    3    3    0    0 -0.25599758822E+02 -0.11232364548E+02  0.11391127861E+02  0.30187273134E+02  0.51100000000E-03 0. -1.
        -11    1    3    3    0    0  0.41382705045E+01  0.19142011720E+01  0.20033059859E+01  0.49802293150E+01  0.51100000000E-03 0.  1.
         12    1    3    3    0    0  0.28501697774E+01  0.22180739848E+02  0.90753953707E+01  0.24134446111E+02  0.00000000000E+00 0. -1.
</event>
<event>
 7    1  0.7578565E-012  0.5930194E+02  0.7816164E-02  0.1266605E+00
        -11   -1    0    0    0    0  0.00000000000E+00  0.00000000000E+00  0.45593999997E+02  0.45594000000E+02  0.51100000000E-03 0.  1.
         11   -1    0    0    0    0 -0.00000000000E+00 -0.00000000000E+00 -0.45593999997E+02  0.45594000000E+02  0.51100000000E-03 0. -1.
    9900012    2    1    2    0    0  0.28610136627E+02  0.13758523003E+02  0.29805851231E+01  0.59301940966E+02  0.49999994416E+02 0.  0.
         12    1    1    2    0    0 -0.28610136627E+02 -0.13758523003E+02 -0.29805851231E+01  0.31886059034E+02  0.00000000000E+00 0. -1.
         11    1    3    3    0    0 -0.45367007911E+01 -0.38825045633E+01  0.11803857737E+02  0.13228248315E+02  0.51100000000E-03 0. -1.
        -11    1    3    3    0    0  0.26378727157E+02  0.21371446266E+01  0.10509048353E+01  0.26486015835E+02  0.51100000000E-03 0.  1.
         12    1    3    3    0    0  0.67681102615E+01  0.15503882940E+02 -0.98741774494E+01  0.19587676815E+02  0.00000000000E+00 0. -1.
</event>
<event>
 7    1  0.7578565E-012  0.5930195E+02  0.7816164E-02  0.1266605E+00
        -11   -1    0    0    0    0  0.00000000000E+00  0.00000000000E+00  0.45593999997E+02  0.45594000000E+02  0.51100000000E-03 0. -1.
         11   -1    0    0    0    0 -0.00000000000E+00 -0.00000000000E+00 -0.45593999997E+02  0.45594000000E+02  0.51100000000E-03 0.  1.
    9900012    2    1    2    0    0  0.44988824704E+01 -0.81541469513E+01 -0.30495734711E+02  0.59301954595E+02  0.50000019273E+02 0.  0.
         12    1    1    2    0    0 -0.44988824704E+01  0.81541469513E+01  0.30495734711E+02  0.31886045405E+02  0.00000000000E+00 0. -1.
         11    1    3    3    0    0  0.18851568869E+02 -0.12541308657E+02 -0.66923517919E+00  0.22652018622E+02  0.51100000000E-03 0. -1.
        -11    1    3    3    0    0  0.11917534590E+01  0.31050508494E+01 -0.14151462476E+02  0.14537039161E+02  0.51100000000E-03 0.  1.
         12    1    3    3    0    0 -0.15544439858E+02  0.12821108567E+01 -0.15675037056E+02  0.22112896812E+02  0.00000000000E+00 0. -1.
</event>
<event>
 7    1  0.7578565E-012  0.5930186E+02  0.7816164E-02  0.1266605E+00
        -11   -1    0    0    0    0  0.00000000000E+00  0.00000000000E+00  0.45593999997E+02  0.45594000000E+02  0.51100000000E-03 0.  1.
         11   -1    0    0    0    0 -0.00000000000E+00 -0.00000000000E+00 -0.45593999997E+02  0.45594000000E+02  0.51100000000E-03 0. -1.
    9900012    2    1    2    0    0 -0.23141845010E+02 -0.12104297133E+02  0.18293902442E+02  0.59301860909E+02  0.49999848412E+02 0.  0.
         12    1    1    2    0    0  0.23141845010E+02  0.12104297133E+02 -0.18293902442E+02  0.31886139091E+02  0.00000000000E+00 0. -1.
         11    1    3    3    0    0 -0.88479889568E+01 -0.84610964518E+01 -0.15311673813E+02  0.19604193862E+02  0.51100000000E-03 0. -1.
        -11    1    3    3    0    0 -0.11900164989E+02 -0.17338912956E+01  0.93061114331E+01  0.15206051955E+02  0.51100000000E-03 0.  1.
         12    1    3    3    0    0 -0.23936910646E+01 -0.19093093860E+01  0.24299464822E+02  0.24491615093E+02  0.00000000000E+00 0. -1.
</event>
<event>
 7    1  0.7578565E-012  0.5930191E+02  0.7816164E-02  0.1266605E+00
        -11   -1    0    0    0    0  0.00000000000E+00  0.00000000000E+00  0.45593999997E+02  0.45594000000E+02  0.51100000000E-03 0.  1.
         11   -1    0    0    0    0 -0.00000000000E+00 -0.00000000000E+00 -0.45593999997E+02  0.45594000000E+02  0.51100000000E-03 0. -1.
    9900012    2    1    2    0    0  0.85734955716E+01  0.16701884450E+02  0.25773335674E+02  0.59301912089E+02  0.49999941752E+02 0.  0.
         12    1    1    2    0    0 -0.85734955716E+01 -0.16701884450E+02 -0.25773335674E+02  0.31886087911E+02  0.00000000000E+00 0. -1.
         11    1    3    3    0    0 -0.12659225567E+02 -0.28278020610E+01  0.73873351471E+01  0.14927329878E+02  0.51100000000E-03 0.  1.
        -11    1    3    3    0    0  0.26803207879E+02  0.15634807543E+02  0.81414912683E+01  0.32080259348E+02  0.51100000000E-03 0. -1.
        -12    1    3    3    0    0 -0.55704867407E+01  0.38948789686E+01  0.10244509258E+02  0.12294322863E+02  0.00000000000E+00 0.  1.
</event>
<event>
 7    1  0.7578565E-012  0.5930209E+02  0.7816164E-02  0.1266604E+00
        -11   -1    0    0    0    0  0.00000000000E+00  0.00000000000E+00  0.45593999997E+02  0.45594000000E+02  0.51100000000E-03 0.  1.
         11   -1    0    0    0    0 -0.00000000000E+00 -0.00000000000E+00 -0.45593999997E+02  0.45594000000E+02  0.51100000000E-03 0. -1.
    9900012    2    1    2    0    0 -0.31194130938E+02 -0.48625319518E+01 -0.44714007105E+01  0.59302087025E+02  0.50000260792E+02 0.  0.
         12    1    1    2    0    0  0.31194130938E+02  0.48625319518E+01  0.44714007105E+01  0.31885912975E+02  0.00000000000E+00 0. -1.
         11    1    3    3    0    0 -0.32769018509E+02 -0.21402492004E+02 -0.55711427013E+01  0.39533692836E+02  0.51100000000E-03 0. -1.
        -11    1    3    3    0    0  0.43199219921E+01  0.49151337133E+01  0.37378071070E+01  0.75360113898E+01  0.51100000000E-03 0.  1.
        -12    1    3    3    0    0 -0.27450344206E+01  0.11624826339E+02 -0.26380651162E+01  0.12232382799E+02  0.00000000000E+00 0.  1.
</event>
<event>
 7    1  0.7578565E-012  0.5930192E+02  0.7816164E-02  0.1266605E+00
        -11   -1    0    0    0    0  0.00000000000E+00  0.00000000000E+00  0.45593999997E+02  0.45594000000E+02  0.51100000000E-03 0.  1.
         11   -1    0    0    0    0 -0.00000000000E+00 -0.00000000000E+00 -0.45593999997E+02  0.45594000000E+02  0.51100000000E-03 0. -1.
    9900012    2    1    2    0    0  0.81874803722E+01 -0.21219323197E+02 -0.22347873102E+02  0.59301922411E+02  0.49999960577E+02 0.  0.
         12    1    1    2    0    0 -0.81874803722E+01  0.21219323197E+02  0.22347873102E+02  0.31886077589E+02  0.00000000000E+00 0. -1.
         11    1    3    3    0    0  0.24808190755E+02  0.73786421736E+00 -0.91307446257E+01  0.26445439490E+02  0.51100000000E-03 0. -1.
        -11    1    3    3    0    0 -0.93191647608E+01 -0.20481829426E+02 -0.85833381727E+01  0.24083726101E+02  0.51100000000E-03 0.  1.
         12    1    3    3    0    0 -0.73015456216E+01 -0.14753579890E+01 -0.46337903036E+01  0.87727568208E+01  0.00000000000E+00 0. -1.
</event>
<event>
 7    1  0.7578565E-012  0.5930194E+02  0.7816164E-02  0.1266605E+00
        -11   -1    0    0    0    0  0.00000000000E+00  0.00000000000E+00  0.45593999997E+02  0.45594000000E+02  0.51100000000E-03 0.  1.
         11   -1    0    0    0    0 -0.00000000000E+00 -0.00000000000E+00 -0.45593999997E+02  0.45594000000E+02  0.51100000000E-03 0. -1.
    9900012    2    1    2    0    0 -0.22620971150E+02 -0.17915385183E+02  0.13566558143E+02  0.59301939380E+02  0.49999991523E+02 0.  0.
         12    1    1    2    0    0  0.22620971150E+02  0.17915385183E+02 -0.13566558143E+02  0.31886060620E+02  0.00000000000E+00 0. -1.
         11    1    3    3    0    0 -0.18130443012E+02 -0.26073738806E+02  0.87229675969E+01  0.32933918429E+02  0.51100000000E-03 0. -1.
        -11    1    3    3    0    0 -0.13515720291E+02  0.88954782484E+01  0.59623012888E+01  0.17243934156E+02  0.51100000000E-03 0.  1.
         12    1    3    3    0    0  0.90251921530E+01 -0.73712462538E+00 -0.11187107430E+01  0.91240867947E+01  0.00000000000E+00 0. -1.
</event>
<event>
 7    1  0.7578565E-012  0.5930194E+02  0.7816164E-02  0.1266605E+00
        -11   -1    0    0    0    0  0.00000000000E+00  0.00000000000E+00  0.45593999997E+02  0.45594000000E+02  0.51100000000E-03 0. -1.
         11   -1    0    0    0    0 -0.00000000000E+00 -0.00000000000E+00 -0.45593999997E+02  0.45594000000E+02  0.51100000000E-03 0.  1.
    9900012    2    1    2    0    0 -0.42847858714E+01  0.31590870666E+02  0.61485185137E+00  0.59301944392E+02  0.50000000665E+02 0.  0.
         12    1    1    2    0    0  0.42847858714E+01 -0.31590870666E+02 -0.61485185137E+00  0.31886055608E+02  0.00000000000E+00 0. -1.
         11    1    3    3    0    0 -0.52698088630E+00 -0.59727820287E+01 -0.22053530956E+01  0.63886944327E+01  0.51100000000E-03 0. -1.
        -11    1    3    3    0    0  0.42023680562E+01  0.38380646218E+02 -0.80252829137E+01  0.39435251584E+02  0.51100000000E-03 0.  1.
        -12    1    3    3    0    0 -0.79601730413E+01 -0.81699352346E+00  0.10845487861E+02  0.13477998375E+02  0.00000000000E+00 0.  1.
</event>
<event>
 7    1  0.7578565E-012  0.5930197E+02  0.7816164E-02  0.1266605E+00
        -11   -1    0    0    0    0  0.00000000000E+00  0.00000000000E+00  0.45593999997E+02  0.45594000000E+02  0.51100000000E-03 0.  1.
         11   -1    0    0    0    0 -0.00000000000E+00 -0.00000000000E+00 -0.45593999997E+02  0.45594000000E+02  0.51100000000E-03 0. -1.
    9900012    2    1    2    0    0  0.84303905762E+01  0.30178820335E+02  0.59064319796E+01  0.59301974522E+02  0.50000055614E+02 0.  0.
         12    1    1    2    0    0 -0.84303905762E+01 -0.30178820335E+02 -0.59064319796E+01  0.31886025478E+02  0.00000000000E+00 0. -1.
         11    1    3    3    0    0 -0.68140912071E+01  0.39072891040E+01 -0.87568356753E+01  0.11763541917E+02  0.51100000000E-03 0. -1.
        -11    1    3    3    0    0  0.11200584702E+01  0.12282476512E+02  0.22907973417E+02  0.26017090664E+02  0.51100000000E-03 0.  1.
        -12    1    3    3    0    0  0.14124423313E+02  0.13989054719E+02 -0.82447057625E+01  0.21521341942E+02  0.00000000000E+00 0.  1.
</event>
<event>
 7    1  0.7578565E-012  0.5930197E+02  0.7816164E-02  0.1266605E+00
        -11   -1    0    0    0    0  0.00000000000E+00  0.00000000000E+00  0.45593999997E+02  0.45594000000E+02  0.51100000000E-03 0.  1.
         11   -1    0    0    0    0 -0.00000000000E+00 -0.00000000000E+00 -0.45593999997E+02  0.45594000000E+02  0.51100000000E-03 0. -1.
    9900012    2    1    2    0    0  0.17870862672E+02 -0.84560821269E+01  0.25016911071E+02  0.59301970189E+02  0.50000047711E+02 0.  0.
         12    1    1    2    0    0 -0.17870862672E+02  0.84560821269E+01 -0.25016911071E+02  0.31886029811E+02  0.00000000000E+00 0. -1.
         11    1    3    3    0    0  0.18184023342E+01 -0.41565273293E+01 -0.13720366111E+02  0.14451012178E+02  0.51100000000E-03 0. -1.
        -11    1    3    3    0    0  0.86823232906E+00 -0.15953157402E+01  0.22062152146E+02  0.22136788775E+02  0.51100000000E-03 0.  1.
         12    1    3    3    0    0  0.15184228009E+02 -0.27042390574E+01  0.16675125036E+02  0.22714169236E+02  0.00000000000E+00 0. -1.
</event>
<event>
 7    1  0.7578565E-012  0.5930187E+02  0.7816164E-02  0.1266605E+00
        -11   -1    0    0    0    0  0.00000000000E+00  0.00000000000E+00  0.45593999997E+02  0.45594000000E+02  0.51100000000E-03 0. -1.
         11   -1    0    0    0    0 -0.00000000000E+00 -0.00000000000E+00 -0.45593999997E+02  0.45594000000E+02  0.51100000000E-03 0.  1.
    9900012    2    1    2    0    0  0.36549137364E+01  0.28768746811E+01 -0.31545051807E+02  0.59301872987E+02  0.49999870439E+02 0.  0.
         12    1    1    2    0    0 -0.36549137364E+01 -0.28768746811E+01  0.31545051807E+02  0.31886127013E+02  0.00000000000E+00 0. -1.
         11    1    3    3    0    0 -0.70949497588E+01 -0.67684729353E+01  0.63866687818E+01  0.11702139819E+02  0.51100000000E-03 0. -1.
        -11    1    3    3    0    0 -0.55011644739E+01  0.77112129143E+01 -0.25022629190E+02  0.26755515077E+02  0.51100000000E-03 0.  1.
         12    1    3    3    0    0  0.16251027969E+02  0.19341347021E+01 -0.12909091399E+02  0.20844218091E+02  0.00000000000E+00 0. -1.
</event>
<event>
 7    1  0.7578565E-012  0.5930193E+02  0.7816164E-02  0.1266605E+00
        -11   -1    0    0    0    0  0.00000000000E+00  0.00000000000E+00  0.45593999997E+02  0.45594000000E+02  0.51100000000E-03 0.  1.
         11   -1    0    0    0    0 -0.00000000000E+00 -0.00000000000E+00 -0.45593999997E+02  0.45594000000E+02  0.51100000000E-03 0. -1.
    9900012    2    1    2    0    0 -0.86159266360E+00  0.20752083393E+02  0.24193596227E+02  0.59301930856E+02  0.49999975978E+02 0.  0.
         12    1    1    2    0    0  0.86159266360E+00 -0.20752083393E+02 -0.24193596227E+02  0.31886069144E+02  0.00000000000E+00 0. -1.
         11    1    3    3    0    0  0.90676615773E+01 -0.60739094348E+01 -0.35088401049E+01  0.11464153761E+02  0.51100000000E-03 0. -1.
        -11    1    3    3    0    0 -0.14624605239E+02  0.20012775493E+02  0.30317025681E+02  0.39160085645E+02  0.51100000000E-03 0.  1.
        -12    1    3    3    0    0  0.46953509978E+01  0.68132173344E+01 -0.26145893492E+01  0.86776914501E+01  0.00000000000E+00 0.  1.
</event>
<event>
 7    1  0.7578565E-012  0.5930218E+02  0.7816164E-02  0.1266604E+00
        -11   -1    0    0    0    0  0.00000000000E+00  0.00000000000E+00  0.45593999997E+02  0.45594000000E+02  0.51100000000E-03 0. -1.
         11   -1    0    0    0    0 -0.00000000000E+00 -0.00000000000E+00 -0.45593999997E+02  0.45594000000E+02  0.51100000000E-03 0.  1.
    9900012    2    1    2    0    0 -0.89546644112E+01 -0.15048661385E+02 -0.26646894640E+02  0.59302184687E+02  0.50000438903E+02 0.  0.
         12    1    1    2    0    0  0.89546644112E+01  0.15048661385E+02  0.26646894640E+02  0.31885815313E+02  0.00000000000E+00 0. -1.
         11    1    3    3    0    0 -0.15309870008E+02 -0.63208478624E+01 -0.25488242530E+02  0.30397298316E+02  0.51100000000E-03 0. -1.
        -11    1    3    3    0    0  0.10899713547E+02 -0.15866892194E+02 -0.45623551611E+01  0.19783253225E+02  0.51100000000E-03 0.  1.
         12    1    3    3    0    0 -0.45445079502E+01  0.71390786722E+01  0.34037030510E+01  0.91216331463E+01  0.00000000000E+00 0. -1.
</event>
<event>
 7    1  0.7578565E-012  0.5930194E+02  0.7816164E-02  0.1266605E+00
        -11   -1    0    0    0    0  0.00000000000E+00  0.00000000000E+00  0.45593999997E+02  0.45594000000E+02  0.51100000000E-03 0.  1.
         11   -1    0    0    0    0 -0.00000000000E+00 -0.00000000000E+00 -0.45593999997E+02  0.45594000000E+02  0.51100000000E-03 0. -1.
    9900012    2    1    2    0    0 -0.27237220278E+01  0.21990665502E+02  0.22928431714E+02  0.59301937029E+02  0.49999987236E+02 0.  0.
         12    1    1    2    0    0  0.27237220278E+01 -0.21990665502E+02 -0.22928431714E+02  0.31886062971E+02  0.00000000000E+00 0. -1.
         11    1    3    3    0    0 -0.23827336212E+00  0.11077625533E+02  0.30305006131E+02  0.32267072357E+02  0.51100000000E-03 0. -1.
        -11    1    3    3    0    0  0.84433904604E+00 -0.73611950155E+01 -0.26356984778E+01  0.78642868213E+01  0.51100000000E-03 0.  1.
         12    1    3    3    0    0 -0.33297877117E+01  0.18274234984E+02 -0.47408759385E+01  0.19170577851E+02  0.00000000000E+00 0. -1.
</event>
<event>
 7    1  0.7578565E-012  0.5930191E+02  0.7816164E-02  0.1266605E+00
        -11   -1    0    0    0    0  0.00000000000E+00  0.00000000000E+00  0.45593999997E+02  0.45594000000E+02  0.51100000000E-03 0. -1.
         11   -1    0    0    0    0 -0.00000000000E+00 -0.00000000000E+00 -0.45593999997E+02  0.45594000000E+02  0.51100000000E-03 0.  1.
    9900012    2    1    2    0    0  0.75612383543E+01  0.24537983211E+02 -0.18906022199E+02  0.59301911797E+02  0.49999941218E+02 0.  0.
         12    1    1    2    0    0 -0.75612383543E+01 -0.24537983211E+02  0.18906022199E+02  0.31886088203E+02  0.00000000000E+00 0. -1.
         11    1    3    3    0    0  0.15211841307E+02  0.18477203831E+02 -0.85660853328E+01  0.25420169070E+02  0.51100000000E-03 0. -1.
        -11    1    3    3    0    0 -0.15918742619E+02  0.13044047978E+02 -0.29832126571E+01  0.20795507021E+02  0.51100000000E-03 0.  1.
         12    1    3    3    0    0  0.82681396668E+01 -0.69832685977E+01 -0.73567242094E+01  0.13086235706E+02  0.00000000000E+00 0. -1.
</event>
<event>
 7    1  0.7578565E-012  0.5930194E+02  0.7816164E-02  0.1266605E+00
        -11   -1    0    0    0    0  0.00000000000E+00  0.00000000000E+00  0.45593999997E+02  0.45594000000E+02  0.51100000000E-03 0.  1.
         11   -1    0    0    0    0 -0.00000000000E+00 -0.00000000000E+00 -0.45593999997E+02  0.45594000000E+02  0.51100000000E-03 0. -1.
    9900012    2    1    2    0    0 -0.20156120206E+02  0.61428119011E+01  0.23931513470E+02  0.59301942596E+02  0.49999997389E+02 0.  0.
         12    1    1    2    0    0  0.20156120206E+02 -0.61428119011E+01 -0.23931513470E+02  0.31886057404E+02  0.00000000000E+00 0. -1.
         11    1    3    3    0    0  0.34979009698E+01 -0.15786778837E+02  0.32275866807E+01  0.16488632851E+02  0.51100000000E-03 0. -1.
        -11    1    3    3    0    0 -0.15878905547E+02  0.11815913457E+02  0.16210105551E+01  0.19859081743E+02  0.51100000000E-03 0.  1.
         12    1    3    3    0    0 -0.77751156286E+01  0.10113677281E+02  0.19082916234E+02  0.22954228002E+02  0.00000000000E+00 0. -1.
</event>
<event>
 7    1  0.7578565E-012  0.5930196E+02  0.7816164E-02  0.1266605E+00
        -11   -1    0    0    0    0  0.00000000000E+00  0.00000000000E+00  0.45593999997E+02  0.45594000000E+02  0.51100000000E-03 0.  1.
         11   -1    0    0    0    0 -0.00000000000E+00 -0.00000000000E+00 -0.45593999997E+02  0.45594000000E+02  0.51100000000E-03 0. -1.
    9900012    2    1    2    0    0 -0.77024352693E+01 -0.19933463542E+02  0.23665350064E+02  0.59301964317E+02  0.50000037003E+02 0.  0.
         12    1    1    2    0    0  0.77024352693E+01  0.19933463542E+02 -0.23665350064E+02  0.31886035683E+02  0.00000000000E+00 0. -1.
         11    1    3    3    0    0  0.11456869367E+02 -0.59308841111E+01  0.16456505226E+02  0.20910566863E+02  0.51100000000E-03 0. -1.
        -11    1    3    3    0    0 -0.22177784712E+02 -0.39663142956E+01 -0.41800570053E+01  0.22914158519E+02  0.51100000000E-03 0.  1.
        -12    1    3    3    0    0  0.30184800759E+01 -0.10036265136E+02  0.11388901844E+02  0.15477238935E+02  0.00000000000E+00 0.  1.
</event>
<event>
 7    1  0.7578565E-012  0.5930194E+02  0.7816164E-02  0.1266605E+00
        -11   -1    0    0    0    0  0.00000000000E+00  0.00000000000E+00  0.45593999997E+02  0.45594000000E+02  0.51100000000E-03 0.  1.
         11   -1    0    0    0    0 -0.00000000000E+00 -0.00000000000E+00 -0.45593999997E+02  0.45594000000E+02  0.51100000000E-03 0. -1.
    9900012    2    1    2    0    0  0.28256293552E+02 -0.81533841274E+01 -0.12321717538E+02  0.59301944724E+02  0.50000001269E+02 0.  0.
         12    1    1    2    0    0 -0.28256293552E+02  0.81533841274E+01  0.12321717538E+02  0.31886055276E+02  0.00000000000E+00 0. -1.
         11    1    3    3    0    0  0.76878713152E+01 -0.14007170581E+01 -0.20930096248E+02  0.22341313812E+02  0.51100000000E-03 0. -1.
        -11    1    3    3    0    0  0.26714941648E+02 -0.98431344822E+01  0.95215039574E+01  0.30020566976E+02  0.51100000000E-03 0.  1.
         12    1    3    3    0    0 -0.61465194119E+01  0.30904674129E+01 -0.91312524745E+00  0.69400639355E+01  0.00000000000E+00 0. -1.
</event>
<event>
 7    1  0.7578565E-012  0.5930194E+02  0.7816164E-02  0.1266605E+00
        -11   -1    0    0    0    0  0.00000000000E+00  0.00000000000E+00  0.45593999997E+02  0.45594000000E+02  0.51100000000E-03 0. -1.
         11   -1    0    0    0    0 -0.00000000000E+00 -0.00000000000E+00 -0.45593999997E+02  0.45594000000E+02  0.51100000000E-03 0.  1.
    9900012    2    1    2    0    0  0.36775113262E+01 -0.16207250468E+02 -0.27212535417E+02  0.59301935001E+02  0.49999983538E+02 0.  0.
         12    1    1    2    0    0 -0.36775113262E+01  0.16207250468E+02  0.27212535417E+02  0.31886064999E+02  0.00000000000E+00 0. -1.
         11    1    3    3    0    0 -0.13021730846E+02  0.10705295292E+02 -0.36199599675E+00  0.16861193993E+02  0.51100000000E-03 0. -1.
        -11    1    3    3    0    0  0.21760195831E+01 -0.11440123485E+02 -0.93261151656E+01  0.14919380380E+02  0.51100000000E-03 0.  1.
         12    1    3    3    0    0  0.14523222589E+02 -0.15472422275E+02 -0.17524424255E+02  0.27521360629E+02  0.00000000000E+00 0. -1.
</event>
<event>
 7    1  0.7578565E-012  0.5930194E+02  0.7816164E-02  0.1266605E+00
        -11   -1    0    0    0    0  0.00000000000E+00  0.00000000000E+00  0.45593999997E+02  0.45594000000E+02  0.51100000000E-03 0.  1.
         11   -1    0    0    0    0 -0.00000000000E+00 -0.00000000000E+00 -0.45593999997E+02  0.45594000000E+02  0.51100000000E-03 0. -1.
    9900012    2    1    2    0    0  0.67235846258E+01  0.31007121877E+02  0.31736983593E+01  0.59301944136E+02  0.50000000197E+02 0.  0.
         12    1    1    2    0    0 -0.67235846258E+01 -0.31007121877E+02 -0.31736983593E+01  0.31886055864E+02  0.00000000000E+00 0. -1.
         11    1    3    3    0    0 -0.16506436662E+02  0.60398686053E+01  0.10345847123E+02  0.20395563660E+02  0.51100000000E-03 0. -1.
        -11    1    3    3    0    0  0.20220357821E+02  0.26404202752E+02 -0.27544341924E+01  0.33371120769E+02  0.51100000000E-03 0.  1.
        -12    1    3    3    0    0  0.30096634670E+01 -0.14369494808E+01 -0.44177145710E+01  0.55352597072E+01  0.00000000000E+00 0.  1.
</event>
<event>
 7    1  0.7578565E-012  0.5930198E+02  0.7816164E-02  0.1266605E+00
        -11   -1    0    0    0    0  0.00000000000E+00  0.00000000000E+00  0.45593999997E+02  0.45594000000E+02  0.51100000000E-03 0. -1.
         11   -1    0    0    0    0 -0.00000000000E+00 -0.00000000000E+00 -0.45593999997E+02  0.45594000000E+02  0.51100000000E-03 0.  1.
    9900012    2    1    2    0    0  0.26374692781E+02  0.50792331671E+01 -0.17184160401E+02  0.59301978023E+02  0.50000061999E+02 0.  0.
         12    1    1    2    0    0 -0.26374692781E+02 -0.50792331671E+01  0.17184160401E+02  0.31886021977E+02  0.00000000000E+00 0. -1.
         11    1    3    3    0    0 -0.82426285743E+01  0.10124475936E+02  0.81225088821E+00  0.13080737386E+02  0.51100000000E-03 0. -1.
        -11    1    3    3    0    0  0.13827581202E+02 -0.14186653181E+02 -0.95296353998E+01  0.21983563894E+02  0.51100000000E-03 0.  1.
         12    1    3    3    0    0  0.20789740153E+02  0.91414104122E+01 -0.84667758890E+01  0.24237676743E+02  0.00000000000E+00 0. -1.
</event>
<event>
 7    1  0.7578565E-012  0.5930195E+02  0.7816164E-02  0.1266605E+00
        -11   -1    0    0    0    0  0.00000000000E+00  0.00000000000E+00  0.45593999997E+02  0.45594000000E+02  0.51100000000E-03 0.  1.
         11   -1    0    0    0    0 -0.00000000000E+00 -0.00000000000E+00 -0.45593999997E+02  0.45594000000E+02  0.51100000000E-03 0. -1.
    9900012    2    1    2    0    0 -0.96532536614E+01 -0.83903482521E+00  0.30378135688E+02  0.59301946410E+02  0.50000004344E+02 0.  0.
         12    1    1    2    0    0  0.96532536614E+01  0.83903482521E+00 -0.30378135688E+02  0.31886053590E+02  0.00000000000E+00 0. -1.
         11    1    3    3    0    0  0.16071696342E+02 -0.41566181441E+01  0.12847280887E+01  0.16650147874E+02  0.51100000000E-03 0. -1.
        -11    1    3    3    0    0 -0.78101935590E+01 -0.47054320398E+01  0.17815672085E+02  0.20013455129E+02  0.51100000000E-03 0.  1.
         12    1    3    3    0    0 -0.17914756444E+02  0.80230153587E+01  0.11277735514E+02  0.22638343407E+02  0.00000000000E+00 0. -1.
</event>
<event>
 7    1  0.7578565E-012  0.5930193E+02  0.7816164E-02  0.1266605E+00
        -11   -1    0    0    0    0  0.00000000000E+00  0.00000000000E+00  0.45593999997E+02  0.45594000000E+02  0.51100000000E-03 0.  1.
         11   -1    0    0    0    0 -0.00000000000E+00 -0.00000000000E+00 -0.45593999997E+02  0.45594000000E+02  0.51100000000E-03 0. -1.
    9900012    2    1    2    0    0 -0.14871142989E+02 -0.26878275034E+02  0.85515496264E+01  0.59301928376E+02  0.49999971455E+02 0.  0.
         12    1    1    2    0    0  0.14871142989E+02  0.26878275034E+02 -0.85515496264E+01  0.31886071624E+02  0.00000000000E+00 0. -1.
         11    1    3    3    0    0  0.31002471764E+01 -0.18523880889E+01  0.16655663272E+02  0.17042710860E+02  0.51100000000E-03 0. -1.
        -11    1    3    3    0    0 -0.25165256823E+02 -0.16177026634E+02 -0.42238240614E+01  0.30213027515E+02  0.51100000000E-03 0.  1.
         12    1    3    3    0    0  0.71938666574E+01 -0.88488603110E+01 -0.38802895837E+01  0.12046190001E+02  0.00000000000E+00 0. -1.
</event>
<event>
 7    1  0.7578565E-012  0.5930186E+02  0.7816164E-02  0.1266605E+00
        -11   -1    0    0    0    0  0.00000000000E+00  0.00000000000E+00  0.45593999997E+02  0.45594000000E+02  0.51100000000E-03 0.  1.
         11   -1    0    0    0    0 -0.00000000000E+00 -0.00000000000E+00 -0.45593999997E+02  0.45594000000E+02  0.51100000000E-03 0. -1.
    9900012    2    1    2    0    0  0.73387150645E+01  0.39766292850E+01  0.30774268331E+02  0.59301860212E+02  0.49999847139E+02 0.  0.
         12    1    1    2    0    0 -0.73387150645E+01 -0.39766292850E+01 -0.30774268331E+02  0.31886139788E+02  0.00000000000E+00 0. -1.
         11    1    3    3    0    0  0.21116524257E+01 -0.13966877242E+02  0.11884880211E+02  0.18460311854E+02  0.51100000000E-03 0.  1.
        -11    1    3    3    0    0  0.13753275366E+02  0.52177450438E+01 -0.20979997613E+01  0.14858635532E+02  0.51100000000E-03 0. -1.
        -12    1    3    3    0    0 -0.85262127269E+01  0.12725761483E+02  0.20987387881E+02  0.25982912825E+02  0.00000000000E+00 0.  1.
</event>
<event>
 7    1  0.7578565E-012  0.5930195E+02  0.7816164E-02  0.1266605E+00
        -11   -1    0    0    0    0  0.00000000000E+00  0.00000000000E+00  0.45593999997E+02  0.45594000000E+02  0.51100000000E-03 0. -1.
         11   -1    0    0    0    0 -0.00000000000E+00 -0.00000000000E+00 -0.45593999997E+02  0.45594000000E+02  0.51100000000E-03 0.  1.
    9900012    2    1    2    0    0  0.27579400213E+02  0.13615884387E+02 -0.84086002644E+01  0.59301950038E+02  0.50000010962E+02 0.  0.
         12    1    1    2    0    0 -0.27579400213E+02 -0.13615884387E+02  0.84086002644E+01  0.31886049962E+02  0.00000000000E+00 0. -1.
         11    1    3    3    0    0  0.37492354836E+02  0.44207188516E+01 -0.92422886166E+01  0.38866943865E+02  0.51100000000E-03 0. -1.
        -11    1    3    3    0    0 -0.10626133855E+02  0.83798273298E+01  0.62536455756E+01  0.14907860679E+02  0.51100000000E-03 0.  1.
        -12    1    3    3    0    0  0.71317923207E+00  0.81533820599E+00 -0.54199572234E+01  0.55271454939E+01  0.00000000000E+00 0.  1.
</event>
<event>
 7    1  0.7578565E-012  0.5930195E+02  0.7816164E-02  0.1266605E+00
        -11   -1    0    0    0    0  0.00000000000E+00  0.00000000000E+00  0.45593999997E+02  0.45594000000E+02  0.51100000000E-03 0. -1.
         11   -1    0    0    0    0 -0.00000000000E+00 -0.00000000000E+00 -0.45593999997E+02  0.45594000000E+02  0.51100000000E-03 0.  1.
    9900012    2    1    2    0    0 -0.59068301340E+01 -0.39956649570E+01 -0.31078359908E+02  0.59301946070E+02  0.50000003724E+02 0.  0.
         12    1    1    2    0    0  0.59068301340E+01  0.39956649570E+01  0.31078359908E+02  0.31886053930E+02  0.00000000000E+00 0. -1.
         11    1    3    3    0    0 -0.88915063005E+00 -0.93427833300E+01  0.50770144127E+01  0.10670251394E+02  0.51100000000E-03 0. -1.
        -11    1    3    3    0    0 -0.26168620192E+01 -0.84304096648E+01 -0.33179235738E+02  0.34333386934E+02  0.51100000000E-03 0.  1.
        -12    1    3    3    0    0 -0.24008174847E+01  0.13777528038E+02 -0.29761385822E+01  0.14298307742E+02  0.00000000000E+00 0.  1.
</event>
<event>
 7    1  0.7578565E-012  0.5930216E+02  0.7816164E-02  0.1266604E+00
        -11   -1    0    0    0    0  0.00000000000E+00  0.00000000000E+00  0.45593999997E+02  0.45594000000E+02  0.51100000000E-03 0.  1.
         11   -1    0    0    0    0 -0.00000000000E+00 -0.00000000000E+00 -0.45593999997E+02  0.45594000000E+02  0.51100000000E-03 0. -1.
    9900012    2    1    2    0    0  0.70870869920E+01 -0.16016781306E+02  0.26644745064E+02  0.59302164195E+02  0.50000401531E+02 0.  0.
         12    1    1    2    0    0 -0.70870869920E+01  0.16016781306E+02 -0.26644745064E+02  0.31885835805E+02  0.00000000000E+00 0. -1.
         11    1    3    3    0    0 -0.13369211517E+02 -0.19358599472E+02  0.47091554182E+01  0.23993068481E+02  0.51100000000E-03 0. -1.
        -11    1    3    3    0    0  0.14801110772E+02 -0.63494718231E+01  0.10153946534E+02  0.19039204369E+02  0.51100000000E-03 0.  1.
         12    1    3    3    0    0  0.56551877375E+01  0.96912899887E+01  0.11781643112E+02  0.16269891346E+02  0.00000000000E+00 0. -1.
</event>
<event>
 7    1  0.7578565E-012  0.5930189E+02  0.7816164E-02  0.1266605E+00
        -11   -1    0    0    0    0  0.00000000000E+00  0.00000000000E+00  0.45593999997E+02  0.45594000000E+02  0.51100000000E-03 0.  1.
         11   -1    0    0    0    0 -0.00000000000E+00 -0.00000000000E+00 -0.45593999997E+02  0.45594000000E+02  0.51100000000E-03 0. -1.
    9900012    2    1    2    0    0 -0.23056859583E+02  0.18146798723E+02  0.12481956404E+02  0.59301885258E+02  0.49999892817E+02 0.  0.
         12    1    1    2    0    0  0.23056859583E+02 -0.18146798723E+02 -0.12481956404E+02  0.31886114742E+02  0.00000000000E+00 0. -1.
         11    1    3    3    0    0  0.40746107128E+01  0.25619170939E+01  0.20130975310E+02  0.20698358361E+02  0.51100000000E-03 0. -1.
        -11    1    3    3    0    0 -0.12031251169E+02  0.18872556355E+02 -0.42929084078E+01  0.22789327566E+02  0.51100000000E-03 0.  1.
         12    1    3    3    0    0 -0.15100219127E+02 -0.32876747262E+01 -0.33561104985E+01  0.15814199330E+02  0.00000000000E+00 0. -1.
</event>
<event>
 7    1  0.7578565E-012  0.5930194E+02  0.7816164E-02  0.1266605E+00
        -11   -1    0    0    0    0  0.00000000000E+00  0.00000000000E+00  0.45593999997E+02  0.45594000000E+02  0.51100000000E-03 0.  1.
         11   -1    0    0    0    0 -0.00000000000E+00 -0.00000000000E+00 -0.45593999997E+02  0.45594000000E+02  0.51100000000E-03 0. -1.
    9900012    2    1    2    0    0  0.20641169085E+02 -0.20803363721E+02  0.12565155825E+02  0.59301938089E+02  0.49999989169E+02 0.  0.
         12    1    1    2    0    0 -0.20641169085E+02  0.20803363721E+02 -0.12565155825E+02  0.31886061911E+02  0.00000000000E+00 0. -1.
         11    1    3    3    0    0  0.57044561508E+01  0.11271388475E+02 -0.95883199931E+01  0.15859410414E+02  0.51100000000E-03 0. -1.
        -11    1    3    3    0    0  0.10002732129E+02 -0.99994933600E+01  0.48111905881E+01  0.14939614206E+02  0.51100000000E-03 0.  1.
         12    1    3    3    0    0  0.49339808054E+01 -0.22075258835E+02  0.17342285230E+02  0.28502913469E+02  0.00000000000E+00 0. -1.
</event>
<event>
 7    1  0.7578565E-012  0.5930198E+02  0.7816164E-02  0.1266605E+00
        -11   -1    0    0    0    0  0.00000000000E+00  0.00000000000E+00  0.45593999997E+02  0.45594000000E+02  0.51100000000E-03 0.  1.
         11   -1    0    0    0    0 -0.00000000000E+00 -0.00000000000E+00 -0.45593999997E+02  0.45594000000E+02  0.51100000000E-03 0. -1.
    9900012    2    1    2    0    0 -0.18314107600E+02  0.14547608547E+02  0.21672070156E+02  0.59301983058E+02  0.50000071182E+02 0.  0.
         12    1    1    2    0    0  0.18314107600E+02 -0.14547608547E+02 -0.21672070156E+02  0.31886016942E+02  0.00000000000E+00 0. -1.
         11    1    3    3    0    0 -0.10706320821E+02 -0.15017220871E+02  0.26346647442E+00  0.18444827000E+02  0.51100000000E-03 0. -1.
        -11    1    3    3    0    0 -0.11634904856E+02  0.14617823295E+02  0.15543376240E+02  0.24303257273E+02  0.51100000000E-03 0.  1.
         12    1    3    3    0    0  0.40271180779E+01  0.14947006122E+02  0.58652274414E+01  0.16553898785E+02  0.00000000000E+00 0. -1.
</event>
<event>
 7    1  0.7578565E-012  0.5930194E+02  0.7816164E-02  0.1266605E+00
        -11   -1    0    0    0    0  0.00000000000E+00  0.00000000000E+00  0.45593999997E+02  0.45594000000E+02  0.51100000000E-03 0. -1.
         11   -1    0    0    0    0 -0.00000000000E+00 -0.00000000000E+00 -0.45593999997E+02  0.45594000000E+02  0.51100000000E-03 0.  1.
    9900012    2    1    2    0    0  0.38264247336E+01  0.10931870663E+02 -0.29708137395E+02  0.59301941136E+02  0.49999994726E+02 0.  0.
         12    1    1    2    0    0 -0.38264247336E+01 -0.10931870663E+02  0.29708137395E+02  0.31886058864E+02  0.00000000000E+00 0. -1.
         11    1    3    3    0    0 -0.15009589309E+02  0.10785398537E+02 -0.19324875465E+02  0.26740669491E+02  0.51100000000E-03 0. -1.
        -11    1    3    3    0    0  0.84248166693E+01  0.12236188577E+02 -0.40759860352E+01  0.15405048173E+02  0.51100000000E-03 0.  1.
         12    1    3    3    0    0  0.10411197373E+02 -0.12089716451E+02 -0.63072758945E+01  0.17156223472E+02  0.00000000000E+00 0. -1.
</event>
<event>
 7    1  0.7578565E-012  0.5930197E+02  0.7816164E-02  0.1266605E+00
        -11   -1    0    0    0    0  0.00000000000E+00  0.00000000000E+00  0.45593999997E+02  0.45594000000E+02  0.51100000000E-03 0. -1.
         11   -1    0    0    0    0 -0.00000000000E+00 -0.00000000000E+00 -0.45593999997E+02  0.45594000000E+02  0.51100000000E-03 0.  1.
    9900012    2    1    2    0    0 -0.30999455875E+02  0.68304519863E+00 -0.74354633392E+01  0.59301969668E+02  0.50000046762E+02 0.  0.
         12    1    1    2    0    0  0.30999455875E+02 -0.68304519863E+00  0.74354633392E+01  0.31886030332E+02  0.00000000000E+00 0. -1.
         11    1    3    3    0    0 -0.31124436793E+02 -0.47601322581E+01 -0.27847915054E+00  0.31487568590E+02  0.51100000000E-03 0. -1.
        -11    1    3    3    0    0 -0.34828251923E+01  0.15234707055E+02 -0.75836896914E+01  0.17370628082E+02  0.51100000000E-03 0.  1.
        -12    1    3    3    0    0  0.36078061105E+01 -0.97915295984E+01  0.42670550277E+00  0.10443772996E+02  0.00000000000E+00 0.  1.
</event>
<event>
 7    1  0.7578565E-012  0.5930184E+02  0.7816164E-02  0.1266605E+00
        -11   -1    0    0    0    0  0.00000000000E+00  0.00000000000E+00  0.45593999997E+02  0.45594000000E+02  0.51100000000E-03 0. -1.
         11   -1    0    0    0    0 -0.00000000000E+00 -0.00000000000E+00 -0.45593999997E+02  0.45594000000E+02  0.51100000000E-03 0.  1.
    9900012    2    1    2    0    0  0.51533096751E+00 -0.17447243095E+02 -0.26684363196E+02  0.59301841611E+02  0.49999813216E+02 0.  0.
         12    1    1    2    0    0 -0.51533096751E+00  0.17447243095E+02  0.26684363196E+02  0.31886158389E+02  0.00000000000E+00 0. -1.
         11    1    3    3    0    0 -0.10493247015E+02  0.23663453364E+01 -0.21115530376E+02  0.23697540938E+02  0.51100000000E-03 0. -1.
        -11    1    3    3    0    0  0.89898218881E+00 -0.13183760130E+01  0.95388074662E+01  0.96713562867E+01  0.51100000000E-03 0.  1.
        -12    1    3    3    0    0  0.10109595794E+02 -0.18495212419E+02 -0.15107640286E+02  0.25932944387E+02  0.00000000000E+00 0.  1.
</event>
<event>
 7    1  0.7578565E-012  0.5930220E+02  0.7816164E-02  0.1266604E+00
        -11   -1    0    0    0    0  0.00000000000E+00  0.00000000000E+00  0.45593999997E+02  0.45594000000E+02  0.51100000000E-03 0. -1.
         11   -1    0    0    0    0 -0.00000000000E+00 -0.00000000000E+00 -0.45593999997E+02  0.45594000000E+02  0.51100000000E-03 0.  1.
    9900012    2    1    2    0    0 -0.36026073374E+01 -0.10594051291E+02 -0.29857856953E+02  0.59302198705E+02  0.50000464469E+02 0.  0.
         12    1    1    2    0    0  0.36026073374E+01  0.10594051291E+02  0.29857856953E+02  0.31885801295E+02  0.00000000000E+00 0. -1.
         11    1    3    3    0    0 -0.14268278873E+02 -0.22522724788E+02 -0.15782055403E+02  0.30982740145E+02  0.51100000000E-03 0. -1.
        -11    1    3    3    0    0  0.40009544791E+01  0.50177907677E+01 -0.17090975129E+02  0.18256157648E+02  0.51100000000E-03 0.  1.
         12    1    3    3    0    0  0.66647170569E+01  0.69108827297E+01  0.30151735788E+01  0.10063300913E+02  0.00000000000E+00 0. -1.
</event>
<event>
 7    1  0.7578565E-012  0.5930195E+02  0.7816164E-02  0.1266605E+00
        -11   -1    0    0    0    0  0.00000000000E+00  0.00000000000E+00  0.45593999997E+02  0.45594000000E+02  0.51100000000E-03 0.  1.
         11   -1    0    0    0    0 -0.00000000000E+00 -0.00000000000E+00 -0.45593999997E+02  0.45594000000E+02  0.51100000000E-03 0. -1.
    9900012    2    1    2    0    0  0.27560329474E+02  0.43016743194E+01  0.15448116932E+02  0.59301945377E+02  0.50000002461E+02 0.  0.
         12    1    1    2    0    0 -0.27560329474E+02 -0.43016743194E+01 -0.15448116932E+02  0.31886054623E+02  0.00000000000E+00 0. -1.
         11    1    3    3    0    0  0.89386680594E+00  0.89941080419E+01 -0.12769001886E+01  0.91281680358E+01  0.51100000000E-03 0. -1.
        -11    1    3    3    0    0  0.22347055938E+02 -0.15053315389E+02  0.24581368254E+02  0.36472412572E+02  0.51100000000E-03 0.  1.
        -12    1    3    3    0    0  0.43194067294E+01  0.10360881667E+02 -0.78563511333E+01  0.13701364769E+02  0.00000000000E+00 0.  1.
</event>
<event>
 7    1  0.7578565E-012  0.5930194E+02  0.7816164E-02  0.1266605E+00
        -11   -1    0    0    0    0  0.00000000000E+00  0.00000000000E+00  0.45593999997E+02  0.45594000000E+02  0.51100000000E-03 0.  1.
         11   -1    0    0    0    0 -0.00000000000E+00 -0.00000000000E+00 -0.45593999997E+02  0.45594000000E+02  0.51100000000E-03 0. -1.
    9900012    2    1    2    0    0  0.11642883388E+02  0.66906724747E+01  0.28920562434E+02  0.59301940926E+02  0.49999994344E+02 0.  0.
         12    1    1    2    0    0 -0.11642883388E+02 -0.66906724747E+01 -0.28920562434E+02  0.31886059074E+02  0.00000000000E+00 0. -1.
         11    1    3    3    0    0 -0.23391685783E+01  0.11536630492E+02 -0.27776344064E+01  0.12094660223E+02  0.51100000000E-03 0. -1.
        -11    1    3    3    0    0  0.33801503246E+01 -0.16742232374E+02  0.85391876229E+01  0.19095692881E+02  0.51100000000E-03 0.  1.
         12    1    3    3    0    0  0.10601901642E+02  0.11896274356E+02  0.23159009217E+02  0.28111587823E+02  0.00000000000E+00 0. -1.
</event>
<event>
 7    1  0.7578565E-012  0.5930197E+02  0.7816164E-02  0.1266605E+00
        -11   -1    0    0    0    0  0.00000000000E+00  0.00000000000E+00  0.45593999997E+02  0.45594000000E+02  0.51100000000E-03 0.  1.
         11   -1    0    0    0    0 -0.00000000000E+00 -0.00000000000E+00 -0.45593999997E+02  0.45594000000E+02  0.51100000000E-03 0. -1.
    9900012    2    1    2    0    0 -0.42542177314E+01  0.54447241032E+01  0.31128370622E+02  0.59301970980E+02  0.50000049155E+02 0.  0.
         12    1    1    2    0    0  0.42542177314E+01 -0.54447241032E+01 -0.31128370622E+02  0.31886029020E+02  0.00000000000E+00 0. -1.
         11    1    3    3    0    0 -0.12833648190E+02 -0.71528682050E+01  0.33408681507E+00  0.14696178540E+02  0.51100000000E-03 0. -1.
        -11    1    3    3    0    0  0.20517689147E+01  0.21073821299E+02  0.23638841003E+02  0.31735004396E+02  0.51100000000E-03 0.  1.
         12    1    3    3    0    0  0.65276615441E+01 -0.84762289907E+01  0.71554428042E+01  0.12870788043E+02  0.00000000000E+00 0. -1.
</event>
<event>
 7    1  0.7578565E-012  0.5930194E+02  0.7816164E-02  0.1266605E+00
        -11   -1    0    0    0    0  0.00000000000E+00  0.00000000000E+00  0.45593999997E+02  0.45594000000E+02  0.51100000000E-03 0.  1.
         11   -1    0    0    0    0 -0.00000000000E+00 -0.00000000000E+00 -0.45593999997E+02  0.45594000000E+02  0.51100000000E-03 0. -1.
    9900012    2    1    2    0    0 -0.24209141357E+02 -0.16424036147E+02  0.12684221706E+02  0.59301937702E+02  0.49999988463E+02 0.  0.
         12    1    1    2    0    0  0.24209141357E+02  0.16424036147E+02 -0.12684221706E+02  0.31886062298E+02  0.00000000000E+00 0. -1.
         11    1    3    3    0    0 -0.73366160451E+00 -0.53149788794E+01 -0.67133102098E+01  0.85939393803E+01  0.51100000000E-03 0. -1.
        -11    1    3    3    0    0 -0.23760187358E+02 -0.54724760074E+01  0.30023080730E+02  0.38676606285E+02  0.51100000000E-03 0.  1.
        -12    1    3    3    0    0  0.28470760548E+00 -0.56365812601E+01 -0.10625548815E+02  0.12031392036E+02  0.00000000000E+00 0.  1.
</event>
<event>
 7    1  0.7578565E-012  0.5930189E+02  0.7816164E-02  0.1266605E+00
        -11   -1    0    0    0    0  0.00000000000E+00  0.00000000000E+00  0.45593999997E+02  0.45594000000E+02  0.51100000000E-03 0. -1.
         11   -1    0    0    0    0 -0.00000000000E+00 -0.00000000000E+00 -0.45593999997E+02  0.45594000000E+02  0.51100000000E-03 0.  1.
    9900012    2    1    2    0    0  0.14753471654E+02 -0.26839571754E+02  0.88711133763E+01  0.59301887187E+02  0.49999896336E+02 0.  0.
         12    1    1    2    0    0 -0.14753471654E+02  0.26839571754E+02 -0.88711133763E+01  0.31886112813E+02  0.00000000000E+00 0. -1.
         11    1    3    3    0    0  0.96453341526E+01  0.50179548154E+01  0.16722722159E+02  0.19946472824E+02  0.51100000000E-03 0. -1.
        -11    1    3    3    0    0  0.98477177245E+01 -0.22516313465E+02 -0.12868727925E+02  0.27741053966E+02  0.51100000000E-03 0.  1.
        -12    1    3    3    0    0 -0.47395802228E+01 -0.93412131043E+01  0.50171191427E+01  0.11614360397E+02  0.00000000000E+00 0.  1.
</event>
<event>
 7    1  0.7578565E-012  0.5930183E+02  0.7816164E-02  0.1266605E+00
        -11   -1    0    0    0    0  0.00000000000E+00  0.00000000000E+00  0.45593999997E+02  0.45594000000E+02  0.51100000000E-03 0.  1.
         11   -1    0    0    0    0 -0.00000000000E+00 -0.00000000000E+00 -0.45593999997E+02  0.45594000000E+02  0.51100000000E-03 0. -1.
    9900012    2    1    2    0    0  0.15436703123E+02  0.25743979240E+02  0.10755636199E+02  0.59301827755E+02  0.49999787946E+02 0.  0.
         12    1    1    2    0    0 -0.15436703123E+02 -0.25743979240E+02 -0.10755636199E+02  0.31886172245E+02  0.00000000000E+00 0. -1.
         11    1    3    3    0    0  0.22246772451E+02  0.12628103107E+02 -0.20867875139E+01  0.25665980498E+02  0.51100000000E-03 0. -1.
        -11    1    3    3    0    0 -0.39772451439E+01  0.41876784311E+01  0.20649582337E+02  0.21442023704E+02  0.51100000000E-03 0.  1.
        -12    1    3    3    0    0 -0.28328241842E+01  0.89281977018E+01 -0.78071586236E+01  0.12193823553E+02  0.00000000000E+00 0.  1.
</event>
<event>
 7    1  0.7578565E-012  0.5930196E+02  0.7816164E-02  0.1266605E+00
        -11   -1    0    0    0    0  0.00000000000E+00  0.00000000000E+00  0.45593999997E+02  0.45594000000E+02  0.51100000000E-03 0.  1.
         11   -1    0    0    0    0 -0.00000000000E+00 -0.00000000000E+00 -0.45593999997E+02  0.45594000000E+02  0.51100000000E-03 0. -1.
    9900012    2    1    2    0    0  0.87399966193E+01  0.28464945896E+02 -0.11405220195E+02  0.59301957074E+02  0.50000023793E+02 0.  0.
         12    1    1    2    0    0 -0.87399966193E+01 -0.28464945896E+02  0.11405220195E+02  0.31886042926E+02  0.00000000000E+00 0. -1.
         11    1    3    3    0    0  0.21125792141E+01 -0.22398139294E+01 -0.30848490740E+01  0.43584459897E+01  0.51100000000E-03 0. -1.
        -11    1    3    3    0    0  0.15858721639E+02  0.37424526795E+02  0.28308546341E+00  0.40646948170E+02  0.51100000000E-03 0.  1.
        -12    1    3    3    0    0 -0.92313042337E+01 -0.67197669695E+01 -0.86034565842E+01  0.14296562915E+02  0.00000000000E+00 0.  1.
</event>
<event>
 7    1  0.7578565E-012  0.5930198E+02  0.7816164E-02  0.1266605E+00
        -11   -1    0    0    0    0  0.00000000000E+00  0.00000000000E+00  0.45593999997E+02  0.45594000000E+02  0.51100000000E-03 0.  1.
         11   -1    0    0    0    0 -0.00000000000E+00 -0.00000000000E+00 -0.45593999997E+02  0.45594000000E+02  0.51100000000E-03 0. -1.
    9900012    2    1    2    0    0  0.57319918127E+01 -0.17628742741E+02  0.25943982390E+02  0.59301976055E+02  0.50000058410E+02 0.  0.
         12    1    1    2    0    0 -0.57319918127E+01  0.17628742741E+02 -0.25943982390E+02  0.31886023945E+02  0.00000000000E+00 0. -1.
         11    1    3    3    0    0 -0.10109755724E+02 -0.80978855618E+01 -0.95915563420E+01  0.16117718967E+02  0.51100000000E-03 0. -1.
        -11    1    3    3    0    0  0.15918356748E+01  0.39941871396E+01  0.10600274491E+02  0.11439112346E+02  0.51100000000E-03 0.  1.
         12    1    3    3    0    0  0.14249911862E+02 -0.13525044319E+02  0.24935264242E+02  0.31745144742E+02  0.00000000000E+00 0. -1.
</event>
<event>
 7    1  0.7578565E-012  0.5930193E+02  0.7816164E-02  0.1266605E+00
        -11   -1    0    0    0    0  0.00000000000E+00  0.00000000000E+00  0.45593999997E+02  0.45594000000E+02  0.51100000000E-03 0.  1.
         11   -1    0    0    0    0 -0.00000000000E+00 -0.00000000000E+00 -0.45593999997E+02  0.45594000000E+02  0.51100000000E-03 0. -1.
    9900012    2    1    2    0    0  0.14183318662E+01 -0.27356438022E+02  0.16319771449E+02  0.59301932405E+02  0.49999978803E+02 0.  0.
         12    1    1    2    0    0 -0.14183318662E+01  0.27356438022E+02 -0.16319771449E+02  0.31886067595E+02  0.00000000000E+00 0. -1.
         11    1    3    3    0    0 -0.45470720030E+01  0.31830367063E+01 -0.25606618512E+01  0.61126570205E+01  0.51100000000E-03 0. -1.
        -11    1    3    3    0    0 -0.11459400719E+02 -0.30168631737E+02  0.13062322535E+02  0.34815061051E+02  0.51100000000E-03 0.  1.
        -12    1    3    3    0    0  0.17424804588E+02 -0.37084299071E+00  0.58181107656E+01  0.18374214333E+02  0.00000000000E+00 0.  1.
</event>
<event>
 7    1  0.7578565E-012  0.5930198E+02  0.7816164E-02  0.1266605E+00
        -11   -1    0    0    0    0  0.00000000000E+00  0.00000000000E+00  0.45593999997E+02  0.45594000000E+02  0.51100000000E-03 0.  1.
         11   -1    0    0    0    0 -0.00000000000E+00 -0.00000000000E+00 -0.45593999997E+02  0.45594000000E+02  0.51100000000E-03 0. -1.
    9900012    2    1    2    0    0 -0.53369005082E+01  0.15800110171E+02  0.27177051862E+02  0.59301982118E+02  0.50000069468E+02 0.  0.
         12    1    1    2    0    0  0.53369005082E+01 -0.15800110171E+02 -0.27177051862E+02  0.31886017882E+02  0.00000000000E+00 0. -1.
         11    1    3    3    0    0 -0.41005020386E+01 -0.16288669756E+01 -0.24649903080E+01  0.50540579807E+01  0.51100000000E-03 0. -1.
        -11    1    3    3    0    0 -0.41476500369E+01  0.28614596948E+02  0.84739014386E+01  0.30129805263E+02  0.51100000000E-03 0.  1.
        -12    1    3    3    0    0  0.29112515673E+01 -0.11185619802E+02  0.21168140731E+02  0.24118118875E+02  0.00000000000E+00 0.  1.
</event>
<event>
 7    1  0.7578565E-012  0.5930194E+02  0.7816164E-02  0.1266605E+00
        -11   -1    0    0    0    0  0.00000000000E+00  0.00000000000E+00  0.45593999997E+02  0.45594000000E+02  0.51100000000E-03 0. -1.
         11   -1    0    0    0    0 -0.00000000000E+00 -0.00000000000E+00 -0.45593999997E+02  0.45594000000E+02  0.51100000000E-03 0.  1.
    9900012    2    1    2    0    0  0.27415496647E+02  0.72953255238E+01 -0.14556424151E+02  0.59301941683E+02  0.49999995724E+02 0.  0.
         12    1    1    2    0    0 -0.27415496647E+02 -0.72953255238E+01  0.14556424151E+02  0.31886058317E+02  0.00000000000E+00 0. -1.
         11    1    3    3    0    0  0.13084883867E+02  0.79938875191E+01 -0.24824575637E+02  0.29178347783E+02  0.51100000000E-03 0.  1.
        -11    1    3    3    0    0  0.12593073609E+02  0.10858015820E+02  0.57423351505E+01  0.17591373560E+02  0.51100000000E-03 0. -1.
         12    1    3    3    0    0  0.17375391708E+01 -0.11556577815E+02  0.45258163357E+01  0.12532220341E+02  0.00000000000E+00 0. -1.
</event>
<event>
 7    1  0.7578565E-012  0.5930195E+02  0.7816164E-02  0.1266605E+00
        -11   -1    0    0    0    0  0.00000000000E+00  0.00000000000E+00  0.45593999997E+02  0.45594000000E+02  0.51100000000E-03 0.  1.
         11   -1    0    0    0    0 -0.00000000000E+00 -0.00000000000E+00 -0.45593999997E+02  0.45594000000E+02  0.51100000000E-03 0. -1.
    9900012    2    1    2    0    0 -0.36042781885E+00  0.25367076192E+02  0.19315848372E+02  0.59301945665E+02  0.50000002986E+02 0.  0.
         12    1    1    2    0    0  0.36042781885E+00 -0.25367076192E+02 -0.19315848372E+02  0.31886054335E+02  0.00000000000E+00 0. -1.
         11    1    3    3    0    0 -0.12979431963E+02 -0.29577830249E+01  0.27129401213E+00  0.13314944056E+02  0.51100000000E-03 0. -1.
        -11    1    3    3    0    0  0.12908728057E+02  0.14881202368E+02 -0.32353032999E+01  0.19963783000E+02  0.51100000000E-03 0.  1.
        -12    1    3    3    0    0 -0.28972391294E+00  0.13443656849E+02  0.22279857660E+02  0.26023218609E+02  0.00000000000E+00 0.  1.
</event>
<event>
 7    1  0.7578565E-012  0.5930198E+02  0.7816164E-02  0.1266605E+00
        -11   -1    0    0    0    0  0.00000000000E+00  0.00000000000E+00  0.45593999997E+02  0.45594000000E+02  0.51100000000E-03 0. -1.
         11   -1    0    0    0    0 -0.00000000000E+00 -0.00000000000E+00 -0.45593999997E+02  0.45594000000E+02  0.51100000000E-03 0.  1.
    9900012    2    1    2    0    0  0.29945408999E+02 -0.50935101536E+01 -0.96977792059E+01  0.59301979751E+02  0.50000065150E+02 0.  0.
         12    1    1    2    0    0 -0.29945408999E+02  0.50935101536E+01  0.96977792059E+01  0.31886020249E+02  0.00000000000E+00 0. -1.
         11    1    3    3    0    0 -0.64959259622E+01  0.86843934389E+01 -0.11516259803E+01  0.10906052731E+02  0.51100000000E-03 0. -1.
        -11    1    3    3    0    0  0.24713466486E+02  0.59858837265E+00  0.52541303120E+01  0.25272902868E+02  0.51100000000E-03 0.  1.
        -12    1    3    3    0    0  0.11727868475E+02 -0.14376491965E+02 -0.13800283538E+02  0.23123024152E+02  0.00000000000E+00 0.  1.
</event>
<event>
 7    1  0.7578565E-012  0.5930216E+02  0.7816164E-02  0.1266604E+00
        -11   -1    0    0    0    0  0.00000000000E+00  0.00000000000E+00  0.45593999997E+02  0.45594000000E+02  0.51100000000E-03 0.  1.
         11   -1    0    0    0    0 -0.00000000000E+00 -0.00000000000E+00 -0.45593999997E+02  0.45594000000E+02  0.51100000000E-03 0. -1.
    9900012    2    1    2    0    0 -0.28474934621E+01 -0.12493288357E+02  0.29197878932E+02  0.59302162907E+02  0.50000399181E+02 0.  0.
         12    1    1    2    0    0  0.28474934621E+01  0.12493288357E+02 -0.29197878932E+02  0.31885837093E+02  0.00000000000E+00 0. -1.
         11    1    3    3    0    0  0.18514454368E+02 -0.79155678741E+01  0.13045287469E+02  0.23992097881E+02  0.51100000000E-03 0. -1.
        -11    1    3    3    0    0 -0.16093715382E+02 -0.10185412372E+02  0.19190848608E+02  0.27037732348E+02  0.51100000000E-03 0.  1.
        -12    1    3    3    0    0 -0.52682324483E+01  0.56076918891E+01 -0.30382571445E+01  0.82723326776E+01  0.00000000000E+00 0.  1.
</event>
<event>
 7    1  0.7578565E-012  0.5930196E+02  0.7816164E-02  0.1266605E+00
        -11   -1    0    0    0    0  0.00000000000E+00  0.00000000000E+00  0.45593999997E+02  0.45594000000E+02  0.51100000000E-03 0. -1.
         11   -1    0    0    0    0 -0.00000000000E+00 -0.00000000000E+00 -0.45593999997E+02  0.45594000000E+02  0.51100000000E-03 0.  1.
    9900012    2    1    2    0    0 -0.23744378231E+02  0.14915563598E+02 -0.15180584501E+02  0.59301957899E+02  0.50000025299E+02 0.  0.
         12    1    1    2    0    0  0.23744378231E+02 -0.14915563598E+02  0.15180584501E+02  0.31886042101E+02  0.00000000000E+00 0. -1.
         11    1    3    3    0    0 -0.10350530763E+02 -0.91108699496E+01 -0.13603043691E+02  0.19369673106E+02  0.51100000000E-03 0. -1.
        -11    1    3    3    0    0  0.47544666627E+01  0.16007137943E+02  0.72645812423E+01  0.18210094983E+02  0.51100000000E-03 0.  1.
        -12    1    3    3    0    0 -0.18148314131E+02  0.80192956039E+01 -0.88421220525E+01  0.21722189810E+02  0.00000000000E+00 0.  1.
</event>
<event>
 7    1  0.7578565E-012  0.5930195E+02  0.7816164E-02  0.1266605E+00
        -11   -1    0    0    0    0  0.00000000000E+00  0.00000000000E+00  0.45593999997E+02  0.45594000000E+02  0.51100000000E-03 0. -1.
         11   -1    0    0    0    0 -0.00000000000E+00 -0.00000000000E+00 -0.45593999997E+02  0.45594000000E+02  0.51100000000E-03 0.  1.
    9900012    2    1    2    0    0 -0.14336499082E+02  0.29975939131E+01 -0.28323122921E+02  0.59301951842E+02  0.50000014251E+02 0.  0.
         12    1    1    2    0    0  0.14336499082E+02 -0.29975939131E+01  0.28323122921E+02  0.31886048158E+02  0.00000000000E+00 0. -1.
         11    1    3    3    0    0  0.14762119130E+02 -0.73331605591E-01 -0.94670185301E+01  0.17537102921E+02  0.51100000000E-03 0. -1.
        -11    1    3    3    0    0 -0.29433252278E+02 -0.41690708038E+01 -0.12992824847E+02  0.32442425753E+02  0.51100000000E-03 0.  1.
         12    1    3    3    0    0  0.33463406567E+00  0.72399963225E+01 -0.58632795436E+01  0.93224231675E+01  0.00000000000E+00 0. -1.
</event>
<event>
 7    1  0.7578565E-012  0.5930206E+02  0.7816164E-02  0.1266604E+00
        -11   -1    0    0    0    0  0.00000000000E+00  0.00000000000E+00  0.45593999997E+02  0.45594000000E+02  0.51100000000E-03 0. -1.
         11   -1    0    0    0    0 -0.00000000000E+00 -0.00000000000E+00 -0.45593999997E+02  0.45594000000E+02  0.51100000000E-03 0.  1.
    9900012    2    1    2    0    0  0.24500229416E+02 -0.19875478101E+02  0.46278637445E+01  0.59302062755E+02  0.50000216529E+02 0.  0.
         12    1    1    2    0    0 -0.24500229416E+02  0.19875478101E+02 -0.46278637445E+01  0.31885937245E+02  0.00000000000E+00 0. -1.
         11    1    3    3    0    0  0.14741702068E+02 -0.28299478440E+02  0.29678801135E+01  0.32046631219E+02  0.51100000000E-03 0. -1.
        -11    1    3    3    0    0  0.13026123868E+02  0.93111627957E+01 -0.73589224143E+01  0.17621901004E+02  0.51100000000E-03 0.  1.
         12    1    3    3    0    0 -0.32675965211E+01 -0.88716245667E+00  0.90189060452E+01  0.96335305315E+01  0.00000000000E+00 0. -1.
</event>
<event>
 7    1  0.7578565E-012  0.5930192E+02  0.7816164E-02  0.1266605E+00
        -11   -1    0    0    0    0  0.00000000000E+00  0.00000000000E+00  0.45593999997E+02  0.45594000000E+02  0.51100000000E-03 0.  1.
         11   -1    0    0    0    0 -0.00000000000E+00 -0.00000000000E+00 -0.45593999997E+02  0.45594000000E+02  0.51100000000E-03 0. -1.
    9900012    2    1    2    0    0 -0.23671152133E+02  0.21341855616E+02 -0.96131224664E+00  0.59301915799E+02  0.49999948518E+02 0.  0.
         12    1    1    2    0    0  0.23671152133E+02 -0.21341855616E+02  0.96131224664E+00  0.31886084201E+02  0.00000000000E+00 0. -1.
         11    1    3    3    0    0 -0.79990608992E+01  0.94447928622E+01 -0.24596767478E+02  0.27535251190E+02  0.51100000000E-03 0. -1.
        -11    1    3    3    0    0 -0.50623517766E+01  0.33756692247E+01  0.13471155332E+02  0.14781561977E+02  0.51100000000E-03 0.  1.
         12    1    3    3    0    0 -0.10609739457E+02  0.85213935290E+01  0.10164299899E+02  0.16985102633E+02  0.00000000000E+00 0. -1.
</event>
<event>
 7    1  0.7578565E-012  0.5930192E+02  0.7816164E-02  0.1266605E+00
        -11   -1    0    0    0    0  0.00000000000E+00  0.00000000000E+00  0.45593999997E+02  0.45594000000E+02  0.51100000000E-03 0.  1.
         11   -1    0    0    0    0 -0.00000000000E+00 -0.00000000000E+00 -0.45593999997E+02  0.45594000000E+02  0.51100000000E-03 0. -1.
    9900012    2    1    2    0    0 -0.16002412738E+02 -0.91774283533E+01  0.26008072612E+02  0.59301917681E+02  0.49999951950E+02 0.  0.
         12    1    1    2    0    0  0.16002412738E+02  0.91774283533E+01 -0.26008072612E+02  0.31886082319E+02  0.00000000000E+00 0. -1.
         11    1    3    3    0    0 -0.99792661162E+01  0.71434880117E+01 -0.33949056163E+01  0.12733442488E+02  0.51100000000E-03 0. -1.
        -11    1    3    3    0    0  0.10714753185E+02 -0.18013995285E+01  0.15472806892E+01  0.10974746187E+02  0.51100000000E-03 0.  1.
        -12    1    3    3    0    0 -0.16737899808E+02 -0.14519516836E+02  0.27855697539E+02  0.35593729006E+02  0.00000000000E+00 0.  1.
</event>
<event>
 7    1  0.7578565E-012  0.5930195E+02  0.7816164E-02  0.1266605E+00
        -11   -1    0    0    0    0  0.00000000000E+00  0.00000000000E+00  0.45593999997E+02  0.45594000000E+02  0.51100000000E-03 0. -1.
         11   -1    0    0    0    0 -0.00000000000E+00 -0.00000000000E+00 -0.45593999997E+02  0.45594000000E+02  0.51100000000E-03 0.  1.
    9900012    2    1    2    0    0  0.14607774259E+02 -0.26520877793E+02 -0.99988165550E+01  0.59301947247E+02  0.50000005871E+02 0.  0.
         12    1    1    2    0    0 -0.14607774259E+02  0.26520877793E+02  0.99988165550E+01  0.31886052753E+02  0.00000000000E+00 0. -1.
         11    1    3    3    0    0  0.41995220701E+01 -0.89193437429E+01  0.64557475385E+01  0.11784199377E+02  0.51100000000E-03 0. -1.
        -11    1    3    3    0    0 -0.14594447676E+02 -0.17194211020E+01 -0.79121564933E+01  0.16690012958E+02  0.51100000000E-03 0.  1.
        -12    1    3    3    0    0  0.25002699864E+02 -0.15882112948E+02 -0.85424076002E+01  0.30827734912E+02  0.00000000000E+00 0.  1.
</event>
<event>
 7    1  0.7578565E-012  0.5930194E+02  0.7816164E-02  0.1266605E+00
        -11   -1    0    0    0    0  0.00000000000E+00  0.00000000000E+00  0.45593999997E+02  0.45594000000E+02  0.51100000000E-03 0. -1.
         11   -1    0    0    0    0 -0.00000000000E+00 -0.00000000000E+00 -0.45593999997E+02  0.45594000000E+02  0.51100000000E-03 0.  1.
    9900012    2    1    2    0    0 -0.15176690578E+02 -0.22439336104E+02 -0.16818594509E+02  0.59301939363E+02  0.49999991492E+02 0.  0.
         12    1    1    2    0    0  0.15176690578E+02  0.22439336104E+02  0.16818594509E+02  0.31886060637E+02  0.00000000000E+00 0. -1.
         11    1    3    3    0    0  0.45439183473E+01 -0.28949353897E+01 -0.49581862004E+01  0.73219843974E+01  0.51100000000E-03 0. -1.
        -11    1    3    3    0    0 -0.26257962737E+02 -0.28805785591E+02 -0.11497179504E+02  0.40637901366E+02  0.51100000000E-03 0.  1.
        -12    1    3    3    0    0  0.65373538116E+01  0.92613848765E+01 -0.36322880452E+00  0.11342053599E+02  0.00000000000E+00 0.  1.
</event>
<event>
 7    1  0.7578565E-012  0.5930195E+02  0.7816164E-02  0.1266605E+00
        -11   -1    0    0    0    0  0.00000000000E+00  0.00000000000E+00  0.45593999997E+02  0.45594000000E+02  0.51100000000E-03 0.  1.
         11   -1    0    0    0    0 -0.00000000000E+00 -0.00000000000E+00 -0.45593999997E+02  0.45594000000E+02  0.51100000000E-03 0. -1.
    9900012    2    1    2    0    0 -0.31853188592E+02 -0.14204336677E+01  0.27753889028E+00  0.59301948455E+02  0.50000008074E+02 0.  0.
         12    1    1    2    0    0  0.31853188592E+02  0.14204336677E+01 -0.27753889028E+00  0.31886051545E+02  0.00000000000E+00 0. -1.
         11    1    3    3    0    0 -0.11750418468E+02  0.49228084780E+01 -0.21673816283E+02  0.25140817211E+02  0.51100000000E-03 0. -1.
        -11    1    3    3    0    0 -0.19227307966E+02 -0.27987274842E-01  0.19340269837E+02  0.27271527140E+02  0.51100000000E-03 0.  1.
         12    1    3    3    0    0 -0.87546215815E+00 -0.63152548709E+01  0.26110853364E+01  0.68896041039E+01  0.00000000000E+00 0. -1.
</event>
<event>
 7    1  0.7578565E-012  0.5930195E+02  0.7816164E-02  0.1266605E+00
        -11   -1    0    0    0    0  0.00000000000E+00  0.00000000000E+00  0.45593999997E+02  0.45594000000E+02  0.51100000000E-03 0. -1.
         11   -1    0    0    0    0 -0.00000000000E+00 -0.00000000000E+00 -0.45593999997E+02  0.45594000000E+02  0.51100000000E-03 0.  1.
    9900012    2    1    2    0    0 -0.33410342683E+01 -0.30005037588E+02  0.10259404838E+02  0.59301950099E+02  0.50000011073E+02 0.  0.
         12    1    1    2    0    0  0.33410342683E+01  0.30005037588E+02 -0.10259404838E+02  0.31886049901E+02  0.00000000000E+00 0. -1.
         11    1    3    3    0    0 -0.78831916471E+01 -0.20174626555E+01  0.53547309221E+01  0.97410476655E+01  0.51100000000E-03 0. -1.
        -11    1    3    3    0    0  0.13931754214E+02 -0.24449945548E+02 -0.11444055342E+02  0.30378611154E+02  0.51100000000E-03 0.  1.
        -12    1    3    3    0    0 -0.93895968349E+01 -0.35376293847E+01  0.16348729258E+02  0.19182291279E+02  0.00000000000E+00 0.  1.
</event>
<event>
 7    1  0.7578565E-012  0.5930194E+02  0.7816164E-02  0.1266605E+00
        -11   -1    0    0    0    0  0.00000000000E+00  0.00000000000E+00  0.45593999997E+02  0.45594000000E+02  0.51100000000E-03 0. -1.
         11   -1    0    0    0    0 -0.00000000000E+00 -0.00000000000E+00 -0.45593999997E+02  0.45594000000E+02  0.51100000000E-03 0.  1.
    9900012    2    1    2    0    0  0.27265842974E+02  0.14119146210E+02 -0.85990884395E+01  0.59301940275E+02  0.49999993157E+02 0.  0.
         12    1    1    2    0    0 -0.27265842974E+02 -0.14119146210E+02  0.85990884395E+01  0.31886059725E+02  0.00000000000E+00 0. -1.
         11    1    3    3    0    0 -0.77466996222E+01 -0.80994880789E+01  0.61882807950E+01  0.12802651352E+02  0.51100000000E-03 0. -1.
        -11    1    3    3    0    0  0.33569932145E+02  0.23542424089E+02 -0.11351320177E+02  0.42544547785E+02  0.51100000000E-03 0.  1.
         12    1    3    3    0    0  0.14426104511E+01 -0.13237898000E+01 -0.34360490577E+01  0.39547411389E+01  0.00000000000E+00 0. -1.
</event>
<event>
 7    1  0.7578565E-012  0.5930191E+02  0.7816164E-02  0.1266605E+00
        -11   -1    0    0    0    0  0.00000000000E+00  0.00000000000E+00  0.45593999997E+02  0.45594000000E+02  0.51100000000E-03 0. -1.
         11   -1    0    0    0    0 -0.00000000000E+00 -0.00000000000E+00 -0.45593999997E+02  0.45594000000E+02  0.51100000000E-03 0.  1.
    9900012    2    1    2    0    0 -0.72047675857E+01  0.29337731441E+02 -0.10203507981E+02  0.59301909973E+02  0.49999937893E+02 0.  0.
         12    1    1    2    0    0  0.72047675857E+01 -0.29337731441E+02  0.10203507981E+02  0.31886090027E+02  0.00000000000E+00 0. -1.
         11    1    3    3    0    0 -0.11719096491E+02  0.37300258409E+02 -0.15687923690E+02  0.42127870227E+02  0.51100000000E-03 0. -1.
        -11    1    3    3    0    0  0.25373379433E+01 -0.19302870123E+01 -0.43958652357E+01  0.54302599588E+01  0.51100000000E-03 0.  1.
         12    1    3    3    0    0  0.19769909618E+01 -0.60322399553E+01  0.98802809449E+01  0.11743779787E+02  0.00000000000E+00 0. -1.
</event>
<event>
 7    1  0.7578565E-012  0.5930193E+02  0.7816164E-02  0.1266605E+00
        -11   -1    0    0    0    0  0.00000000000E+00  0.00000000000E+00  0.45593999997E+02  0.45594000000E+02  0.51100000000E-03 0.  1.
         11   -1    0    0    0    0 -0.00000000000E+00 -0.00000000000E+00 -0.45593999997E+02  0.45594000000E+02  0.51100000000E-03 0. -1.
    9900012    2    1    2    0    0  0.28895473662E+02  0.13438999772E+02  0.10800314446E+01  0.59301928104E+02  0.49999970959E+02 0.  0.
         12    1    1    2    0    0 -0.28895473662E+02 -0.13438999772E+02 -0.10800314446E+01  0.31886071896E+02  0.00000000000E+00 0. -1.
         11    1    3    3    0    0  0.23939532174E-01  0.31574224185E+01 -0.20323665562E+00  0.31640472230E+01  0.51100000000E-03 0. -1.
        -11    1    3    3    0    0  0.42015044656E+02  0.81475160146E+01  0.53128655946E+00  0.42801031066E+02  0.51100000000E-03 0.  1.
        -12    1    3    3    0    0 -0.13143510526E+02  0.21340613390E+01  0.75198154078E+00  0.13336849815E+02  0.00000000000E+00 0.  1.
</event>
<event>
 7    1  0.7578565E-012  0.5930195E+02  0.7816164E-02  0.1266605E+00
        -11   -1    0    0    0    0  0.00000000000E+00  0.00000000000E+00  0.45593999997E+02  0.45594000000E+02  0.51100000000E-03 0.  1.
         11   -1    0    0    0    0 -0.00000000000E+00 -0.00000000000E+00 -0.45593999997E+02  0.45594000000E+02  0.51100000000E-03 0. -1.
    9900012    2    1    2    0    0  0.19766725654E+02  0.24454978585E+02  0.52868661371E+01  0.59301947026E+02  0.50000005469E+02 0.  0.
         12    1    1    2    0    0 -0.19766725654E+02 -0.24454978585E+02 -0.52868661371E+01  0.31886052974E+02  0.00000000000E+00 0. -1.
         11    1    3    3    0    0 -0.21622506166E+01 -0.70813023769E+01  0.19631499863E+01  0.76599039949E+01  0.51100000000E-03 0. -1.
        -11    1    3    3    0    0  0.64176547342E+01  0.33423294208E+02  0.86809328134E+01  0.35123517517E+02  0.51100000000E-03 0.  1.
        -12    1    3    3    0    0  0.15511321537E+02 -0.18870132457E+01 -0.53572166626E+01  0.16518525514E+02  0.00000000000E+00 0.  1.
</event>
<event>
 7    1  0.7578565E-012  0.5930195E+02  0.7816164E-02  0.1266605E+00
        -11   -1    0    0    0    0  0.00000000000E+00  0.00000000000E+00  0.45593999997E+02  0.45594000000E+02  0.51100000000E-03 0. -1.
         11   -1    0    0    0    0 -0.00000000000E+00 -0.00000000000E+00 -0.45593999997E+02  0.45594000000E+02  0.51100000000E-03 0.  1.
    9900012    2    1    2    0    0  0.12791787270E+02 -0.19853973985E+02 -0.21422185811E+02  0.59301950551E+02  0.50000011897E+02 0.  0.
         12    1    1    2    0    0 -0.12791787270E+02  0.19853973985E+02  0.21422185811E+02  0.31886049449E+02  0.00000000000E+00 0. -1.
         11    1    3    3    0    0  0.40029739611E+01  0.16412853899E+01  0.36191425419E+01  0.56405506171E+01  0.51100000000E-03 0. -1.
        -11    1    3    3    0    0  0.19313526472E+02 -0.23038071845E+02 -0.29507813355E+02  0.42124530958E+02  0.51100000000E-03 0.  1.
        -12    1    3    3    0    0 -0.10524713164E+02  0.15428124700E+01  0.44664850026E+01  0.11536868976E+02  0.00000000000E+00 0.  1.
</event>
<event>
 7    1  0.7578565E-012  0.5930187E+02  0.7816164E-02  0.1266605E+00
        -11   -1    0    0    0    0  0.00000000000E+00  0.00000000000E+00  0.45593999997E+02  0.45594000000E+02  0.51100000000E-03 0.  1.
         11   -1    0    0    0    0 -0.00000000000E+00 -0.00000000000E+00 -0.45593999997E+02  0.45594000000E+02  0.51100000000E-03 0. -1.
    9900012    2    1    2    0    0  0.20953400294E+02 -0.23720763956E+02  0.38737264675E+01  0.59301868480E+02  0.49999862220E+02 0.  0.
         12    1    1    2    0    0 -0.20953400294E+02  0.23720763956E+02 -0.38737264675E+01  0.31886131520E+02  0.00000000000E+00 0. -1.
         11    1    3    3    0    0 -0.10909525131E+02 -0.13669464261E+02 -0.27814544028E+01  0.17708994343E+02  0.51100000000E-03 0. -1.
        -11    1    3    3    0    0  0.28169674838E+02 -0.16645741186E+02  0.85133439068E+01  0.33809588948E+02  0.51100000000E-03 0.  1.
         12    1    3    3    0    0  0.36932505874E+01  0.65944414907E+01 -0.18581630365E+01  0.77832851898E+01  0.00000000000E+00 0. -1.
</event>
<event>
 7    1  0.7578565E-012  0.5930196E+02  0.7816164E-02  0.1266605E+00
        -11   -1    0    0    0    0  0.00000000000E+00  0.00000000000E+00  0.45593999997E+02  0.45594000000E+02  0.51100000000E-03 0.  1.
         11   -1    0    0    0    0 -0.00000000000E+00 -0.00000000000E+00 -0.45593999997E+02  0.45594000000E+02  0.51100000000E-03 0. -1.
    9900012    2    1    2    0    0  0.23571224299E+02 -0.54827777827E+00  0.21466639524E+02  0.59301955467E+02  0.50000020863E+02 0.  0.
         12    1    1    2    0    0 -0.23571224299E+02  0.54827777827E+00 -0.21466639524E+02  0.31886044533E+02  0.00000000000E+00 0. -1.
         11    1    3    3    0    0 -0.76106620386E+00  0.15323620213E+02  0.13863937122E+02  0.20678522939E+02  0.51100000000E-03 0. -1.
        -11    1    3    3    0    0  0.20070686034E+02 -0.43218762691E+01  0.13901597684E+02  0.24794464519E+02  0.51100000000E-03 0.  1.
         12    1    3    3    0    0  0.42616044692E+01 -0.11550021722E+02 -0.62988952815E+01  0.13828968009E+02  0.00000000000E+00 0. -1.
</event>
<event>
 7    1  0.7578565E-012  0.5930194E+02  0.7816164E-02  0.1266605E+00
        -11   -1    0    0    0    0  0.00000000000E+00  0.00000000000E+00  0.45593999997E+02  0.45594000000E+02  0.51100000000E-03 0.  1.
         11   -1    0    0    0    0 -0.00000000000E+00 -0.00000000000E+00 -0.45593999997E+02  0.45594000000E+02  0.51100000000E-03 0. -1.
    9900012    2    1    2    0    0 -0.14818493531E+02  0.19360831048E+01  0.28167086826E+02  0.59301938020E+02  0.49999989044E+02 0.  0.
         12    1    1    2    0    0  0.14818493531E+02 -0.19360831048E+01 -0.28167086826E+02  0.31886061980E+02  0.00000000000E+00 0. -1.
         11    1    3    3    0    0  0.16432493538E+02 -0.41271021367E+00  0.11183989838E+02  0.19881619717E+02  0.51100000000E-03 0. -1.
        -11    1    3    3    0    0 -0.18077041374E+02 -0.52841311355E+01  0.14978232154E+02  0.24063435029E+02  0.51100000000E-03 0.  1.
         12    1    3    3    0    0 -0.13173945695E+02  0.76329244539E+01  0.20048648341E+01  0.15356883275E+02  0.00000000000E+00 0. -1.
</event>
<event>
 7    1  0.7578565E-012  0.5930180E+02  0.7816164E-02  0.1266605E+00
        -11   -1    0    0    0    0  0.00000000000E+00  0.00000000000E+00  0.45593999997E+02  0.45594000000E+02  0.51100000000E-03 0. -1.
         11   -1    0    0    0    0 -0.00000000000E+00 -0.00000000000E+00 -0.45593999997E+02  0.45594000000E+02  0.51100000000E-03 0.  1.
    9900012    2    1    2    0    0  0.26485618976E+02 -0.44372267107E+01 -0.17191651408E+02  0.59301798101E+02  0.49999733864E+02 0.  0.
         12    1    1    2    0    0 -0.26485618976E+02  0.44372267107E+01  0.17191651408E+02  0.31886201899E+02  0.00000000000E+00 0. -1.
         11    1    3    3    0    0  0.70145763596E+01  0.93428776374E+01  0.41920280305E+01  0.12412362520E+02  0.51100000000E-03 0. -1.
        -11    1    3    3    0    0  0.15655197373E+02 -0.34850339661E+01 -0.29266636549E+02  0.33373143120E+02  0.51100000000E-03 0.  1.
        -12    1    3    3    0    0  0.38158452437E+01 -0.10295070382E+02  0.78829571105E+01  0.13516292461E+02  0.00000000000E+00 0.  1.
</event>
<event>
 7    1  0.7578565E-012  0.5930190E+02  0.7816164E-02  0.1266605E+00
        -11   -1    0    0    0    0  0.00000000000E+00  0.00000000000E+00  0.45593999997E+02  0.45594000000E+02  0.51100000000E-03 0.  1.
         11   -1    0    0    0    0 -0.00000000000E+00 -0.00000000000E+00 -0.45593999997E+02  0.45594000000E+02  0.51100000000E-03 0. -1.
    9900012    2    1    2    0    0  0.39981846414E+01 -0.18804836668E+02  0.25438471327E+02  0.59301902936E+02  0.49999925058E+02 0.  0.
         12    1    1    2    0    0 -0.39981846414E+01  0.18804836668E+02 -0.25438471327E+02  0.31886097064E+02  0.00000000000E+00 0. -1.
         11    1    3    3    0    0  0.67037351083E+01  0.82149062698E+01 -0.91577003989E+01  0.14010290014E+02  0.51100000000E-03 0. -1.
        -11    1    3    3    0    0 -0.63029651169E+01 -0.99030263361E+01  0.14107509447E+02  0.18352632589E+02  0.51100000000E-03 0.  1.
         12    1    3    3    0    0  0.35974146499E+01 -0.17116716601E+02  0.20488662279E+02  0.26938980333E+02  0.00000000000E+00 0. -1.
</event>
<event>
 7    1  0.7578565E-012  0.5930198E+02  0.7816164E-02  0.1266605E+00
        -11   -1    0    0    0    0  0.00000000000E+00  0.00000000000E+00  0.45593999997E+02  0.45594000000E+02  0.51100000000E-03 0.  1.
         11   -1    0    0    0    0 -0.00000000000E+00 -0.00000000000E+00 -0.45593999997E+02  0.45594000000E+02  0.51100000000E-03 0. -1.
    9900012    2    1    2    0    0  0.12313153276E+02 -0.11676579038E+01  0.29389475297E+02  0.59301977564E+02  0.50000061161E+02 0.  0.
         12    1    1    2    0    0 -0.12313153276E+02  0.11676579038E+01 -0.29389475297E+02  0.31886022436E+02  0.00000000000E+00 0. -1.
         11    1    3    3    0    0 -0.35721064554E+01 -0.58245387028E+01 -0.92440440867E+01  0.11495109698E+02  0.51100000000E-03 0. -1.
        -11    1    3    3    0    0  0.21163895057E+02  0.54923000472E+01  0.35252967751E+02  0.41483099562E+02  0.51100000000E-03 0.  1.
        -12    1    3    3    0    0 -0.52786353250E+01 -0.83541924820E+00  0.33805516329E+01  0.63237683036E+01  0.00000000000E+00 0.  1.
</event>
<event>
 7    1  0.7578565E-012  0.5930190E+02  0.7816164E-02  0.1266605E+00
        -11   -1    0    0    0    0  0.00000000000E+00  0.00000000000E+00  0.45593999997E+02  0.45594000000E+02  0.51100000000E-03 0. -1.
         11   -1    0    0    0    0 -0.00000000000E+00 -0.00000000000E+00 -0.45593999997E+02  0.45594000000E+02  0.51100000000E-03 0.  1.
    9900012    2    1    2    0    0  0.96769094249E+01 -0.65743125509E+00 -0.30375129580E+02  0.59301901322E+02  0.49999922116E+02 0.  0.
         12    1    1    2    0    0 -0.96769094249E+01  0.65743125509E+00  0.30375129580E+02  0.31886098678E+02  0.00000000000E+00 0. -1.
         11    1    3    3    0    0 -0.38536145726E+01  0.16322870726E+02 -0.13750666419E+02  0.21687952444E+02  0.51100000000E-03 0.  1.
        -11    1    3    3    0    0  0.18008450547E+02 -0.17749426917E+02 -0.19762512652E+02  0.32092107341E+02  0.51100000000E-03 0. -1.
         12    1    3    3    0    0 -0.44779265497E+01  0.76912493595E+00  0.31380494910E+01  0.55218415369E+01  0.00000000000E+00 0. -1.
</event>
<event>
 7    1  0.7578565E-012  0.5930195E+02  0.7816164E-02  0.1266605E+00
        -11   -1    0    0    0    0  0.00000000000E+00  0.00000000000E+00  0.45593999997E+02  0.45594000000E+02  0.51100000000E-03 0.  1.
         11   -1    0    0    0    0 -0.00000000000E+00 -0.00000000000E+00 -0.45593999997E+02  0.45594000000E+02  0.51100000000E-03 0. -1.
    9900012    2    1    2    0    0 -0.37038304230E+01 -0.23035784136E+02  0.21733716329E+02  0.59301950762E+02  0.50000012281E+02 0.  0.
         12    1    1    2    0    0  0.37038304230E+01  0.23035784136E+02 -0.21733716329E+02  0.31886049238E+02  0.00000000000E+00 0. -1.
         11    1    3    3    0    0  0.18086215317E+01 -0.26333452551E+02  0.12313714010E+02  0.29126437957E+02  0.51100000000E-03 0. -1.
        -11    1    3    3    0    0  0.95735044423E+01  0.50386341350E+01 -0.22171275050E+01  0.11043345321E+02  0.51100000000E-03 0.  1.
        -12    1    3    3    0    0 -0.15085956397E+02 -0.17409657198E+01  0.11637129824E+02  0.19132167483E+02  0.00000000000E+00 0.  1.
</event>
<event>
 7    1  0.7578565E-012  0.5930193E+02  0.7816164E-02  0.1266605E+00
        -11   -1    0    0    0    0  0.00000000000E+00  0.00000000000E+00  0.45593999997E+02  0.45594000000E+02  0.51100000000E-03 0.  1.
         11   -1    0    0    0    0 -0.00000000000E+00 -0.00000000000E+00 -0.45593999997E+02  0.45594000000E+02  0.51100000000E-03 0. -1.
    9900012    2    1    2    0    0 -0.21218059760E+01  0.19432754618E+02  0.25191023440E+02  0.59301926636E+02  0.49999968281E+02 0.  0.
         12    1    1    2    0    0  0.21218059760E+01 -0.19432754618E+02 -0.25191023440E+02  0.31886073364E+02  0.00000000000E+00 0. -1.
         11    1    3    3    0    0 -0.17203313826E+02  0.16497570334E+02  0.31646175993E+02  0.39618231773E+02  0.51100000000E-03 0. -1.
        -11    1    3    3    0    0  0.16720458108E+02  0.27276214621E+01 -0.59548967160E+01  0.17957573148E+02  0.51100000000E-03 0.  1.
         12    1    3    3    0    0 -0.16389502582E+01  0.20756282145E+00 -0.50025583707E+00  0.17261217154E+01  0.00000000000E+00 0. -1.
</event>
<event>
 7    1  0.7578565E-012  0.5930199E+02  0.7816164E-02  0.1266605E+00
        -11   -1    0    0    0    0  0.00000000000E+00  0.00000000000E+00  0.45593999997E+02  0.45594000000E+02  0.51100000000E-03 0.  1.
         11   -1    0    0    0    0 -0.00000000000E+00 -0.00000000000E+00 -0.45593999997E+02  0.45594000000E+02  0.51100000000E-03 0. -1.
    9900012    2    1    2    0    0  0.17292001163E+02 -0.26048602132E+02  0.62589747206E+01  0.59301988305E+02  0.50000080751E+02 0.  0.
         12    1    1    2    0    0 -0.17292001163E+02  0.26048602132E+02 -0.62589747206E+01  0.31886011695E+02  0.00000000000E+00 0. -1.
         11    1    3    3    0    0  0.20981210341E+01 -0.26007856832E+02  0.12449613064E+02  0.28910267978E+02  0.51100000000E-03 0. -1.
        -11    1    3    3    0    0  0.64819792640E+01  0.58927408873E+01 -0.14519632135E+02  0.16957599120E+02  0.51100000000E-03 0.  1.
        -12    1    3    3    0    0  0.87119008646E+01 -0.59334861873E+01  0.83289937912E+01  0.13434121206E+02  0.00000000000E+00 0.  1.
</event>
<event>
 7    1  0.7578565E-012  0.5930191E+02  0.7816164E-02  0.1266605E+00
        -11   -1    0    0    0    0  0.00000000000E+00  0.00000000000E+00  0.45593999997E+02  0.45594000000E+02  0.51100000000E-03 0. -1.
         11   -1    0    0    0    0 -0.00000000000E+00 -0.00000000000E+00 -0.45593999997E+02  0.45594000000E+02  0.51100000000E-03 0.  1.
    9900012    2    1    2    0    0 -0.27505301187E+02 -0.81757297082E+01 -0.13904635583E+02  0.59301905219E+02  0.49999929223E+02 0.  0.
         12    1    1    2    0    0  0.27505301187E+02  0.81757297082E+01  0.13904635583E+02  0.31886094781E+02  0.00000000000E+00 0. -1.
         11    1    3    3    0    0 -0.38312490307E+02 -0.11629168427E+02 -0.16184518334E+01  0.40071234800E+02  0.51100000000E-03 0. -1.
        -11    1    3    3    0    0  0.51937804509E+01 -0.31216487923E+01 -0.40381870603E+01  0.72819641272E+01  0.51100000000E-03 0.  1.
         12    1    3    3    0    0  0.56134086691E+01  0.65750875108E+01 -0.82479966898E+01  0.11948706292E+02  0.00000000000E+00 0. -1.
</event>
<event>
 7    1  0.7578565E-012  0.5930195E+02  0.7816164E-02  0.1266605E+00
        -11   -1    0    0    0    0  0.00000000000E+00  0.00000000000E+00  0.45593999997E+02  0.45594000000E+02  0.51100000000E-03 0.  1.
         11   -1    0    0    0    0 -0.00000000000E+00 -0.00000000000E+00 -0.45593999997E+02  0.45594000000E+02  0.51100000000E-03 0. -1.
    9900012    2    1    2    0    0  0.29036471339E+02  0.12722388762E+02 -0.34269942919E+01  0.59301950801E+02  0.50000012353E+02 0.  0.
         12    1    1    2    0    0 -0.29036471339E+02 -0.12722388762E+02  0.34269942919E+01  0.31886049199E+02  0.00000000000E+00 0. -1.
         11    1    3    3    0    0  0.83263801616E+01 -0.27445843617E+01 -0.20744658544E+02  0.22521150243E+02  0.51100000000E-03 0. -1.
        -11    1    3    3    0    0 -0.35045835428E+01  0.33757993661E+01  0.52146251876E+01  0.71323518756E+01  0.51100000000E-03 0.  1.
         12    1    3    3    0    0  0.24214674721E+02  0.12091173757E+02  0.12103039064E+02  0.29648448682E+02  0.00000000000E+00 0. -1.
</event>
<event>
 7    1  0.7578565E-012  0.5930195E+02  0.7816164E-02  0.1266605E+00
        -11   -1    0    0    0    0  0.00000000000E+00  0.00000000000E+00  0.45593999997E+02  0.45594000000E+02  0.51100000000E-03 0.  1.
         11   -1    0    0    0    0 -0.00000000000E+00 -0.00000000000E+00 -0.45593999997E+02  0.45594000000E+02  0.51100000000E-03 0. -1.
    9900012    2    1    2    0    0 -0.28109463805E+02 -0.13634195397E+02  0.63786223875E+01  0.59301951905E+02  0.50000014366E+02 0.  0.
         12    1    1    2    0    0  0.28109463805E+02  0.13634195397E+02 -0.63786223875E+01  0.31886048095E+02  0.00000000000E+00 0. -1.
         11    1    3    3    0    0  0.11898502268E+02  0.28050696236E+01  0.99991531212E+01  0.15793221179E+02  0.51100000000E-03 0. -1.
        -11    1    3    3    0    0 -0.23250444818E+02 -0.83968280363E+01 -0.10311131416E+01  0.24741727908E+02  0.51100000000E-03 0.  1.
         12    1    3    3    0    0 -0.16757521256E+02 -0.80424369845E+01 -0.25894175921E+01  0.18767002818E+02  0.00000000000E+00 0. -1.
</event>
<event>
 7    1  0.7578565E-012  0.5930195E+02  0.7816164E-02  0.1266605E+00
        -11   -1    0    0    0    0  0.00000000000E+00  0.00000000000E+00  0.45593999997E+02  0.45594000000E+02  0.51100000000E-03 0. -1.
         11   -1    0    0    0    0 -0.00000000000E+00 -0.00000000000E+00 -0.45593999997E+02  0.45594000000E+02  0.51100000000E-03 0.  1.
    9900012    2    1    2    0    0 -0.10966459827E+02 -0.22348228715E+02 -0.19925199424E+02  0.59301950700E+02  0.50000012169E+02 0.  0.
         12    1    1    2    0    0  0.10966459827E+02  0.22348228715E+02  0.19925199424E+02  0.31886049300E+02  0.00000000000E+00 0. -1.
         11    1    3    3    0    0 -0.75792755512E+01  0.11046924573E+02 -0.32372337895E+01  0.13782584782E+02  0.51100000000E-03 0. -1.
        -11    1    3    3    0    0 -0.29386954281E+01 -0.33516118343E+02 -0.52261991828E+01  0.34048190521E+02  0.51100000000E-03 0.  1.
        -12    1    3    3    0    0 -0.44848884819E+00  0.12096505462E+00 -0.11461766452E+02  0.11471175397E+02  0.00000000000E+00 0.  1.
</event>
<event>
 7    1  0.7578565E-012  0.5930194E+02  0.7816164E-02  0.1266605E+00
        -11   -1    0    0    0    0  0.00000000000E+00  0.00000000000E+00  0.45593999997E+02  0.45594000000E+02  0.51100000000E-03 0. -1.
         11   -1    0    0    0    0 -0.00000000000E+00 -0.00000000000E+00 -0.45593999997E+02  0.45594000000E+02  0.51100000000E-03 0.  1.
    9900012    2    1    2    0    0  0.23573337666E+02 -0.61785930073E+01 -0.20563167015E+02  0.59301935678E+02  0.49999984772E+02 0.  0.
         12    1    1    2    0    0 -0.23573337666E+02  0.61785930073E+01  0.20563167015E+02  0.31886064322E+02  0.00000000000E+00 0. -1.
         11    1    3    3    0    0 -0.52124815810E+01  0.48490516078E+00  0.74860294231E+01  0.91348636570E+01  0.51100000000E-03 0. -1.
        -11    1    3    3    0    0  0.29156808895E+02 -0.31934557035E+01 -0.88269221931E+01  0.30630576553E+02  0.51100000000E-03 0.  1.
        -12    1    3    3    0    0 -0.37098964853E+00 -0.34700424646E+01 -0.19222274245E+02  0.19536495468E+02  0.00000000000E+00 0.  1.
</event>
<event>
 7    1  0.7578565E-012  0.5930195E+02  0.7816164E-02  0.1266605E+00
        -11   -1    0    0    0    0  0.00000000000E+00  0.00000000000E+00  0.45593999997E+02  0.45594000000E+02  0.51100000000E-03 0. -1.
         11   -1    0    0    0    0 -0.00000000000E+00 -0.00000000000E+00 -0.45593999997E+02  0.45594000000E+02  0.51100000000E-03 0.  1.
    9900012    2    1    2    0    0  0.14921051229E+02  0.22105052341E+02 -0.17477098334E+02  0.59301951719E+02  0.50000014028E+02 0.  0.
         12    1    1    2    0    0 -0.14921051229E+02 -0.22105052341E+02  0.17477098334E+02  0.31886048281E+02  0.00000000000E+00 0. -1.
         11    1    3    3    0    0 -0.10972168756E+02 -0.18318867581E+01  0.82365203388E+01  0.13841407582E+02  0.51100000000E-03 0. -1.
        -11    1    3    3    0    0  0.12341103825E+02  0.59478847109E+01 -0.42376412317E+01  0.14340075998E+02  0.51100000000E-03 0.  1.
         12    1    3    3    0    0  0.13552116160E+02  0.17989054388E+02 -0.21475977441E+02  0.31120468140E+02  0.00000000000E+00 0. -1.
</event>
<event>
 7    1  0.7578565E-012  0.5930203E+02  0.7816164E-02  0.1266604E+00
        -11   -1    0    0    0    0  0.00000000000E+00  0.00000000000E+00  0.45593999997E+02  0.45594000000E+02  0.51100000000E-03 0.  1.
         11   -1    0    0    0    0 -0.00000000000E+00 -0.00000000000E+00 -0.45593999997E+02  0.45594000000E+02  0.51100000000E-03 0. -1.
    9900012    2    1    2    0    0 -0.15369270457E+02 -0.25048027244E+01  0.27824927503E+02  0.59302029705E+02  0.50000156255E+02 0.  0.
         12    1    1    2    0    0  0.15369270457E+02  0.25048027244E+01 -0.27824927503E+02  0.31885970295E+02  0.00000000000E+00 0. -1.
         11    1    3    3    0    0  0.46667694109E+01  0.41453682356E+01  0.25716986667E+02  0.26463677334E+02  0.51100000000E-03 0.  1.
        -11    1    3    3    0    0 -0.25251344637E+01 -0.93217883684E+01 -0.79140941388E+01  0.12486189521E+02  0.51100000000E-03 0. -1.
        -12    1    3    3    0    0 -0.17510905405E+02  0.26716174085E+01  0.10022034975E+02  0.20352162851E+02  0.00000000000E+00 0.  1.
</event>
<event>
 7    1  0.7578565E-012  0.5930196E+02  0.7816164E-02  0.1266605E+00
        -11   -1    0    0    0    0  0.00000000000E+00  0.00000000000E+00  0.45593999997E+02  0.45594000000E+02  0.51100000000E-03 0. -1.
         11   -1    0    0    0    0 -0.00000000000E+00 -0.00000000000E+00 -0.45593999997E+02  0.45594000000E+02  0.51100000000E-03 0.  1.
    9900012    2    1    2    0    0  0.11409561615E+02  0.15523464186E+02 -0.25407946786E+02  0.59301956086E+02  0.50000021991E+02 0.  0.
         12    1    1    2    0    0 -0.11409561615E+02 -0.15523464186E+02  0.25407946786E+02  0.31886043914E+02  0.00000000000E+00 0. -1.
         11    1    3    3    0    0  0.19408336611E+02  0.71245776195E+00  0.56125860553E+01  0.20216138320E+02  0.51100000000E-03 0. -1.
        -11    1    3    3    0    0 -0.10174265579E+01  0.83529869110E+01 -0.27799113173E+02  0.29044762705E+02  0.51100000000E-03 0.  1.
        -12    1    3    3    0    0 -0.69813484383E+01  0.64580195133E+01 -0.32214196690E+01  0.10041055061E+02  0.00000000000E+00 0.  1.
</event>
<event>
 7    1  0.7578565E-012  0.5930192E+02  0.7816164E-02  0.1266605E+00
        -11   -1    0    0    0    0  0.00000000000E+00  0.00000000000E+00  0.45593999997E+02  0.45594000000E+02  0.51100000000E-03 0. -1.
         11   -1    0    0    0    0 -0.00000000000E+00 -0.00000000000E+00 -0.45593999997E+02  0.45594000000E+02  0.51100000000E-03 0.  1.
    9900012    2    1    2    0    0 -0.24773404802E+02 -0.19689623472E+02 -0.39139798803E+01  0.59301920021E+02  0.49999956217E+02 0.  0.
         12    1    1    2    0    0  0.24773404802E+02  0.19689623472E+02  0.39139798803E+01  0.31886079979E+02  0.00000000000E+00 0. -1.
         11    1    3    3    0    0  0.11521192459E+02 -0.78004729914E+01 -0.24786781181E+01  0.14132554618E+02  0.51100000000E-03 0. -1.
        -11    1    3    3    0    0 -0.18133331490E+02  0.84333858891E+00  0.94466277368E+01  0.20463814570E+02  0.51100000000E-03 0.  1.
        -12    1    3    3    0    0 -0.18161265771E+02 -0.12732489069E+02 -0.10881929499E+02  0.24705550832E+02  0.00000000000E+00 0.  1.
</event>
<event>
 7    1  0.7578565E-012  0.5930205E+02  0.7816164E-02  0.1266604E+00
        -11   -1    0    0    0    0  0.00000000000E+00  0.00000000000E+00  0.45593999997E+02  0.45594000000E+02  0.51100000000E-03 0.  1.
         11   -1    0    0    0    0 -0.00000000000E+00 -0.00000000000E+00 -0.45593999997E+02  0.45594000000E+02  0.51100000000E-03 0. -1.
    9900012    2    1    2    0    0 -0.28592749553E+02  0.39388899061E+01  0.13551890606E+02  0.59302048239E+02  0.50000190056E+02 0.  0.
         12    1    1    2    0    0  0.28592749553E+02 -0.39388899061E+01 -0.13551890606E+02  0.31885951761E+02  0.00000000000E+00 0. -1.
         11    1    3    3    0    0 -0.11829613086E+02 -0.73718508910E+00 -0.76213521395E+01  0.14091422792E+02  0.51100000000E-03 0. -1.
        -11    1    3    3    0    0 -0.17965547357E+02  0.99232628680E+01  0.29111659506E+02  0.35619106632E+02  0.51100000000E-03 0.  1.
        -12    1    3    3    0    0  0.12024108889E+01 -0.52471878728E+01 -0.79384167605E+01  0.95915188151E+01  0.00000000000E+00 0.  1.
</event>
<event>
 7    1  0.7578565E-012  0.5930194E+02  0.7816164E-02  0.1266605E+00
        -11   -1    0    0    0    0  0.00000000000E+00  0.00000000000E+00  0.45593999997E+02  0.45594000000E+02  0.51100000000E-03 0.  1.
         11   -1    0    0    0    0 -0.00000000000E+00 -0.00000000000E+00 -0.45593999997E+02  0.45594000000E+02  0.51100000000E-03 0. -1.
    9900012    2    1    2    0    0  0.10894207244E+02  0.28290244499E+02  0.98842826696E+01  0.59301941460E+02  0.49999995318E+02 0.  0.
         12    1    1    2    0    0 -0.10894207244E+02 -0.28290244499E+02 -0.98842826696E+01  0.31886058540E+02  0.00000000000E+00 0. -1.
         11    1    3    3    0    0  0.23425945456E+02  0.91489671313E+01  0.49826562588E+01  0.25637967621E+02  0.51100000000E-03 0. -1.
        -11    1    3    3    0    0 -0.16016258011E+02  0.17203469818E+02  0.11335015163E+02  0.26095257490E+02  0.51100000000E-03 0.  1.
        -12    1    3    3    0    0  0.34845197995E+01  0.19378075497E+01 -0.64333887520E+01  0.75687163487E+01  0.00000000000E+00 0.  1.
</event>
<event>
 7    1  0.7578565E-012  0.5930195E+02  0.7816164E-02  0.1266605E+00
        -11   -1    0    0    0    0  0.00000000000E+00  0.00000000000E+00  0.45593999997E+02  0.45594000000E+02  0.51100000000E-03 0.  1.
         11   -1    0    0    0    0 -0.00000000000E+00 -0.00000000000E+00 -0.45593999997E+02  0.45594000000E+02  0.51100000000E-03 0. -1.
    9900012    2    1    2    0    0  0.25819157879E+02  0.80426068376E-01 -0.18710559148E+02  0.59301946535E+02  0.50000004573E+02 0.  0.
         12    1    1    2    0    0 -0.25819157879E+02 -0.80426068376E-01  0.18710559148E+02  0.31886053465E+02  0.00000000000E+00 0. -1.
         11    1    3    3    0    0  0.58838124940E+01 -0.24788404194E+01 -0.23175754516E+02  0.24039124297E+02  0.51100000000E-03 0. -1.
        -11    1    3    3    0    0  0.20943911794E+02 -0.67601756159E+01  0.10218198317E+02  0.24264356425E+02  0.51100000000E-03 0.  1.
        -12    1    3    3    0    0 -0.10085664091E+01  0.93194421037E+01 -0.57530029494E+01  0.10998465814E+02  0.00000000000E+00 0.  1.
</event>
<event>
 7    1  0.7578565E-012  0.5930176E+02  0.7816164E-02  0.1266605E+00
        -11   -1    0    0    0    0  0.00000000000E+00  0.00000000000E+00  0.45593999997E+02  0.45594000000E+02  0.51100000000E-03 0.  1.
         11   -1    0    0    0    0 -0.00000000000E+00 -0.00000000000E+00 -0.45593999997E+02  0.45594000000E+02  0.51100000000E-03 0. -1.
    9900012    2    1    2    0    0 -0.22727802476E+02  0.17342584158E+02  0.14121396650E+02  0.59301763565E+02  0.49999670878E+02 0.  0.
         12    1    1    2    0    0  0.22727802476E+02 -0.17342584158E+02 -0.14121396650E+02  0.31886236435E+02  0.00000000000E+00 0. -1.
         11    1    3    3    0    0 -0.25286215504E+02  0.92872511352E+01 -0.11630031234E+02  0.29341154629E+02  0.51100000000E-03 0. -1.
        -11    1    3    3    0    0 -0.10369749315E+01  0.71338042065E+01  0.47483718491E+01  0.86321211150E+01  0.51100000000E-03 0.  1.
         12    1    3    3    0    0  0.35953879598E+01  0.92152881611E+00  0.21003056035E+02  0.21328487822E+02  0.00000000000E+00 0. -1.
</event>
<event>
 7    1  0.7578565E-012  0.5930195E+02  0.7816164E-02  0.1266605E+00
        -11   -1    0    0    0    0  0.00000000000E+00  0.00000000000E+00  0.45593999997E+02  0.45594000000E+02  0.51100000000E-03 0.  1.
         11   -1    0    0    0    0 -0.00000000000E+00 -0.00000000000E+00 -0.45593999997E+02  0.45594000000E+02  0.51100000000E-03 0. -1.
    9900012    2    1    2    0    0  0.27794107381E+01 -0.31409045153E+02 -0.47399033545E+01  0.59301954066E+02  0.50000018308E+02 0.  0.
         12    1    1    2    0    0 -0.27794107381E+01  0.31409045153E+02  0.47399033545E+01  0.31886045934E+02  0.00000000000E+00 0. -1.
         11    1    3    3    0    0  0.10470067674E+02 -0.38176663137E+02  0.61429848576E+00  0.39591126382E+02  0.51100000000E-03 0. -1.
        -11    1    3    3    0    0 -0.88187932305E+01 -0.28030202461E+01 -0.35229810071E+01  0.99014863521E+01  0.51100000000E-03 0.  1.
         12    1    3    3    0    0  0.11281362947E+01  0.95706382298E+01 -0.18312208332E+01  0.98093413319E+01  0.00000000000E+00 0. -1.
</event>
<event>
 7    1  0.7578565E-012  0.5930194E+02  0.7816164E-02  0.1266605E+00
        -11   -1    0    0    0    0  0.00000000000E+00  0.00000000000E+00  0.45593999997E+02  0.45594000000E+02  0.51100000000E-03 0.  1.
         11   -1    0    0    0    0 -0.00000000000E+00 -0.00000000000E+00 -0.45593999997E+02  0.45594000000E+02  0.51100000000E-03 0. -1.
    9900012    2    1    2    0    0  0.53361567701E+01  0.31220628434E+02 -0.36767876270E+01  0.59301937588E+02  0.49999988255E+02 0.  0.
         12    1    1    2    0    0 -0.53361567701E+01 -0.31220628434E+02  0.36767876270E+01  0.31886062412E+02  0.00000000000E+00 0. -1.
         11    1    3    3    0    0 -0.84475665257E+01 -0.44015523144E+01 -0.22685905172E+01  0.97919122841E+01  0.51100000000E-03 0. -1.
        -11    1    3    3    0    0 -0.35241645566E+00  0.32411234669E+02  0.64085280228E+01  0.33040604743E+02  0.51100000000E-03 0.  1.
         12    1    3    3    0    0  0.14136139751E+02  0.32109460803E+01 -0.78167251326E+01  0.16469420561E+02  0.00000000000E+00 0. -1.
</event>
<event>
 7    1  0.7578565E-012  0.5930195E+02  0.7816164E-02  0.1266605E+00
        -11   -1    0    0    0    0  0.00000000000E+00  0.00000000000E+00  0.45593999997E+02  0.45594000000E+02  0.51100000000E-03 0.  1.
         11   -1    0    0    0    0 -0.00000000000E+00 -0.00000000000E+00 -0.45593999997E+02  0.45594000000E+02  0.51100000000E-03 0. -1.
    9900012    2    1    2    0    0 -0.30658623579E+02 -0.41707501709E-02  0.87617818572E+01  0.59301952291E+02  0.50000015070E+02 0.  0.
         12    1    1    2    0    0  0.30658623579E+02  0.41707501709E-02 -0.87617818572E+01  0.31886047709E+02  0.00000000000E+00 0. -1.
         11    1    3    3    0    0  0.77932963212E+01 -0.11178122056E+01  0.30286201749E+01  0.84354912188E+01  0.51100000000E-03 0. -1.
        -11    1    3    3    0    0 -0.25523267454E+02  0.12251734101E+02 -0.74813912057E+01  0.29283329467E+02  0.51100000000E-03 0.  1.
        -12    1    3    3    0    0 -0.12928652446E+02 -0.11138092646E+02  0.13214552888E+02  0.21583131606E+02  0.00000000000E+00 0.  1.
</event>
<event>
 7    1  0.7578565E-012  0.5930194E+02  0.7816164E-02  0.1266605E+00
        -11   -1    0    0    0    0  0.00000000000E+00  0.00000000000E+00  0.45593999997E+02  0.45594000000E+02  0.51100000000E-03 0.  1.
         11   -1    0    0    0    0 -0.00000000000E+00 -0.00000000000E+00 -0.45593999997E+02  0.45594000000E+02  0.51100000000E-03 0. -1.
    9900012    2    1    2    0    0  0.71833743039E+01  0.25155534338E+02  0.18229615369E+02  0.59301942691E+02  0.49999997562E+02 0.  0.
         12    1    1    2    0    0 -0.71833743039E+01 -0.25155534338E+02 -0.18229615369E+02  0.31886057309E+02  0.00000000000E+00 0. -1.
         11    1    3    3    0    0  0.87407827885E+01 -0.13502577016E+02  0.68377161222E+01  0.17477849750E+02  0.51100000000E-03 0. -1.
        -11    1    3    3    0    0 -0.17335803091E+01  0.74519432732E+01  0.68867991054E+01  0.10293918662E+02  0.51100000000E-03 0.  1.
         12    1    3    3    0    0  0.17617182446E+00  0.31206168081E+02  0.45051001415E+01  0.31530174280E+02  0.00000000000E+00 0. -1.
</event>
<event>
 7    1  0.7578565E-012  0.5930194E+02  0.7816164E-02  0.1266605E+00
        -11   -1    0    0    0    0  0.00000000000E+00  0.00000000000E+00  0.45593999997E+02  0.45594000000E+02  0.51100000000E-03 0.  1.
         11   -1    0    0    0    0 -0.00000000000E+00 -0.00000000000E+00 -0.45593999997E+02  0.45594000000E+02  0.51100000000E-03 0. -1.
    9900012    2    1    2    0    0  0.28774391237E+00  0.27173291657E+02  0.16680842144E+02  0.59301936105E+02  0.49999985551E+02 0.  0.
         12    1    1    2    0    0 -0.28774391237E+00 -0.27173291657E+02 -0.16680842144E+02  0.31886063895E+02  0.00000000000E+00 0. -1.
         11    1    3    3    0    0  0.57656464089E+01  0.30713099978E+02  0.19037779445E+02  0.36591996874E+02  0.51100000000E-03 0. -1.
        -11    1    3    3    0    0 -0.92931247902E+01  0.59334552139E+01 -0.50810058471E+01  0.12140209217E+02  0.51100000000E-03 0.  1.
         12    1    3    3    0    0  0.38152222937E+01 -0.94732635344E+01  0.27240685460E+01  0.10569730015E+02  0.00000000000E+00 0. -1.
</event>
<event>
 7    1  0.7578565E-012  0.5930194E+02  0.7816164E-02  0.1266605E+00
        -11   -1    0    0    0    0  0.00000000000E+00  0.00000000000E+00  0.45593999997E+02  0.45594000000E+02  0.51100000000E-03 0.  1.
         11   -1    0    0    0    0 -0.00000000000E+00 -0.00000000000E+00 -0.45593999997E+02  0.45594000000E+02  0.51100000000E-03 0. -1.
    9900012    2    1    2    0    0 -0.20772386899E+02 -0.12697594285E+02  0.20591255785E+02  0.59301940775E+02  0.49999994067E+02 0.  0.
         12    1    1    2    0    0  0.20772386899E+02  0.12697594285E+02 -0.20591255785E+02  0.31886059225E+02  0.00000000000E+00 0. -1.
         11    1    3    3    0    0  0.80943266965E+01 -0.61438645409E-01  0.60279704077E+01  0.10092488636E+02  0.51100000000E-03 0. -1.
        -11    1    3    3    0    0 -0.33953932743E+02 -0.64512010203E+00  0.11158006279E+02  0.35746144310E+02  0.51100000000E-03 0.  1.
        -12    1    3    3    0    0  0.50872191482E+01 -0.11991035538E+02  0.34052790986E+01  0.13463307828E+02  0.00000000000E+00 0.  1.
</event>
<event>
 7    1  0.7578565E-012  0.5930190E+02  0.7816164E-02  0.1266605E+00
        -11   -1    0    0    0    0  0.00000000000E+00  0.00000000000E+00  0.45593999997E+02  0.45594000000E+02  0.51100000000E-03 0. -1.
         11   -1    0    0    0    0 -0.00000000000E+00 -0.00000000000E+00 -0.45593999997E+02  0.45594000000E+02  0.51100000000E-03 0.  1.
    9900012    2    1    2    0    0 -0.29512366445E+02  0.20146890362E+01 -0.11903129734E+02  0.59301902049E+02  0.49999923441E+02 0.  0.
         12    1    1    2    0    0  0.29512366445E+02 -0.20146890362E+01  0.11903129734E+02  0.31886097951E+02  0.00000000000E+00 0. -1.
         11    1    3    3    0    0 -0.36590061441E+01  0.95438412157E+01 -0.25934996571E+02  0.27876464599E+02  0.51100000000E-03 0.  1.
        -11    1    3    3    0    0 -0.69217661004E+01  0.11405011337E+01  0.55369022062E+01  0.89369387984E+01  0.51100000000E-03 0. -1.
         12    1    3    3    0    0 -0.18931594200E+02 -0.86696533132E+01  0.84949646313E+01  0.22488498652E+02  0.00000000000E+00 0. -1.
</event>
<event>
 7    1  0.7578565E-012  0.5930196E+02  0.7816164E-02  0.1266605E+00
        -11   -1    0    0    0    0  0.00000000000E+00  0.00000000000E+00  0.45593999997E+02  0.45594000000E+02  0.51100000000E-03 0.  1.
         11   -1    0    0    0    0 -0.00000000000E+00 -0.00000000000E+00 -0.45593999997E+02  0.45594000000E+02  0.51100000000E-03 0. -1.
    9900012    2    1    2    0    0 -0.14252730820E+02  0.16273025384E+02  0.23425793196E+02  0.59301961082E+02  0.50000031104E+02 0.  0.
         12    1    1    2    0    0  0.14252730820E+02 -0.16273025384E+02 -0.23425793196E+02  0.31886038918E+02  0.00000000000E+00 0. -1.
         11    1    3    3    0    0 -0.24898973527E+02  0.21836533759E+02  0.10425258160E+02  0.34720010042E+02  0.51100000000E-03 0. -1.
        -11    1    3    3    0    0 -0.27277906652E+01  0.27922340557E-01  0.92003920400E+01  0.95962928009E+01  0.51100000000E-03 0.  1.
         12    1    3    3    0    0  0.13374033372E+02 -0.55914307160E+01  0.38001429956E+01  0.14985658240E+02  0.00000000000E+00 0. -1.
</event>
<event>
 7    1  0.7578565E-012  0.5930174E+02  0.7816164E-02  0.1266605E+00
        -11   -1    0    0    0    0  0.00000000000E+00  0.00000000000E+00  0.45593999997E+02  0.45594000000E+02  0.51100000000E-03 0.  1.
         11   -1    0    0    0    0 -0.00000000000E+00 -0.00000000000E+00 -0.45593999997E+02  0.45594000000E+02  0.51100000000E-03 0. -1.
    9900012    2    1    2    0    0 -0.11251971007E+02  0.29636740435E+02  0.34336646896E+01  0.59301744523E+02  0.49999636149E+02 0.  0.
         12    1    1    2    0    0  0.11251971007E+02 -0.29636740435E+02 -0.34336646896E+01  0.31886255477E+02  0.00000000000E+00 0. -1.
         11    1    3    3    0    0  0.11237660813E+01  0.57184258217E+01 -0.18486166482E+02  0.19383023385E+02  0.51100000000E-03 0. -1.
        -11    1    3    3    0    0 -0.25706753291E+01  0.16755096162E+00  0.12164196379E+02  0.12433990461E+02  0.51100000000E-03 0.  1.
         12    1    3    3    0    0 -0.98050617593E+01  0.23750763652E+02  0.97556347925E+01  0.27484730676E+02  0.00000000000E+00 0. -1.
</event>
<event>
 7    1  0.7578565E-012  0.5930197E+02  0.7816164E-02  0.1266605E+00
        -11   -1    0    0    0    0  0.00000000000E+00  0.00000000000E+00  0.45593999997E+02  0.45594000000E+02  0.51100000000E-03 0. -1.
         11   -1    0    0    0    0 -0.00000000000E+00 -0.00000000000E+00 -0.45593999997E+02  0.45594000000E+02  0.51100000000E-03 0.  1.
    9900012    2    1    2    0    0 -0.25377631541E+02 -0.19065002110E+02  0.30364849796E+01  0.59301972823E+02  0.50000052515E+02 0.  0.
         12    1    1    2    0    0  0.25377631541E+02  0.19065002110E+02 -0.30364849796E+01  0.31886027177E+02  0.00000000000E+00 0. -1.
         11    1    3    3    0    0  0.80619416206E+01 -0.67404057423E+01 -0.97124792875E+01  0.14309445357E+02  0.51100000000E-03 0. -1.
        -11    1    3    3    0    0 -0.37245287616E+02 -0.11546210288E+02  0.12989650501E+02  0.41100577149E+02  0.51100000000E-03 0.  1.
        -12    1    3    3    0    0  0.38057144542E+01 -0.77838608062E+00 -0.24068623388E+00  0.38919503158E+01  0.00000000000E+00 0.  1.
</event>
<event>
 7    1  0.7578565E-012  0.5930194E+02  0.7816164E-02  0.1266605E+00
        -11   -1    0    0    0    0  0.00000000000E+00  0.00000000000E+00  0.45593999997E+02  0.45594000000E+02  0.51100000000E-03 0.  1.
         11   -1    0    0    0    0 -0.00000000000E+00 -0.00000000000E+00 -0.45593999997E+02  0.45594000000E+02  0.51100000000E-03 0. -1.
    9900012    2    1    2    0    0 -0.28758306876E+02  0.13726149822E+02  0.11284971152E+01  0.59301938641E+02  0.49999990175E+02 0.  0.
         12    1    1    2    0    0  0.28758306876E+02 -0.13726149822E+02 -0.11284971152E+01  0.31886061359E+02  0.00000000000E+00 0. -1.
         11    1    3    3    0    0 -0.11257198037E+02 -0.83381546461E+01 -0.19645750460E+02  0.24128921276E+02  0.51100000000E-03 0. -1.
        -11    1    3    3    0    0 -0.13460502563E+01  0.36267589241E+01  0.28824098925E+01  0.48242635330E+01  0.51100000000E-03 0.  1.
         12    1    3    3    0    0 -0.16155058583E+02  0.18437545544E+02  0.17891837683E+02  0.30348753832E+02  0.00000000000E+00 0. -1.
</event>
<event>
 7    1  0.7578565E-012  0.5930195E+02  0.7816164E-02  0.1266605E+00
        -11   -1    0    0    0    0  0.00000000000E+00  0.00000000000E+00  0.45593999997E+02  0.45594000000E+02  0.51100000000E-03 0.  1.
         11   -1    0    0    0    0 -0.00000000000E+00 -0.00000000000E+00 -0.45593999997E+02  0.45594000000E+02  0.51100000000E-03 0. -1.
    9900012    2    1    2    0    0 -0.73908698124E+01  0.30839546912E+02 -0.33192797519E+01  0.59301949313E+02  0.50000009640E+02 0.  0.
         12    1    1    2    0    0  0.73908698124E+01 -0.30839546912E+02  0.33192797519E+01  0.31886050687E+02  0.00000000000E+00 0. -1.
         11    1    3    3    0    0 -0.25322562732E+01 -0.17650853304E+01  0.80562767056E+01  0.86273659176E+01  0.51100000000E-03 0. -1.
        -11    1    3    3    0    0  0.66077679295E+01  0.21316010296E+02 -0.22044091013E+02  0.31368405136E+02  0.51100000000E-03 0.  1.
        -12    1    3    3    0    0 -0.11466381469E+02  0.11288621947E+02  0.10668534555E+02  0.19306178260E+02  0.00000000000E+00 0.  1.
</event>
<event>
 7    1  0.7578565E-012  0.5930195E+02  0.7816164E-02  0.1266605E+00
        -11   -1    0    0    0    0  0.00000000000E+00  0.00000000000E+00  0.45593999997E+02  0.45594000000E+02  0.51100000000E-03 0. -1.
         11   -1    0    0    0    0 -0.00000000000E+00 -0.00000000000E+00 -0.45593999997E+02  0.45594000000E+02  0.51100000000E-03 0.  1.
    9900012    2    1    2    0    0 -0.29943228350E+02 -0.10243276712E+02 -0.38985689367E+01  0.59301945343E+02  0.50000002399E+02 0.  0.
         12    1    1    2    0    0  0.29943228350E+02  0.10243276712E+02  0.38985689367E+01  0.31886054657E+02  0.00000000000E+00 0. -1.
         11    1    3    3    0    0  0.43455339453E+00 -0.21177496292E+01  0.50138211183E+01  0.54600460266E+01  0.51100000000E-03 0. -1.
        -11    1    3    3    0    0 -0.28255643199E+02 -0.23765220252E+02 -0.92237759552E+01  0.38055815710E+02  0.51100000000E-03 0.  1.
        -12    1    3    3    0    0 -0.21221385456E+01  0.15639693170E+02  0.31138590012E+00  0.15786083606E+02  0.00000000000E+00 0.  1.
</event>
<event>
 7    1  0.7578565E-012  0.5930201E+02  0.7816164E-02  0.1266605E+00
        -11   -1    0    0    0    0  0.00000000000E+00  0.00000000000E+00  0.45593999997E+02  0.45594000000E+02  0.51100000000E-03 0. -1.
         11   -1    0    0    0    0 -0.00000000000E+00 -0.00000000000E+00 -0.45593999997E+02  0.45594000000E+02  0.51100000000E-03 0.  1.
    9900012    2    1    2    0    0  0.17296449734E+02 -0.10139049267E+02 -0.24794128551E+02  0.59302010851E+02  0.50000121869E+02 0.  0.
         12    1    1    2    0    0 -0.17296449734E+02  0.10139049267E+02  0.24794128551E+02  0.31885989149E+02  0.00000000000E+00 0. -1.
         11    1    3    3    0    0 -0.45574674998E+01  0.14026914530E+01 -0.75489625049E+00  0.48278278692E+01  0.51100000000E-03 0. -1.
        -11    1    3    3    0    0  0.80595194424E+01 -0.10992189980E+02 -0.34537990671E+02  0.37130269243E+02  0.51100000000E-03 0.  1.
        -12    1    3    3    0    0  0.13794397791E+02 -0.54955073979E+00  0.10498758371E+02  0.17343913738E+02  0.00000000000E+00 0.  1.
</event>
<event>
 7    1  0.7578565E-012  0.5930193E+02  0.7816164E-02  0.1266605E+00
        -11   -1    0    0    0    0  0.00000000000E+00  0.00000000000E+00  0.45593999997E+02  0.45594000000E+02  0.51100000000E-03 0. -1.
         11   -1    0    0    0    0 -0.00000000000E+00 -0.00000000000E+00 -0.45593999997E+02  0.45594000000E+02  0.51100000000E-03 0.  1.
    9900012    2    1    2    0    0  0.20491699659E+02  0.22596939993E+02 -0.92838724148E+01  0.59301925626E+02  0.49999966440E+02 0.  0.
         12    1    1    2    0    0 -0.20491699659E+02 -0.22596939993E+02  0.92838724148E+01  0.31886074374E+02  0.00000000000E+00 0. -1.
         11    1    3    3    0    0  0.23304652470E+02 -0.69635709312E+01  0.65960762574E+01  0.25201316813E+02  0.51100000000E-03 0. -1.
        -11    1    3    3    0    0 -0.27181228760E+01  0.26412457202E+02 -0.12095795419E+02  0.29177291760E+02  0.51100000000E-03 0.  1.
         12    1    3    3    0    0 -0.94829934216E-01  0.31480537225E+01 -0.37841532535E+01  0.49233170528E+01  0.00000000000E+00 0. -1.
</event>
<event>
 7    1  0.7578565E-012  0.5930188E+02  0.7816164E-02  0.1266605E+00
        -11   -1    0    0    0    0  0.00000000000E+00  0.00000000000E+00  0.45593999997E+02  0.45594000000E+02  0.51100000000E-03 0.  1.
         11   -1    0    0    0    0 -0.00000000000E+00 -0.00000000000E+00 -0.45593999997E+02  0.45594000000E+02  0.51100000000E-03 0. -1.
    9900012    2    1    2    0    0 -0.14909429484E+02  0.27324213896E+01  0.28052938282E+02  0.59301881383E+02  0.49999885751E+02 0.  0.
         12    1    1    2    0    0  0.14909429484E+02 -0.27324213896E+01 -0.28052938282E+02  0.31886118617E+02  0.00000000000E+00 0. -1.
         11    1    3    3    0    0  0.44894221131E+01 -0.45630666120E+01  0.83480126395E+00  0.64554923303E+01  0.51100000000E-03 0. -1.
        -11    1    3    3    0    0 -0.20574866390E+02  0.14738655651E+02  0.74334143526E+00  0.25320064259E+02  0.51100000000E-03 0.  1.
        -12    1    3    3    0    0  0.11760147924E+01 -0.74431676493E+01  0.26474795583E+02  0.27526324793E+02  0.00000000000E+00 0.  1.
</event>
<event>
 7    1  0.7578565E-012  0.5930186E+02  0.7816164E-02  0.1266605E+00
        -11   -1    0    0    0    0  0.00000000000E+00  0.00000000000E+00  0.45593999997E+02  0.45594000000E+02  0.51100000000E-03 0. -1.
         11   -1    0    0    0    0 -0.00000000000E+00 -0.00000000000E+00 -0.45593999997E+02  0.45594000000E+02  0.51100000000E-03 0.  1.
    9900012    2    1    2    0    0  0.10262532481E+02 -0.45967082635E+01 -0.29837508367E+02  0.59301855590E+02  0.49999838711E+02 0.  0.
         12    1    1    2    0    0 -0.10262532481E+02  0.45967082635E+01  0.29837508367E+02  0.31886144410E+02  0.00000000000E+00 0. -1.
         11    1    3    3    0    0  0.29164885171E+02 -0.76530768519E+01 -0.21222598547E+02  0.36872195509E+02  0.51100000000E-03 0. -1.
        -11    1    3    3    0    0 -0.62074968853E+01  0.44855627185E+01 -0.50245807246E+01  0.91596780621E+01  0.51100000000E-03 0.  1.
         12    1    3    3    0    0 -0.12694855805E+02 -0.14291941301E+01 -0.35903290956E+01  0.13269982019E+02  0.00000000000E+00 0. -1.
</event>
<event>
 7    1  0.7578565E-012  0.5930195E+02  0.7816164E-02  0.1266605E+00
        -11   -1    0    0    0    0  0.00000000000E+00  0.00000000000E+00  0.45593999997E+02  0.45594000000E+02  0.51100000000E-03 0.  1.
         11   -1    0    0    0    0 -0.00000000000E+00 -0.00000000000E+00 -0.45593999997E+02  0.45594000000E+02  0.51100000000E-03 0. -1.
    9900012    2    1    2    0    0 -0.18059137235E+02 -0.25362929557E+02  0.68781800408E+01  0.59301952987E+02  0.50000016340E+02 0.  0.
         12    1    1    2    0    0  0.18059137235E+02  0.25362929557E+02 -0.68781800408E+01  0.31886047013E+02  0.00000000000E+00 0. -1.
         11    1    3    3    0    0 -0.24562182553E+02 -0.71594144633E+01 -0.13944798989E+02  0.29137869625E+02  0.51100000000E-03 0. -1.
        -11    1    3    3    0    0  0.39920521412E+01 -0.18513278591E+02  0.19898353801E+02  0.27470392220E+02  0.51100000000E-03 0.  1.
         12    1    3    3    0    0  0.25109931761E+01  0.30976349694E+00  0.92462522871E+00  0.26936911420E+01  0.00000000000E+00 0. -1.
</event>
<event>
 7    1  0.7578565E-012  0.5930196E+02  0.7816164E-02  0.1266605E+00
        -11   -1    0    0    0    0  0.00000000000E+00  0.00000000000E+00  0.45593999997E+02  0.45594000000E+02  0.51100000000E-03 0.  1.
         11   -1    0    0    0    0 -0.00000000000E+00 -0.00000000000E+00 -0.45593999997E+02  0.45594000000E+02  0.51100000000E-03 0. -1.
    9900012    2    1    2    0    0  0.27111054253E+01  0.20128121262E+02  0.24581057623E+02  0.59301956783E+02  0.50000023262E+02 0.  0.
         12    1    1    2    0    0 -0.27111054253E+01 -0.20128121262E+02 -0.24581057623E+02  0.31886043217E+02  0.00000000000E+00 0. -1.
         11    1    3    3    0    0  0.31675159618E+01 -0.24402031363E+01 -0.15930713202E+01  0.43041404725E+01  0.51100000000E-03 0. -1.
        -11    1    3    3    0    0 -0.18583610575E+02  0.68244971733E+01  0.23670453471E+02  0.30857976464E+02  0.51100000000E-03 0.  1.
        -12    1    3    3    0    0  0.18127200038E+02  0.15743827225E+02  0.25036754720E+01  0.24139839846E+02  0.00000000000E+00 0.  1.
</event>
<event>
 7    1  0.7884178E-012  0.5930194E+02  0.7816164E-02  0.1266605E+00
        -11   -1    0    0    0    0  0.00000000000E+00  0.00000000000E+00  0.45593999997E+02  0.45594000000E+02  0.51100000000E-03 0. -1.
         11   -1    0    0    0    0 -0.00000000000E+00 -0.00000000000E+00 -0.45593999997E+02  0.45594000000E+02  0.51100000000E-03 0.  1.
    9900012    2    1    2    0    0 -0.41013990283E+01  0.28986210036E+02 -0.12637216216E+02  0.59301935961E+02  0.49999985288E+02 0.  0.
         12    1    1    2    0    0  0.41013990283E+01 -0.28986210036E+02  0.12637216216E+02  0.31886064039E+02  0.00000000000E+00 0. -1.
         11    1    3    3    0    0  0.18287227856E+01 -0.74858155004E+00 -0.23658469243E+02  0.23740845995E+02  0.51100000000E-03 0. -1.
        -11    1    3    3    0    0 -0.65254847731E+01  0.19251754409E+02 -0.15503875175E-01  0.20327622586E+02  0.51100000000E-03 0.  1.
         12    1    3    3    0    0  0.59536295918E+00  0.10483037176E+02  0.11036756902E+02  0.15233467380E+02  0.00000000000E+00 0. -1.
</event>
<event>
 7    1  0.7578565E-012  0.5930195E+02  0.7816164E-02  0.1266605E+00
        -11   -1    0    0    0    0  0.00000000000E+00  0.00000000000E+00  0.45593999997E+02  0.45594000000E+02  0.51100000000E-03 0. -1.
         11   -1    0    0    0    0 -0.00000000000E+00 -0.00000000000E+00 -0.45593999997E+02  0.45594000000E+02  0.51100000000E-03 0.  1.
    9900012    2    1    2    0    0  0.23888919622E+02 -0.20897006188E+02 -0.30585984277E+01  0.59301947051E+02  0.50000005514E+02 0.  0.
         12    1    1    2    0    0 -0.23888919622E+02  0.20897006188E+02  0.30585984277E+01  0.31886052949E+02  0.00000000000E+00 0. -1.
         11    1    3    3    0    0  0.49678883742E+01 -0.77067311039E+01  0.13268493702E+02  0.16128439001E+02  0.51100000000E-03 0. -1.
        -11    1    3    3    0    0  0.23820328110E+02  0.87013406328E+00 -0.15137208892E+02  0.28236505766E+02  0.51100000000E-03 0.  1.
        -12    1    3    3    0    0 -0.48992968627E+01 -0.14060409147E+02 -0.11898832377E+01  0.14937002285E+02  0.00000000000E+00 0.  1.
</event>
<event>
 7    1  0.7578565E-012  0.5930211E+02  0.7816164E-02  0.1266604E+00
        -11   -1    0    0    0    0  0.00000000000E+00  0.00000000000E+00  0.45593999997E+02  0.45594000000E+02  0.51100000000E-03 0.  1.
         11   -1    0    0    0    0 -0.00000000000E+00 -0.00000000000E+00 -0.45593999997E+02  0.45594000000E+02  0.51100000000E-03 0. -1.
    9900012    2    1    2    0    0  0.54194907051E+01  0.35670156691E+01  0.31218834692E+02  0.59302107825E+02  0.50000298726E+02 0.  0.
         12    1    1    2    0    0 -0.54194907051E+01 -0.35670156691E+01 -0.31218834692E+02  0.31885892175E+02  0.00000000000E+00 0. -1.
         11    1    3    3    0    0  0.20321351884E+02  0.52459172536E+01 -0.24175262540E+01  0.21126320638E+02  0.51100000000E-03 0. -1.
        -11    1    3    3    0    0 -0.85403038291E+01 -0.32959870385E+01  0.28213884435E+02  0.29661820498E+02  0.51100000000E-03 0.  1.
         12    1    3    3    0    0 -0.63615573502E+01  0.16170854540E+01  0.54224765105E+01  0.85139666896E+01  0.00000000000E+00 0. -1.
</event>
<event>
 7    1  0.7578565E-012  0.5930195E+02  0.7816164E-02  0.1266605E+00
        -11   -1    0    0    0    0  0.00000000000E+00  0.00000000000E+00  0.45593999997E+02  0.45594000000E+02  0.51100000000E-03 0.  1.
         11   -1    0    0    0    0 -0.00000000000E+00 -0.00000000000E+00 -0.45593999997E+02  0.45594000000E+02  0.51100000000E-03 0. -1.
    9900012    2    1    2    0    0 -0.19291969348E+02  0.20080872371E+02  0.15533799879E+02  0.59301945756E+02  0.50000003153E+02 0.  0.
         12    1    1    2    0    0  0.19291969348E+02 -0.20080872371E+02 -0.15533799879E+02  0.31886054244E+02  0.00000000000E+00 0. -1.
         11    1    3    3    0    0 -0.14935717823E+02  0.16501471712E+02 -0.99618614839E+01  0.24384686179E+02  0.51100000000E-03 0. -1.
        -11    1    3    3    0    0  0.64442250139E+01  0.91227512790E+01  0.15959692013E+02  0.19479845901E+02  0.51100000000E-03 0.  1.
        -12    1    3    3    0    0 -0.10800476539E+02 -0.55433506197E+01  0.95359693505E+01  0.15437413677E+02  0.00000000000E+00 0.  1.
</event>
<event>
 7    1  0.7578565E-012  0.5930196E+02  0.7816164E-02  0.1266605E+00
        -11   -1    0    0    0    0  0.00000000000E+00  0.00000000000E+00  0.45593999997E+02  0.45594000000E+02  0.51100000000E-03 0.  1.
         11   -1    0    0    0    0 -0.00000000000E+00 -0.00000000000E+00 -0.45593999997E+02  0.45594000000E+02  0.51100000000E-03 0. -1.
    9900012    2    1    2    0    0  0.11846068596E+02 -0.21596766390E+02  0.20247713636E+02  0.59301959682E+02  0.50000028549E+02 0.  0.
         12    1    1    2    0    0 -0.11846068596E+02  0.21596766390E+02 -0.20247713636E+02  0.31886040318E+02  0.00000000000E+00 0. -1.
         11    1    3    3    0    0 -0.98989064296E+01  0.72723230006E+01  0.17080819188E+02  0.21038759819E+02  0.51100000000E-03 0. -1.
        -11    1    3    3    0    0  0.55422138000E+01 -0.15697030926E+02 -0.19598002666E+01  0.16761674470E+02  0.51100000000E-03 0.  1.
         12    1    3    3    0    0  0.16202761225E+02 -0.13172058465E+02  0.51266947147E+01  0.21501525393E+02  0.00000000000E+00 0. -1.
</event>
<event>
 7    1  0.7578565E-012  0.5930194E+02  0.7816164E-02  0.1266605E+00
        -11   -1    0    0    0    0  0.00000000000E+00  0.00000000000E+00  0.45593999997E+02  0.45594000000E+02  0.51100000000E-03 0.  1.
         11   -1    0    0    0    0 -0.00000000000E+00 -0.00000000000E+00 -0.45593999997E+02  0.45594000000E+02  0.51100000000E-03 0. -1.
    9900012    2    1    2    0    0  0.29642557150E+02  0.30282218533E+01  0.11352057000E+02  0.59301944739E+02  0.50000001296E+02 0.  0.
         12    1    1    2    0    0 -0.29642557150E+02 -0.30282218533E+01 -0.11352057000E+02  0.31886055261E+02  0.00000000000E+00 0. -1.
         11    1    3    3    0    0  0.45068329232E+01 -0.19247260820E+02  0.15266931851E+02  0.24976945379E+02  0.51100000000E-03 0. -1.
        -11    1    3    3    0    0  0.10306776235E+02  0.54686784414E+01 -0.78671550816E+00  0.11694229423E+02  0.51100000000E-03 0.  1.
         12    1    3    3    0    0  0.14828947993E+02  0.16806804231E+02 -0.31281593431E+01  0.22630769936E+02  0.00000000000E+00 0. -1.
</event>
<event>
 7    1  0.7578565E-012  0.5930193E+02  0.7816164E-02  0.1266605E+00
        -11   -1    0    0    0    0  0.00000000000E+00  0.00000000000E+00  0.45593999997E+02  0.45594000000E+02  0.51100000000E-03 0. -1.
         11   -1    0    0    0    0 -0.00000000000E+00 -0.00000000000E+00 -0.45593999997E+02  0.45594000000E+02  0.51100000000E-03 0.  1.
    9900012    2    1    2    0    0 -0.29414967930E+02 -0.52117642635E+00 -0.12296722435E+02  0.59301931791E+02  0.49999977684E+02 0.  0.
         12    1    1    2    0    0  0.29414967930E+02  0.52117642635E+00  0.12296722435E+02  0.31886068209E+02  0.00000000000E+00 0. -1.
         11    1    3    3    0    0  0.12668733407E+02 -0.27034990530E+01 -0.10004353861E+01  0.12992558813E+02  0.51100000000E-03 0. -1.
        -11    1    3    3    0    0 -0.33633884255E+02  0.80975374479E+01 -0.85679747540E+01  0.35640124501E+02  0.51100000000E-03 0.  1.
        -12    1    3    3    0    0 -0.84498170825E+01 -0.59152148213E+01 -0.27283122950E+01  0.10669248478E+02  0.00000000000E+00 0.  1.
</event>
<event>
 7    1  0.7578565E-012  0.5930196E+02  0.7816164E-02  0.1266605E+00
        -11   -1    0    0    0    0  0.00000000000E+00  0.00000000000E+00  0.45593999997E+02  0.45594000000E+02  0.51100000000E-03 0.  1.
         11   -1    0    0    0    0 -0.00000000000E+00 -0.00000000000E+00 -0.45593999997E+02  0.45594000000E+02  0.51100000000E-03 0. -1.
    9900012    2    1    2    0    0 -0.25526497788E+02  0.14608201822E+02  0.12317388336E+02  0.59301957518E+02  0.50000024602E+02 0.  0.
         12    1    1    2    0    0  0.25526497788E+02 -0.14608201822E+02 -0.12317388336E+02  0.31886042482E+02  0.00000000000E+00 0. -1.
         11    1    3    3    0    0 -0.85298889829E+01  0.21850052055E+02  0.16743712545E+02  0.28819016134E+02  0.51100000000E-03 0. -1.
        -11    1    3    3    0    0 -0.20543867297E+02 -0.47973741784E+01  0.35733486387E+01  0.21397058286E+02  0.51100000000E-03 0.  1.
        -12    1    3    3    0    0  0.35472584925E+01 -0.24444760549E+01 -0.79996728480E+01  0.90858830980E+01  0.00000000000E+00 0.  1.
</event>
<event>
 7    1  0.7578565E-012  0.5930197E+02  0.7816164E-02  0.1266605E+00
        -11   -1    0    0    0    0  0.00000000000E+00  0.00000000000E+00  0.45593999997E+02  0.45594000000E+02  0.51100000000E-03 0.  1.
         11   -1    0    0    0    0 -0.00000000000E+00 -0.00000000000E+00 -0.45593999997E+02  0.45594000000E+02  0.51100000000E-03 0. -1.
    9900012    2    1    2    0    0  0.17858845778E+02 -0.14809902537E+02  0.21873437375E+02  0.59301970955E+02  0.50000049108E+02 0.  0.
         12    1    1    2    0    0 -0.17858845778E+02  0.14809902537E+02 -0.21873437375E+02  0.31886029045E+02  0.00000000000E+00 0. -1.
         11    1    3    3    0    0  0.92319619172E+01  0.22646061019E+01 -0.92928847176E+01  0.13293429515E+02  0.51100000000E-03 0. -1.
        -11    1    3    3    0    0 -0.88406704719E+01 -0.28297211696E+01  0.17051035553E+02  0.19413979241E+02  0.51100000000E-03 0.  1.
        -12    1    3    3    0    0  0.17467554333E+02 -0.14244787470E+02  0.14115286539E+02  0.26594562198E+02  0.00000000000E+00 0.  1.
</event>
<event>
 7    1  0.7578565E-012  0.5930195E+02  0.7816164E-02  0.1266605E+00
        -11   -1    0    0    0    0  0.00000000000E+00  0.00000000000E+00  0.45593999997E+02  0.45594000000E+02  0.51100000000E-03 0. -1.
         11   -1    0    0    0    0 -0.00000000000E+00 -0.00000000000E+00 -0.45593999997E+02  0.45594000000E+02  0.51100000000E-03 0.  1.
    9900012    2    1    2    0    0  0.20310962646E+02 -0.28712969443E+01 -0.24411893063E+02  0.59301951755E+02  0.50000014093E+02 0.  0.
         12    1    1    2    0    0 -0.20310962646E+02  0.28712969443E+01  0.24411893063E+02  0.31886048245E+02  0.00000000000E+00 0. -1.
         11    1    3    3    0    0 -0.27181476081E+00 -0.12117242797E+01  0.72556495008E+01  0.73611554075E+01  0.51100000000E-03 0. -1.
        -11    1    3    3    0    0  0.30268904499E+02  0.15560713426E+01 -0.27470834775E+02  0.40905680548E+02  0.51100000000E-03 0.  1.
        -12    1    3    3    0    0 -0.96861270929E+01 -0.32156440072E+01 -0.41967077891E+01  0.11035115799E+02  0.00000000000E+00 0.  1.
</event>
<event>
 7    1  0.7578565E-012  0.5930193E+02  0.7816164E-02  0.1266605E+00
        -11   -1    0    0    0    0  0.00000000000E+00  0.00000000000E+00  0.45593999997E+02  0.45594000000E+02  0.51100000000E-03 0. -1.
         11   -1    0    0    0    0 -0.00000000000E+00 -0.00000000000E+00 -0.45593999997E+02  0.45594000000E+02  0.51100000000E-03 0.  1.
    9900012    2    1    2    0    0 -0.55087648922E+01 -0.26762374616E+02 -0.16436251341E+02  0.59301928685E+02  0.49999972018E+02 0.  0.
         12    1    1    2    0    0  0.55087648922E+01  0.26762374616E+02  0.16436251341E+02  0.31886071315E+02  0.00000000000E+00 0. -1.
         11    1    3    3    0    0 -0.58286357458E+01  0.12528465499E+01  0.12238826292E+02  0.13613650811E+02  0.51100000000E-03 0. -1.
        -11    1    3    3    0    0  0.50947339129E+01 -0.76654261701E+01 -0.21834142185E+02  0.23694827226E+02  0.51100000000E-03 0.  1.
         12    1    3    3    0    0 -0.47748630592E+01 -0.20349794996E+02 -0.68409354480E+01  0.21993450648E+02  0.00000000000E+00 0. -1.
</event>
<event>
 7    1  0.7578565E-012  0.5930180E+02  0.7816164E-02  0.1266605E+00
        -11   -1    0    0    0    0  0.00000000000E+00  0.00000000000E+00  0.45593999997E+02  0.45594000000E+02  0.51100000000E-03 0. -1.
         11   -1    0    0    0    0 -0.00000000000E+00 -0.00000000000E+00 -0.45593999997E+02  0.45594000000E+02  0.51100000000E-03 0.  1.
    9900012    2    1    2    0    0 -0.13868053860E+02 -0.20286087265E+02  0.20319484582E+02  0.59301800664E+02  0.49999738539E+02 0.  0.
         12    1    1    2    0    0  0.13868053860E+02  0.20286087265E+02 -0.20319484582E+02  0.31886199336E+02  0.00000000000E+00 0. -1.
         11    1    3    3    0    0 -0.27014191621E+01 -0.27474314092E+02  0.55322697901E+01  0.28155667451E+02  0.51100000000E-03 0. -1.
        -11    1    3    3    0    0 -0.10612335823E+02  0.39324783278E+01 -0.40509529357E+01  0.12020660438E+02  0.51100000000E-03 0.  1.
         12    1    3    3    0    0 -0.55429887529E+00  0.32557484995E+01  0.18838167728E+02  0.19125472775E+02  0.00000000000E+00 0. -1.
</event>
<event>
 7    1  0.7578565E-012  0.5930198E+02  0.7816164E-02  0.1266605E+00
        -11   -1    0    0    0    0  0.00000000000E+00  0.00000000000E+00  0.45593999997E+02  0.45594000000E+02  0.51100000000E-03 0. -1.
         11   -1    0    0    0    0 -0.00000000000E+00 -0.00000000000E+00 -0.45593999997E+02  0.45594000000E+02  0.51100000000E-03 0.  1.
    9900012    2    1    2    0    0 -0.71569965788E+01 -0.98917727250E+01 -0.29455875171E+02  0.59301978772E+02  0.50000063365E+02 0.  0.
         12    1    1    2    0    0  0.71569965788E+01  0.98917727250E+01  0.29455875171E+02  0.31886021228E+02  0.00000000000E+00 0. -1.
         11    1    3    3    0    0  0.14129640168E+02  0.33364723844E+01  0.11868557329E+01  0.14566653907E+02  0.51100000000E-03 0. -1.
        -11    1    3    3    0    0 -0.20990184590E+02 -0.42434811737E+01 -0.13321351940E+02  0.25220099115E+02  0.51100000000E-03 0.  1.
        -12    1    3    3    0    0 -0.29645215627E+00 -0.89847639357E+01 -0.17321378964E+02  0.19515225750E+02  0.00000000000E+00 0.  1.
</event>
<event>
 7    1  0.7578565E-012  0.5930194E+02  0.7816164E-02  0.1266605E+00
        -11   -1    0    0    0    0  0.00000000000E+00  0.00000000000E+00  0.45593999997E+02  0.45594000000E+02  0.51100000000E-03 0.  1.
         11   -1    0    0    0    0 -0.00000000000E+00 -0.00000000000E+00 -0.45593999997E+02  0.45594000000E+02  0.51100000000E-03 0. -1.
    9900012    2    1    2    0    0 -0.78118239519E+01 -0.27379591110E+02  0.14354591411E+02  0.59301938823E+02  0.49999990507E+02 0.  0.
         12    1    1    2    0    0  0.78118239519E+01  0.27379591110E+02 -0.14354591411E+02  0.31886061177E+02  0.00000000000E+00 0. -1.
         11    1    3    3    0    0 -0.21467669228E+02 -0.19129991109E+02  0.33374326886E+01  0.28947466887E+02  0.51100000000E-03 0. -1.
        -11    1    3    3    0    0  0.18517825747E+02 -0.69515880631E+01  0.14245597964E+02  0.24375633502E+02  0.51100000000E-03 0.  1.
        -12    1    3    3    0    0 -0.48619804708E+01 -0.12980119381E+01 -0.32284392413E+01  0.59788384344E+01  0.00000000000E+00 0.  1.
</event>
<event>
 7    1  0.7578565E-012  0.5930194E+02  0.7816164E-02  0.1266605E+00
        -11   -1    0    0    0    0  0.00000000000E+00  0.00000000000E+00  0.45593999997E+02  0.45594000000E+02  0.51100000000E-03 0.  1.
         11   -1    0    0    0    0 -0.00000000000E+00 -0.00000000000E+00 -0.45593999997E+02  0.45594000000E+02  0.51100000000E-03 0. -1.
    9900012    2    1    2    0    0  0.99132568813E+01 -0.18759482919E+02  0.23801891430E+02  0.59301938828E+02  0.49999990517E+02 0.  0.
         12    1    1    2    0    0 -0.99132568813E+01  0.18759482919E+02 -0.23801891430E+02  0.31886061172E+02  0.00000000000E+00 0. -1.
         11    1    3    3    0    0  0.21947726707E+02 -0.27490778304E+02  0.26353029019E+02  0.43953699937E+02  0.51100000000E-03 0. -1.
        -11    1    3    3    0    0 -0.78984617744E+01  0.67916262287E+01 -0.27562843651E+01  0.10775388113E+02  0.51100000000E-03 0.  1.
         12    1    3    3    0    0 -0.41360080516E+01  0.19396691563E+01  0.20514677603E+00  0.45728507781E+01  0.00000000000E+00 0. -1.
</event>
<event>
 7    1  0.7578565E-012  0.5930194E+02  0.7816164E-02  0.1266605E+00
        -11   -1    0    0    0    0  0.00000000000E+00  0.00000000000E+00  0.45593999997E+02  0.45594000000E+02  0.51100000000E-03 0.  1.
         11   -1    0    0    0    0 -0.00000000000E+00 -0.00000000000E+00 -0.45593999997E+02  0.45594000000E+02  0.51100000000E-03 0. -1.
    9900012    2    1    2    0    0  0.83636854234E+01 -0.78419788764E+01  0.29753535101E+02  0.59301941643E+02  0.49999995651E+02 0.  0.
         12    1    1    2    0    0 -0.83636854234E+01  0.78419788764E+01 -0.29753535101E+02  0.31886058357E+02  0.00000000000E+00 0. -1.
         11    1    3    3    0    0 -0.10159924505E+01  0.11060706962E+02 -0.21458514594E+01  0.11312654769E+02  0.51100000000E-03 0. -1.
        -11    1    3    3    0    0  0.17412609019E+02 -0.16482152308E+02  0.12914269132E+02  0.27233043256E+02  0.51100000000E-03 0.  1.
         12    1    3    3    0    0 -0.80329311449E+01 -0.24205335310E+01  0.18985117429E+02  0.20756243618E+02  0.00000000000E+00 0. -1.
</event>
<event>
 7    1  0.7578565E-012  0.5930197E+02  0.7816164E-02  0.1266605E+00
        -11   -1    0    0    0    0  0.00000000000E+00  0.00000000000E+00  0.45593999997E+02  0.45594000000E+02  0.51100000000E-03 0.  1.
         11   -1    0    0    0    0 -0.00000000000E+00 -0.00000000000E+00 -0.45593999997E+02  0.45594000000E+02  0.51100000000E-03 0. -1.
    9900012    2    1    2    0    0  0.57690077705E+01  0.29523631569E+02  0.10573192943E+02  0.59301973582E+02  0.50000053900E+02 0.  0.
         12    1    1    2    0    0 -0.57690077705E+01 -0.29523631569E+02 -0.10573192943E+02  0.31886026418E+02  0.00000000000E+00 0. -1.
         11    1    3    3    0    0 -0.46714186074E+00  0.82268104273E+01 -0.95973555500E+01  0.12649421534E+02  0.51100000000E-03 0. -1.
        -11    1    3    3    0    0  0.97375908972E+01  0.36368018731E+01  0.25778735835E+02  0.27795507296E+02  0.51100000000E-03 0.  1.
        -12    1    3    3    0    0 -0.35014412659E+01  0.17660019269E+02 -0.56081873415E+01  0.18857044752E+02  0.00000000000E+00 0.  1.
</event>
<event>
 7    1  0.7578565E-012  0.5930194E+02  0.7816164E-02  0.1266605E+00
        -11   -1    0    0    0    0  0.00000000000E+00  0.00000000000E+00  0.45593999997E+02  0.45594000000E+02  0.51100000000E-03 0.  1.
         11   -1    0    0    0    0 -0.00000000000E+00 -0.00000000000E+00 -0.45593999997E+02  0.45594000000E+02  0.51100000000E-03 0. -1.
    9900012    2    1    2    0    0  0.69726269877E+01 -0.28957388199E+01  0.30979316536E+02  0.59301939042E+02  0.49999990907E+02 0.  0.
         12    1    1    2    0    0 -0.69726269877E+01  0.28957388199E+01 -0.30979316536E+02  0.31886060958E+02  0.00000000000E+00 0. -1.
         11    1    3    3    0    0 -0.12677966174E+02  0.69827542248E+01  0.26557008561E+02  0.30245072109E+02  0.51100000000E-03 0. -1.
        -11    1    3    3    0    0  0.13885470555E+02 -0.87060443733E+01  0.11374529025E+02  0.19949471471E+02  0.51100000000E-03 0.  1.
         12    1    3    3    0    0  0.57651226072E+01 -0.11724486713E+01 -0.69522210508E+01  0.91073954621E+01  0.00000000000E+00 0. -1.
</event>
<event>
 7    1  0.7578565E-012  0.5930196E+02  0.7816164E-02  0.1266605E+00
        -11   -1    0    0    0    0  0.00000000000E+00  0.00000000000E+00  0.45593999997E+02  0.45594000000E+02  0.51100000000E-03 0. -1.
         11   -1    0    0    0    0 -0.00000000000E+00 -0.00000000000E+00 -0.45593999997E+02  0.45594000000E+02  0.51100000000E-03 0.  1.
    9900012    2    1    2    0    0 -0.38704799404E+01  0.28713638562E+00 -0.31648960666E+02  0.59301956446E+02  0.50000022648E+02 0.  0.
         12    1    1    2    0    0  0.38704799404E+01 -0.28713638562E+00  0.31648960666E+02  0.31886043554E+02  0.00000000000E+00 0. -1.
         11    1    3    3    0    0  0.43465263570E+01  0.17525771181E+02 -0.86865656382E+01  0.20037499088E+02  0.51100000000E-03 0. -1.
        -11    1    3    3    0    0  0.28602145095E+01 -0.17935983208E+02 -0.62612589972E+01  0.19211550827E+02  0.51100000000E-03 0.  1.
        -12    1    3    3    0    0 -0.11077220807E+02  0.69734841229E+00 -0.16701136031E+02  0.20052906531E+02  0.00000000000E+00 0.  1.
</event>
<event>
 7    1  0.7578565E-012  0.5930194E+02  0.7816164E-02  0.1266605E+00
        -11   -1    0    0    0    0  0.00000000000E+00  0.00000000000E+00  0.45593999997E+02  0.45594000000E+02  0.51100000000E-03 0.  1.
         11   -1    0    0    0    0 -0.00000000000E+00 -0.00000000000E+00 -0.45593999997E+02  0.45594000000E+02  0.51100000000E-03 0. -1.
    9900012    2    1    2    0    0  0.35827980964E+01 -0.85886258853E+00  0.31672495810E+02  0.59301935991E+02  0.49999985343E+02 0.  0.
         12    1    1    2    0    0 -0.35827980964E+01  0.85886258853E+00 -0.31672495810E+02  0.31886064009E+02  0.00000000000E+00 0. -1.
         11    1    3    3    0    0  0.16843929999E+01  0.21633440232E+02  0.59697800523E+01  0.22505136973E+02  0.51100000000E-03 0. -1.
        -11    1    3    3    0    0  0.33284959506E+01 -0.14895255787E+02  0.24653335953E+02  0.28995422123E+02  0.51100000000E-03 0.  1.
         12    1    3    3    0    0 -0.14300908542E+01 -0.75970470335E+01  0.10493798049E+01  0.78013768949E+01  0.00000000000E+00 0. -1.
</event>
<event>
 7    1  0.7578565E-012  0.5930196E+02  0.7816164E-02  0.1266605E+00
        -11   -1    0    0    0    0  0.00000000000E+00  0.00000000000E+00  0.45593999997E+02  0.45594000000E+02  0.51100000000E-03 0.  1.
         11   -1    0    0    0    0 -0.00000000000E+00 -0.00000000000E+00 -0.45593999997E+02  0.45594000000E+02  0.51100000000E-03 0. -1.
    9900012    2    1    2    0    0 -0.99133798335E+01  0.21565814318E+02  0.21292251810E+02  0.59301961769E+02  0.50000032357E+02 0.  0.
         12    1    1    2    0    0  0.99133798335E+01 -0.21565814318E+02 -0.21292251810E+02  0.31886038231E+02  0.00000000000E+00 0. -1.
         11    1    3    3    0    0 -0.16079255136E+02  0.15878821212E+02  0.12710567405E+02  0.25927551616E+02  0.51100000000E-03 0. -1.
        -11    1    3    3    0    0  0.47555660500E+01  0.97568182494E+01 -0.97215568173E+01  0.14571190000E+02  0.51100000000E-03 0.  1.
        -12    1    3    3    0    0  0.14103092526E+01 -0.40698251433E+01  0.18303241222E+02  0.18803220153E+02  0.00000000000E+00 0.  1.
</event>
<event>
 7    1  0.7578565E-012  0.5930195E+02  0.7816164E-02  0.1266605E+00
        -11   -1    0    0    0    0  0.00000000000E+00  0.00000000000E+00  0.45593999997E+02  0.45594000000E+02  0.51100000000E-03 0.  1.
         11   -1    0    0    0    0 -0.00000000000E+00 -0.00000000000E+00 -0.45593999997E+02  0.45594000000E+02  0.51100000000E-03 0. -1.
    9900012    2    1    2    0    0 -0.89787105289E+01 -0.19755188908E+02  0.23363124312E+02  0.59301948047E+02  0.50000007330E+02 0.  0.
         12    1    1    2    0    0  0.89787105289E+01  0.19755188908E+02 -0.23363124312E+02  0.31886051953E+02  0.00000000000E+00 0. -1.
         11    1    3    3    0    0  0.54029232622E+01 -0.46147550205E+01 -0.13543255824E+02  0.15294028973E+02  0.51100000000E-03 0. -1.
        -11    1    3    3    0    0 -0.50439740782E+01 -0.69257258618E+01  0.53794476601E+01  0.10116610628E+02  0.51100000000E-03 0.  1.
         12    1    3    3    0    0 -0.93376597129E+01 -0.82147080253E+01  0.31526932475E+02  0.33891308446E+02  0.00000000000E+00 0. -1.
</event>
<event>
 7    1  0.7578565E-012  0.5930195E+02  0.7816164E-02  0.1266605E+00
        -11   -1    0    0    0    0  0.00000000000E+00  0.00000000000E+00  0.45593999997E+02  0.45594000000E+02  0.51100000000E-03 0. -1.
         11   -1    0    0    0    0 -0.00000000000E+00 -0.00000000000E+00 -0.45593999997E+02  0.45594000000E+02  0.51100000000E-03 0.  1.
    9900012    2    1    2    0    0 -0.98458992995E+01 -0.24117395886E+02 -0.18388303803E+02  0.59301949224E+02  0.50000009478E+02 0.  0.
         12    1    1    2    0    0  0.98458992995E+01  0.24117395886E+02  0.18388303803E+02  0.31886050776E+02  0.00000000000E+00 0. -1.
         11    1    3    3    0    0  0.74144532648E+01 -0.13586917777E+02 -0.82588506823E+01  0.17543861227E+02  0.51100000000E-03 0. -1.
        -11    1    3    3    0    0 -0.24255168294E+02 -0.17832028551E+02 -0.53594730428E+01  0.30578070292E+02  0.51100000000E-03 0.  1.
        -12    1    3    3    0    0  0.69948157295E+01  0.73015504427E+01 -0.47699800778E+01  0.11180017706E+02  0.00000000000E+00 0.  1.
</event>
<event>
 7    1  0.7578565E-012  0.5930199E+02  0.7816164E-02  0.1266605E+00
        -11   -1    0    0    0    0  0.00000000000E+00  0.00000000000E+00  0.45593999997E+02  0.45594000000E+02  0.51100000000E-03 0.  1.
         11   -1    0    0    0    0 -0.00000000000E+00 -0.00000000000E+00 -0.45593999997E+02  0.45594000000E+02  0.51100000000E-03 0. -1.
    9900012    2    1    2    0    0 -0.28698295844E+02 -0.13707385147E+02  0.22875942331E+01  0.59301989285E+02  0.50000082539E+02 0.  0.
         12    1    1    2    0    0  0.28698295844E+02  0.13707385147E+02 -0.22875942331E+01  0.31886010715E+02  0.00000000000E+00 0. -1.
         11    1    3    3    0    0 -0.19492043870E+02 -0.69943305740E+01 -0.62906491213E+01  0.21643306149E+02  0.51100000000E-03 0. -1.
        -11    1    3    3    0    0  0.60718759606E+01  0.11414937207E+02  0.22801832549E+01  0.13128888188E+02  0.51100000000E-03 0.  1.
        -12    1    3    3    0    0 -0.15278127934E+02 -0.18127991781E+02  0.62980600995E+01  0.24529794948E+02  0.00000000000E+00 0.  1.
</event>
<event>
 7    1  0.7578565E-012  0.5930192E+02  0.7816164E-02  0.1266605E+00
        -11   -1    0    0    0    0  0.00000000000E+00  0.00000000000E+00  0.45593999997E+02  0.45594000000E+02  0.51100000000E-03 0.  1.
         11   -1    0    0    0    0 -0.00000000000E+00 -0.00000000000E+00 -0.45593999997E+02  0.45594000000E+02  0.51100000000E-03 0. -1.
    9900012    2    1    2    0    0 -0.40498960424E+01 -0.10968252279E+02  0.29665091716E+02  0.59301923375E+02  0.49999962334E+02 0.  0.
         12    1    1    2    0    0  0.40498960424E+01  0.10968252279E+02 -0.29665091716E+02  0.31886076625E+02  0.00000000000E+00 0. -1.
         11    1    3    3    0    0  0.61619189830E+01  0.18370953359E+02  0.72710776981E+01  0.20696128721E+02  0.51100000000E-03 0. -1.
        -11    1    3    3    0    0 -0.53110599103E+01 -0.11559934511E+02  0.66373890067E+01  0.14349020049E+02  0.51100000000E-03 0.  1.
         12    1    3    3    0    0 -0.49007551151E+01 -0.17779271127E+02  0.15756625012E+02  0.24256774605E+02  0.00000000000E+00 0. -1.
</event>
<event>
 7    1  0.7578565E-012  0.5930193E+02  0.7816164E-02  0.1266605E+00
        -11   -1    0    0    0    0  0.00000000000E+00  0.00000000000E+00  0.45593999997E+02  0.45594000000E+02  0.51100000000E-03 0.  1.
         11   -1    0    0    0    0 -0.00000000000E+00 -0.00000000000E+00 -0.45593999997E+02  0.45594000000E+02  0.51100000000E-03 0. -1.
    9900012    2    1    2    0    0  0.28037051253E+02 -0.61791987504E+00  0.15174441436E+02  0.59301925597E+02  0.49999966387E+02 0.  0.
         12    1    1    2    0    0 -0.28037051253E+02  0.61791987504E+00 -0.15174441436E+02  0.31886074403E+02  0.00000000000E+00 0. -1.
         11    1    3    3    0    0 -0.93994869354E+00  0.12873724699E+02  0.14946161039E+02  0.19748519470E+02  0.51100000000E-03 0.  1.
        -11    1    3    3    0    0  0.26763983615E+02 -0.56639140534E+01 -0.74651466358E+01  0.28356994832E+02  0.51100000000E-03 0. -1.
        -12    1    3    3    0    0  0.22130163308E+01 -0.78277305205E+01  0.76934270329E+01  0.11196411295E+02  0.00000000000E+00 0.  1.
</event>
<event>
 7    1  0.7578565E-012  0.5930198E+02  0.7816164E-02  0.1266605E+00
        -11   -1    0    0    0    0  0.00000000000E+00  0.00000000000E+00  0.45593999997E+02  0.45594000000E+02  0.51100000000E-03 0. -1.
         11   -1    0    0    0    0 -0.00000000000E+00 -0.00000000000E+00 -0.45593999997E+02  0.45594000000E+02  0.51100000000E-03 0.  1.
    9900012    2    1    2    0    0 -0.28881018183E+02  0.12865148872E+02 -0.41344016880E+01  0.59301975724E+02  0.50000057806E+02 0.  0.
         12    1    1    2    0    0  0.28881018183E+02 -0.12865148872E+02  0.41344016880E+01  0.31886024276E+02  0.00000000000E+00 0. -1.
         11    1    3    3    0    0 -0.37815432347E+02  0.14279940822E+02  0.10257226167E+02  0.41702929422E+02  0.51100000000E-03 0. -1.
        -11    1    3    3    0    0  0.24637088439E+01  0.60677476805E+00 -0.75611373687E+01  0.79755147455E+01  0.51100000000E-03 0.  1.
         12    1    3    3    0    0  0.64707053199E+01 -0.20215667172E+01 -0.68304904864E+01  0.96235315563E+01  0.00000000000E+00 0. -1.
</event>
<event>
 7    1  0.7578565E-012  0.5930195E+02  0.7816164E-02  0.1266605E+00
        -11   -1    0    0    0    0  0.00000000000E+00  0.00000000000E+00  0.45593999997E+02  0.45594000000E+02  0.51100000000E-03 0. -1.
         11   -1    0    0    0    0 -0.00000000000E+00 -0.00000000000E+00 -0.45593999997E+02  0.45594000000E+02  0.51100000000E-03 0.  1.
    9900012    2    1    2    0    0  0.26115061389E+02 -0.71727025325E+01 -0.16830813447E+02  0.59301947026E+02  0.50000005468E+02 0.  0.
         12    1    1    2    0    0 -0.26115061389E+02  0.71727025325E+01  0.16830813447E+02  0.31886052974E+02  0.00000000000E+00 0. -1.
         11    1    3    3    0    0 -0.24506255195E+01 -0.11427307984E+02  0.75906943099E+00  0.11711751358E+02  0.51100000000E-03 0. -1.
        -11    1    3    3    0    0  0.23365390996E+02 -0.69907401497E+01 -0.23495462622E+02  0.33865154780E+02  0.51100000000E-03 0.  1.
        -12    1    3    3    0    0  0.52002959126E+01  0.11245345601E+02  0.59055797438E+01  0.13725040888E+02  0.00000000000E+00 0.  1.
</event>
<event>
 7    1  0.7578565E-012  0.5930194E+02  0.7816164E-02  0.1266605E+00
        -11   -1    0    0    0    0  0.00000000000E+00  0.00000000000E+00  0.45593999997E+02  0.45594000000E+02  0.51100000000E-03 0.  1.
         11   -1    0    0    0    0 -0.00000000000E+00 -0.00000000000E+00 -0.45593999997E+02  0.45594000000E+02  0.51100000000E-03 0. -1.
    9900012    2    1    2    0    0 -0.84603055899E+01 -0.28016876804E+02  0.12656970097E+02  0.59301936453E+02  0.49999986185E+02 0.  0.
         12    1    1    2    0    0  0.84603055899E+01  0.28016876804E+02 -0.12656970097E+02  0.31886063547E+02  0.00000000000E+00 0. -1.
         11    1    3    3    0    0 -0.16523398485E+02 -0.31502163811E+02 -0.74509217029E+01  0.36344535445E+02  0.51100000000E-03 0. -1.
        -11    1    3    3    0    0  0.32299206461E+01 -0.49534482539E+00  0.13352475801E+02  0.13746503707E+02  0.51100000000E-03 0.  1.
         12    1    3    3    0    0  0.48331722488E+01  0.39806318324E+01  0.67554159987E+01  0.92108973009E+01  0.00000000000E+00 0. -1.
</event>
<event>
 7    1  0.7578565E-012  0.5930169E+02  0.7816164E-02  0.1266606E+00
        -11   -1    0    0    0    0  0.00000000000E+00  0.00000000000E+00  0.45593999997E+02  0.45594000000E+02  0.51100000000E-03 0. -1.
         11   -1    0    0    0    0 -0.00000000000E+00 -0.00000000000E+00 -0.45593999997E+02  0.45594000000E+02  0.51100000000E-03 0.  1.
    9900012    2    1    2    0    0  0.21674773363E+02 -0.74259858831E+01 -0.22176460944E+02  0.59301694371E+02  0.49999544684E+02 0.  0.
         12    1    1    2    0    0 -0.21674773363E+02  0.74259858831E+01  0.22176460944E+02  0.31886305629E+02  0.00000000000E+00 0. -1.
         11    1    3    3    0    0  0.15066278665E+02 -0.22819534025E+01  0.80482835435E+01  0.17232960640E+02  0.51100000000E-03 0. -1.
        -11    1    3    3    0    0  0.88365527438E+01 -0.14963511721E+01 -0.34724521677E+02  0.35862461393E+02  0.51100000000E-03 0.  1.
        -12    1    3    3    0    0 -0.22280580464E+01 -0.36476813086E+01  0.44997771889E+01  0.62062723383E+01  0.00000000000E+00 0.  1.
</event>
<event>
 7    1  0.7578565E-012  0.5930226E+02  0.7816164E-02  0.1266604E+00
        -11   -1    0    0    0    0  0.00000000000E+00  0.00000000000E+00  0.45593999997E+02  0.45594000000E+02  0.51100000000E-03 0. -1.
         11   -1    0    0    0    0 -0.00000000000E+00 -0.00000000000E+00 -0.45593999997E+02  0.45594000000E+02  0.51100000000E-03 0.  1.
    9900012    2    1    2    0    0 -0.10931740304E+02  0.15899907526E+02 -0.25384844072E+02  0.59302261590E+02  0.50000579154E+02 0.  0.
         12    1    1    2    0    0  0.10931740304E+02 -0.15899907526E+02  0.25384844072E+02  0.31885738410E+02  0.00000000000E+00 0. -1.
         11    1    3    3    0    0  0.57732185703E+01 -0.91546676998E+01 -0.13658008585E+02  0.17426393549E+02  0.51100000000E-03 0. -1.
        -11    1    3    3    0    0 -0.21350026011E+02  0.84895494297E+01 -0.73650012751E+01  0.24127563164E+02  0.51100000000E-03 0.  1.
        -12    1    3    3    0    0  0.46450671359E+01  0.16565025796E+02 -0.43618342114E+01  0.17748304877E+02  0.00000000000E+00 0.  1.
</event>
<event>
 7    1  0.7578565E-012  0.5930193E+02  0.7816164E-02  0.1266605E+00
        -11   -1    0    0    0    0  0.00000000000E+00  0.00000000000E+00  0.45593999997E+02  0.45594000000E+02  0.51100000000E-03 0. -1.
         11   -1    0    0    0    0 -0.00000000000E+00 -0.00000000000E+00 -0.45593999997E+02  0.45594000000E+02  0.51100000000E-03 0.  1.
    9900012    2    1    2    0    0  0.89492261464E+01  0.14274953671E+02 -0.27071358406E+02  0.59301930991E+02  0.49999976223E+02 0.  0.
         12    1    1    2    0    0 -0.89492261464E+01 -0.14274953671E+02  0.27071358406E+02  0.31886069009E+02  0.00000000000E+00 0. -1.
         11    1    3    3    0    0  0.34713464941E+01  0.13450850776E+02  0.46448202764E+01  0.14647525004E+02  0.51100000000E-03 0. -1.
        -11    1    3    3    0    0 -0.60161945943E+01 -0.65598851097E+01 -0.29500906431E+02  0.30814447432E+02  0.51100000000E-03 0.  1.
         12    1    3    3    0    0  0.11494074247E+02  0.73839880043E+01 -0.22152722518E+01  0.13839958554E+02  0.00000000000E+00 0. -1.
</event>
<event>
 7    1  0.7578565E-012  0.5930194E+02  0.7816164E-02  0.1266605E+00
        -11   -1    0    0    0    0  0.00000000000E+00  0.00000000000E+00  0.45593999997E+02  0.45594000000E+02  0.51100000000E-03 0. -1.
         11   -1    0    0    0    0 -0.00000000000E+00 -0.00000000000E+00 -0.45593999997E+02  0.45594000000E+02  0.51100000000E-03 0.  1.
    9900012    2    1    2    0    0  0.26577776493E+02  0.15135932903E+02 -0.90136524671E+01  0.59301943503E+02  0.49999999042E+02 0.  0.
         12    1    1    2    0    0 -0.26577776493E+02 -0.15135932903E+02  0.90136524671E+01  0.31886056497E+02  0.00000000000E+00 0. -1.
         11    1    3    3    0    0  0.20086409043E+01  0.10098899881E+02 -0.10415477271E+02  0.14645975014E+02  0.51100000000E-03 0. -1.
        -11    1    3    3    0    0 -0.36939615059E+01 -0.49590561360E+01  0.11470878274E+02  0.13031448039E+02  0.51100000000E-03 0.  1.
        -12    1    3    3    0    0  0.28263097095E+02  0.99960891584E+01 -0.10069053470E+02  0.31624520449E+02  0.00000000000E+00 0.  1.
</event>
<event>
 7    1  0.7578565E-012  0.5930195E+02  0.7816164E-02  0.1266605E+00
        -11   -1    0    0    0    0  0.00000000000E+00  0.00000000000E+00  0.45593999997E+02  0.45594000000E+02  0.51100000000E-03 0. -1.
         11   -1    0    0    0    0 -0.00000000000E+00 -0.00000000000E+00 -0.45593999997E+02  0.45594000000E+02  0.51100000000E-03 0.  1.
    9900012    2    1    2    0    0  0.20625888983E+02  0.17117523658E+02 -0.17270871505E+02  0.59301954227E+02  0.50000018600E+02 0.  0.
         12    1    1    2    0    0 -0.20625888983E+02 -0.17117523658E+02  0.17270871505E+02  0.31886045773E+02  0.00000000000E+00 0. -1.
         11    1    3    3    0    0  0.84106486266E+01 -0.44535182645E+01  0.72483572318E+01  0.11962922639E+02  0.51100000000E-03 0. -1.
        -11    1    3    3    0    0  0.25621486205E+01  0.24933512362E+02 -0.53719064221E+01  0.25634001310E+02  0.51100000000E-03 0.  1.
        -12    1    3    3    0    0  0.96530917358E+01 -0.33624704400E+01 -0.19147322315E+02  0.21705030278E+02  0.00000000000E+00 0.  1.
</event>
<event>
 7    1  0.7578565E-012  0.5930194E+02  0.7816164E-02  0.1266605E+00
        -11   -1    0    0    0    0  0.00000000000E+00  0.00000000000E+00  0.45593999997E+02  0.45594000000E+02  0.51100000000E-03 0.  1.
         11   -1    0    0    0    0 -0.00000000000E+00 -0.00000000000E+00 -0.45593999997E+02  0.45594000000E+02  0.51100000000E-03 0. -1.
    9900012    2    1    2    0    0 -0.11152352058E+02 -0.10895503678E+02  0.27814276976E+02  0.59301937833E+02  0.49999988702E+02 0.  0.
         12    1    1    2    0    0  0.11152352058E+02  0.10895503678E+02 -0.27814276976E+02  0.31886062167E+02  0.00000000000E+00 0. -1.
         11    1    3    3    0    0 -0.21437979827E+02  0.12668496656E+02  0.14289640762E+02  0.28710130964E+02  0.51100000000E-03 0. -1.
        -11    1    3    3    0    0  0.29035858877E+01 -0.17795369810E+02  0.96817023054E+01  0.20465614026E+02  0.51100000000E-03 0.  1.
         12    1    3    3    0    0  0.73820418811E+01 -0.57686305243E+01  0.38429339091E+01  0.10126192843E+02  0.00000000000E+00 0. -1.
</event>
<event>
 7    1  0.7578565E-012  0.5930193E+02  0.7816164E-02  0.1266605E+00
        -11   -1    0    0    0    0  0.00000000000E+00  0.00000000000E+00  0.45593999997E+02  0.45594000000E+02  0.51100000000E-03 0.  1.
         11   -1    0    0    0    0 -0.00000000000E+00 -0.00000000000E+00 -0.45593999997E+02  0.45594000000E+02  0.51100000000E-03 0. -1.
    9900012    2    1    2    0    0 -0.14145888997E+02  0.14083424899E+02  0.24865090318E+02  0.59301925470E+02  0.49999966155E+02 0.  0.
         12    1    1    2    0    0  0.14145888997E+02 -0.14083424899E+02 -0.24865090318E+02  0.31886074530E+02  0.00000000000E+00 0. -1.
         11    1    3    3    0    0  0.35728267769E+01 -0.88559714179E+01  0.38918580269E+01  0.10312122967E+02  0.51100000000E-03 0. -1.
        -11    1    3    3    0    0 -0.26531895460E+02  0.23336551815E+02  0.18172281611E+02  0.39733712972E+02  0.51100000000E-03 0.  1.
        -12    1    3    3    0    0  0.88131796867E+01 -0.39715549787E+00  0.28009506803E+01  0.92560895303E+01  0.00000000000E+00 0.  1.
</event>
<event>
 7    1  0.7578565E-012  0.5930197E+02  0.7816164E-02  0.1266605E+00
        -11   -1    0    0    0    0  0.00000000000E+00  0.00000000000E+00  0.45593999997E+02  0.45594000000E+02  0.51100000000E-03 0. -1.
         11   -1    0    0    0    0 -0.00000000000E+00 -0.00000000000E+00 -0.45593999997E+02  0.45594000000E+02  0.51100000000E-03 0.  1.
    9900012    2    1    2    0    0 -0.20148095088E+02 -0.20790088988E+02 -0.13362090472E+02  0.59301968613E+02  0.50000044839E+02 0.  0.
         12    1    1    2    0    0  0.20148095088E+02  0.20790088988E+02  0.13362090472E+02  0.31886031387E+02  0.00000000000E+00 0. -1.
         11    1    3    3    0    0 -0.97827197559E+01  0.16353308791E+01 -0.15161058600E+02  0.18117218634E+02  0.51100000000E-03 0. -1.
        -11    1    3    3    0    0  0.10031282781E+02 -0.85042301099E+01  0.84230242239E+01  0.15617166879E+02  0.51100000000E-03 0.  1.
        -12    1    3    3    0    0 -0.20396658113E+02 -0.13921189757E+02 -0.66240560957E+01  0.25567583100E+02  0.00000000000E+00 0.  1.
</event>
<event>
 7    1  0.7578565E-012  0.5930195E+02  0.7816164E-02  0.1266605E+00
        -11   -1    0    0    0    0  0.00000000000E+00  0.00000000000E+00  0.45593999997E+02  0.45594000000E+02  0.51100000000E-03 0.  1.
         11   -1    0    0    0    0 -0.00000000000E+00 -0.00000000000E+00 -0.45593999997E+02  0.45594000000E+02  0.51100000000E-03 0. -1.
    9900012    2    1    2    0    0 -0.10648591203E+02 -0.16065733493E+02  0.25401181955E+02  0.59301947689E+02  0.50000006677E+02 0.  0.
         12    1    1    2    0    0  0.10648591203E+02  0.16065733493E+02 -0.25401181955E+02  0.31886052311E+02  0.00000000000E+00 0. -1.
         11    1    3    3    0    0  0.36147891633E+01  0.45021889609E+01 -0.80720025728E+01  0.99243957968E+01  0.51100000000E-03 0. -1.
        -11    1    3    3    0    0 -0.47362411775E-01 -0.20817628673E+02  0.13322482254E+02  0.24715671960E+02  0.51100000000E-03 0.  1.
         12    1    3    3    0    0 -0.14216017954E+02  0.24970621938E+00  0.20150702274E+02  0.24661879933E+02  0.00000000000E+00 0. -1.
</event>
<event>
 7    1  0.7578565E-012  0.5930194E+02  0.7816164E-02  0.1266605E+00
        -11   -1    0    0    0    0  0.00000000000E+00  0.00000000000E+00  0.45593999997E+02  0.45594000000E+02  0.51100000000E-03 0.  1.
         11   -1    0    0    0    0 -0.00000000000E+00 -0.00000000000E+00 -0.45593999997E+02  0.45594000000E+02  0.51100000000E-03 0. -1.
    9900012    2    1    2    0    0 -0.25509470465E+02 -0.71335316420E+01  0.17751077626E+02  0.59301935427E+02  0.49999984314E+02 0.  0.
         12    1    1    2    0    0  0.25509470465E+02  0.71335316420E+01 -0.17751077626E+02  0.31886064573E+02  0.00000000000E+00 0. -1.
         11    1    3    3    0    0  0.53977711519E+01 -0.14964056610E+02 -0.51420949387E+01  0.16718255419E+02  0.51100000000E-03 0. -1.
        -11    1    3    3    0    0 -0.12576115091E+02  0.79776299332E+01  0.18469056166E+02  0.23725667242E+02  0.51100000000E-03 0.  1.
         12    1    3    3    0    0 -0.18331126526E+02 -0.14710496506E+00  0.44241163988E+01  0.18858012766E+02  0.00000000000E+00 0. -1.
</event>
<event>
 7    1  0.7578565E-012  0.5930178E+02  0.7816164E-02  0.1266605E+00
        -11   -1    0    0    0    0  0.00000000000E+00  0.00000000000E+00  0.45593999997E+02  0.45594000000E+02  0.51100000000E-03 0.  1.
         11   -1    0    0    0    0 -0.00000000000E+00 -0.00000000000E+00 -0.45593999997E+02  0.45594000000E+02  0.51100000000E-03 0. -1.
    9900012    2    1    2    0    0  0.71653461973E+01 -0.10816455806E+02  0.29127183824E+02  0.59301784485E+02  0.49999709032E+02 0.  0.
         12    1    1    2    0    0 -0.71653461973E+01  0.10816455806E+02 -0.29127183824E+02  0.31886215515E+02  0.00000000000E+00 0. -1.
         11    1    3    3    0    0  0.22600520836E+02 -0.27963918511E+01  0.19991363189E+02  0.30302771356E+02  0.51100000000E-03 0. -1.
        -11    1    3    3    0    0 -0.79021961335E+01 -0.41986806496E+01  0.15854853308E+02  0.18205768224E+02  0.51100000000E-03 0.  1.
         12    1    3    3    0    0 -0.75329785051E+01 -0.38213833053E+01 -0.67190326730E+01  0.10793244905E+02  0.00000000000E+00 0. -1.
</event>
<event>
 7    1  0.7578565E-012  0.5930182E+02  0.7816164E-02  0.1266605E+00
        -11   -1    0    0    0    0  0.00000000000E+00  0.00000000000E+00  0.45593999997E+02  0.45594000000E+02  0.51100000000E-03 0. -1.
         11   -1    0    0    0    0 -0.00000000000E+00 -0.00000000000E+00 -0.45593999997E+02  0.45594000000E+02  0.51100000000E-03 0.  1.
    9900012    2    1    2    0    0 -0.40725107228E+01  0.25346006000E+02 -0.18913563764E+02  0.59301823403E+02  0.49999780008E+02 0.  0.
         12    1    1    2    0    0  0.40725107228E+01 -0.25346006000E+02  0.18913563764E+02  0.31886176597E+02  0.00000000000E+00 0. -1.
         11    1    3    3    0    0  0.13747085336E+02  0.18928380128E+02 -0.16158577226E+02  0.28431770042E+02  0.51100000000E-03 0. -1.
        -11    1    3    3    0    0 -0.20023314032E+02  0.12939497037E+02 -0.16455393993E+01  0.23897102096E+02  0.51100000000E-03 0.  1.
         12    1    3    3    0    0  0.22037179736E+01 -0.65218711641E+01 -0.11094471385E+01  0.69729512649E+01  0.00000000000E+00 0. -1.
</event>
<event>
 7    1  0.7578565E-012  0.5930195E+02  0.7816164E-02  0.1266605E+00
        -11   -1    0    0    0    0  0.00000000000E+00  0.00000000000E+00  0.45593999997E+02  0.45594000000E+02  0.51100000000E-03 0. -1.
         11   -1    0    0    0    0 -0.00000000000E+00 -0.00000000000E+00 -0.45593999997E+02  0.45594000000E+02  0.51100000000E-03 0.  1.
    9900012    2    1    2    0    0 -0.18137448793E+02  0.14144767842E+02 -0.22083444696E+02  0.59301952336E+02  0.50000015152E+02 0.  0.
         12    1    1    2    0    0  0.18137448793E+02 -0.14144767842E+02  0.22083444696E+02  0.31886047664E+02  0.00000000000E+00 0. -1.
         11    1    3    3    0    0 -0.22522147679E+02  0.32655564853E+00 -0.18339351955E+02  0.29046266628E+02  0.51100000000E-03 0.  1.
        -11    1    3    3    0    0  0.56087064126E+01 -0.25416043039E+01 -0.10772310960E+02  0.12408062852E+02  0.51100000000E-03 0. -1.
         12    1    3    3    0    0 -0.12240075268E+01  0.16359816497E+02  0.70282182194E+01  0.17847622855E+02  0.00000000000E+00 0. -1.
</event>
<event>
 7    1  0.7578565E-012  0.5930191E+02  0.7816164E-02  0.1266605E+00
        -11   -1    0    0    0    0  0.00000000000E+00  0.00000000000E+00  0.45593999997E+02  0.45594000000E+02  0.51100000000E-03 0. -1.
         11   -1    0    0    0    0 -0.00000000000E+00 -0.00000000000E+00 -0.45593999997E+02  0.45594000000E+02  0.51100000000E-03 0.  1.
    9900012    2    1    2    0    0  0.36216572385E+01 -0.25618016143E+02 -0.18636621100E+02  0.59301909015E+02  0.49999936145E+02 0.  0.
         12    1    1    2    0    0 -0.36216572385E+01  0.25618016143E+02  0.18636621100E+02  0.31886090985E+02  0.00000000000E+00 0. -1.
         11    1    3    3    0    0 -0.17627761174E+01  0.80225181279E+01  0.68726697733E+01  0.10709891074E+02  0.51100000000E-03 0. -1.
        -11    1    3    3    0    0  0.13154779954E+02 -0.13311228795E+02 -0.16804305688E+02  0.25151972837E+02  0.51100000000E-03 0.  1.
        -12    1    3    3    0    0 -0.77703465976E+01 -0.20329305476E+02 -0.87049851852E+01  0.23440045104E+02  0.00000000000E+00 0.  1.
</event>
<event>
 7    1  0.7578565E-012  0.5930198E+02  0.7816164E-02  0.1266605E+00
        -11   -1    0    0    0    0  0.00000000000E+00  0.00000000000E+00  0.45593999997E+02  0.45594000000E+02  0.51100000000E-03 0.  1.
         11   -1    0    0    0    0 -0.00000000000E+00 -0.00000000000E+00 -0.45593999997E+02  0.45594000000E+02  0.51100000000E-03 0. -1.
    9900012    2    1    2    0    0 -0.46329912350E+01  0.23857110649E+02  0.20641993808E+02  0.59301980420E+02  0.50000066370E+02 0.  0.
         12    1    1    2    0    0  0.46329912350E+01 -0.23857110649E+02 -0.20641993808E+02  0.31886019580E+02  0.00000000000E+00 0. -1.
         11    1    3    3    0    0 -0.56672473345E+01  0.90875682343E+01 -0.66372307579E+01  0.12599778615E+02  0.51100000000E-03 0. -1.
        -11    1    3    3    0    0 -0.12873871219E+02  0.19365348341E+02  0.17109078795E+02  0.28869947246E+02  0.51100000000E-03 0.  1.
        -12    1    3    3    0    0  0.13908127318E+02 -0.45958059261E+01  0.10170145771E+02  0.17832254558E+02  0.00000000000E+00 0.  1.
</event>
<event>
 7    1  0.7578565E-012  0.5930194E+02  0.7816164E-02  0.1266605E+00
        -11   -1    0    0    0    0  0.00000000000E+00  0.00000000000E+00  0.45593999997E+02  0.45594000000E+02  0.51100000000E-03 0.  1.
         11   -1    0    0    0    0 -0.00000000000E+00 -0.00000000000E+00 -0.45593999997E+02  0.45594000000E+02  0.51100000000E-03 0. -1.
    9900012    2    1    2    0    0 -0.27452517102E+02  0.87511152098E+01  0.13656441509E+02  0.59301935531E+02  0.49999984504E+02 0.  0.
         12    1    1    2    0    0  0.27452517102E+02 -0.87511152098E+01 -0.13656441509E+02  0.31886064469E+02  0.00000000000E+00 0. -1.
         11    1    3    3    0    0 -0.18575258762E+02 -0.15491814055E+02 -0.30041265015E+01  0.24373373117E+02  0.51100000000E-03 0. -1.
        -11    1    3    3    0    0 -0.42069580839E+01  0.65276920981E+01  0.14542307618E+02  0.16485993193E+02  0.51100000000E-03 0.  1.
         12    1    3    3    0    0 -0.46703002563E+01  0.17715237167E+02  0.21182603921E+01  0.18442569221E+02  0.00000000000E+00 0. -1.
</event>
<event>
 7    1  0.7578565E-012  0.5930198E+02  0.7816164E-02  0.1266605E+00
        -11   -1    0    0    0    0  0.00000000000E+00  0.00000000000E+00  0.45593999997E+02  0.45594000000E+02  0.51100000000E-03 0.  1.
         11   -1    0    0    0    0 -0.00000000000E+00 -0.00000000000E+00 -0.45593999997E+02  0.45594000000E+02  0.51100000000E-03 0. -1.
    9900012    2    1    2    0    0 -0.24903506741E+02 -0.12734157566E+02  0.15309306569E+02  0.59301979795E+02  0.50000065230E+02 0.  0.
         12    1    1    2    0    0  0.24903506741E+02  0.12734157566E+02 -0.15309306569E+02  0.31886020205E+02  0.00000000000E+00 0. -1.
         11    1    3    3    0    0 -0.86060709640E+01  0.13297258749E+02  0.21356080197E+01  0.15982564549E+02  0.51100000000E-03 0. -1.
        -11    1    3    3    0    0 -0.20017269510E+02 -0.22025536172E+02  0.77913137842E+00  0.29772846157E+02  0.51100000000E-03 0.  1.
        -12    1    3    3    0    0  0.37198337334E+01 -0.40058801430E+01  0.12394567171E+02  0.13546569089E+02  0.00000000000E+00 0.  1.
</event>
<event>
 7    1  0.7578565E-012  0.5930195E+02  0.7816164E-02  0.1266605E+00
        -11   -1    0    0    0    0  0.00000000000E+00  0.00000000000E+00  0.45593999997E+02  0.45594000000E+02  0.51100000000E-03 0.  1.
         11   -1    0    0    0    0 -0.00000000000E+00 -0.00000000000E+00 -0.45593999997E+02  0.45594000000E+02  0.51100000000E-03 0. -1.
    9900012    2    1    2    0    0 -0.27730399746E+02  0.12898959944E+02  0.90200695973E+01  0.59301954569E+02  0.50000019225E+02 0.  0.
         12    1    1    2    0    0  0.27730399746E+02 -0.12898959944E+02 -0.90200695973E+01  0.31886045431E+02  0.00000000000E+00 0. -1.
         11    1    3    3    0    0 -0.18432264751E+02 -0.82656092111E+01  0.13509563763E+02  0.24301789910E+02  0.51100000000E-03 0. -1.
        -11    1    3    3    0    0  0.40343202363E+01 -0.41321380923E+01 -0.26273049059E+01  0.63445280607E+01  0.51100000000E-03 0.  1.
         12    1    3    3    0    0 -0.13332455231E+02  0.25296707247E+02 -0.18621892597E+01  0.28655636598E+02  0.00000000000E+00 0. -1.
</event>
<event>
 7    1  0.7578565E-012  0.5930196E+02  0.7816164E-02  0.1266605E+00
        -11   -1    0    0    0    0  0.00000000000E+00  0.00000000000E+00  0.45593999997E+02  0.45594000000E+02  0.51100000000E-03 0.  1.
         11   -1    0    0    0    0 -0.00000000000E+00 -0.00000000000E+00 -0.45593999997E+02  0.45594000000E+02  0.51100000000E-03 0. -1.
    9900012    2    1    2    0    0  0.62569897696E+01  0.21549141670E+02  0.22654013414E+02  0.59301956793E+02  0.50000023280E+02 0.  0.
         12    1    1    2    0    0 -0.62569897696E+01 -0.21549141670E+02 -0.22654013414E+02  0.31886043207E+02  0.00000000000E+00 0. -1.
         11    1    3    3    0    0  0.84400796203E+01  0.47542993884E+01  0.62422830085E+01  0.11524079316E+02  0.51100000000E-03 0. -1.
        -11    1    3    3    0    0  0.39818306439E+01  0.17647494884E+02 -0.99806571702E+01  0.20661620672E+02  0.51100000000E-03 0.  1.
        -12    1    3    3    0    0 -0.61649204946E+01 -0.85265260282E+00  0.26392387575E+02  0.27116256804E+02  0.00000000000E+00 0.  1.
</event>
<event>
 7    1  0.7578565E-012  0.5930192E+02  0.7816164E-02  0.1266605E+00
        -11   -1    0    0    0    0  0.00000000000E+00  0.00000000000E+00  0.45593999997E+02  0.45594000000E+02  0.51100000000E-03 0.  1.
         11   -1    0    0    0    0 -0.00000000000E+00 -0.00000000000E+00 -0.45593999997E+02  0.45594000000E+02  0.51100000000E-03 0. -1.
    9900012    2    1    2    0    0 -0.22599123856E+02 -0.22459791336E+02  0.12487076568E+01  0.59301923152E+02  0.49999961928E+02 0.  0.
         12    1    1    2    0    0  0.22599123856E+02  0.22459791336E+02 -0.12487076568E+01  0.31886076848E+02  0.00000000000E+00 0. -1.
         11    1    3    3    0    0 -0.18683798274E+02 -0.17689295655E+02  0.14287733767E+02  0.29430168793E+02  0.51100000000E-03 0. -1.
        -11    1    3    3    0    0  0.99106030373E+01 -0.28256220062E+01  0.64018645530E+00  0.10325407074E+02  0.51100000000E-03 0.  1.
         12    1    3    3    0    0 -0.13825928620E+02 -0.19448736748E+01 -0.13679212565E+02  0.19546347285E+02  0.00000000000E+00 0. -1.
</event>
<event>
 7    1  0.7578565E-012  0.5930195E+02  0.7816164E-02  0.1266605E+00
        -11   -1    0    0    0    0  0.00000000000E+00  0.00000000000E+00  0.45593999997E+02  0.45594000000E+02  0.51100000000E-03 0. -1.
         11   -1    0    0    0    0 -0.00000000000E+00 -0.00000000000E+00 -0.45593999997E+02  0.45594000000E+02  0.51100000000E-03 0.  1.
    9900012    2    1    2    0    0 -0.22114784084E+02  0.12559138708E+02 -0.19233430365E+02  0.59301945309E+02  0.50000002336E+02 0.  0.
         12    1    1    2    0    0  0.22114784084E+02 -0.12559138708E+02  0.19233430365E+02  0.31886054691E+02  0.00000000000E+00 0. -1.
         11    1    3    3    0    0  0.50455957151E+01 -0.10739491467E+02 -0.42478118172E+00  0.11873295768E+02  0.51100000000E-03 0. -1.
        -11    1    3    3    0    0 -0.20134026184E+02  0.13794904219E+02  0.92753371959E+00  0.24424141988E+02  0.51100000000E-03 0.  1.
         12    1    3    3    0    0 -0.70263536149E+01  0.95037259551E+01 -0.19736182903E+02  0.23004507553E+02  0.00000000000E+00 0. -1.
</event>
<event>
 7    1  0.7578565E-012  0.5930200E+02  0.7816164E-02  0.1266605E+00
        -11   -1    0    0    0    0  0.00000000000E+00  0.00000000000E+00  0.45593999997E+02  0.45594000000E+02  0.51100000000E-03 0.  1.
         11   -1    0    0    0    0 -0.00000000000E+00 -0.00000000000E+00 -0.45593999997E+02  0.45594000000E+02  0.51100000000E-03 0. -1.
    9900012    2    1    2    0    0 -0.62904886552E+01 -0.28958881188E+02  0.11769877696E+02  0.59301998868E+02  0.50000100016E+02 0.  0.
         12    1    1    2    0    0  0.62904886552E+01  0.28958881188E+02 -0.11769877696E+02  0.31886001132E+02  0.00000000000E+00 0. -1.
         11    1    3    3    0    0 -0.10110900443E+02 -0.43412753091E+01 -0.10242548978E+02  0.15032856977E+02  0.51100000000E-03 0. -1.
        -11    1    3    3    0    0 -0.84687122255E+00 -0.11843082088E+02  0.27227009103E+02  0.29703296268E+02  0.51100000000E-03 0.  1.
        -12    1    3    3    0    0  0.46672830105E+01 -0.12774523791E+02 -0.52145824303E+01  0.14565845623E+02  0.00000000000E+00 0.  1.
</event>
<event>
 7    1  0.7578565E-012  0.5930194E+02  0.7816164E-02  0.1266605E+00
        -11   -1    0    0    0    0  0.00000000000E+00  0.00000000000E+00  0.45593999997E+02  0.45594000000E+02  0.51100000000E-03 0.  1.
         11   -1    0    0    0    0 -0.00000000000E+00 -0.00000000000E+00 -0.45593999997E+02  0.45594000000E+02  0.51100000000E-03 0. -1.
    9900012    2    1    2    0    0  0.67357204301E+01 -0.12717448643E+02  0.28453773079E+02  0.59301942983E+02  0.49999998095E+02 0.  0.
         12    1    1    2    0    0 -0.67357204301E+01  0.12717448643E+02 -0.28453773079E+02  0.31886057017E+02  0.00000000000E+00 0. -1.
         11    1    3    3    0    0 -0.61722634807E+01 -0.88168734037E+01 -0.72137679349E+01  0.12956563633E+02  0.51100000000E-03 0. -1.
        -11    1    3    3    0    0 -0.36293766663E+01 -0.79558642734E+01  0.24420304477E+02  0.25938762930E+02  0.51100000000E-03 0.  1.
         12    1    3    3    0    0  0.16537360577E+02  0.40552890344E+01  0.11247236536E+02  0.20406616420E+02  0.00000000000E+00 0. -1.
</event>
<event>
 7    1  0.7578565E-012  0.5930194E+02  0.7816164E-02  0.1266605E+00
        -11   -1    0    0    0    0  0.00000000000E+00  0.00000000000E+00  0.45593999997E+02  0.45594000000E+02  0.51100000000E-03 0.  1.
         11   -1    0    0    0    0 -0.00000000000E+00 -0.00000000000E+00 -0.45593999997E+02  0.45594000000E+02  0.51100000000E-03 0. -1.
    9900012    2    1    2    0    0 -0.26119565995E+02  0.81793793034E+01  0.16358086174E+02  0.59301937891E+02  0.49999988807E+02 0.  0.
         12    1    1    2    0    0  0.26119565995E+02 -0.81793793034E+01 -0.16358086174E+02  0.31886062109E+02  0.00000000000E+00 0. -1.
         11    1    3    3    0    0 -0.17936111176E+02  0.54418732022E+01  0.19886046907E+01  0.18848676796E+02  0.51100000000E-03 0. -1.
        -11    1    3    3    0    0  0.32293642733E+01  0.53430374635E+01 -0.10923970982E+02  0.12582129598E+02  0.51100000000E-03 0.  1.
        -12    1    3    3    0    0 -0.11412819092E+02 -0.26055313623E+01  0.25293452465E+02  0.27871131497E+02  0.00000000000E+00 0.  1.
</event>
<event>
 7    1  0.7578565E-012  0.5930194E+02  0.7816164E-02  0.1266605E+00
        -11   -1    0    0    0    0  0.00000000000E+00  0.00000000000E+00  0.45593999997E+02  0.45594000000E+02  0.51100000000E-03 0. -1.
         11   -1    0    0    0    0 -0.00000000000E+00 -0.00000000000E+00 -0.45593999997E+02  0.45594000000E+02  0.51100000000E-03 0.  1.
    9900012    2    1    2    0    0 -0.20290869379E+02  0.22029840943E+02  0.10940168309E+02  0.59301944195E+02  0.50000000306E+02 0.  0.
         12    1    1    2    0    0  0.20290869379E+02 -0.22029840943E+02 -0.10940168309E+02  0.31886055805E+02  0.00000000000E+00 0. -1.
         11    1    3    3    0    0 -0.94322622613E+01 -0.43509150750E+01 -0.12003503901E+01  0.10456523068E+02  0.51100000000E-03 0. -1.
        -11    1    3    3    0    0 -0.98872745399E+01  0.27652321449E+02 -0.65484659881E+01  0.30088062191E+02  0.51100000000E-03 0.  1.
        -12    1    3    3    0    0 -0.97133257808E+00 -0.12715654309E+01  0.18688984687E+02  0.18757358936E+02  0.00000000000E+00 0.  1.
</event>
<event>
 7    1  0.7578565E-012  0.5930201E+02  0.7816164E-02  0.1266605E+00
        -11   -1    0    0    0    0  0.00000000000E+00  0.00000000000E+00  0.45593999997E+02  0.45594000000E+02  0.51100000000E-03 0. -1.
         11   -1    0    0    0    0 -0.00000000000E+00 -0.00000000000E+00 -0.45593999997E+02  0.45594000000E+02  0.51100000000E-03 0.  1.
    9900012    2    1    2    0    0  0.25318215414E+02  0.19260591622E+02  0.21757047937E+01  0.59302013850E+02  0.50000127339E+02 0.  0.
         12    1    1    2    0    0 -0.25318215414E+02 -0.19260591622E+02 -0.21757047937E+01  0.31885986150E+02  0.00000000000E+00 0. -1.
         11    1    3    3    0    0  0.98511977852E+01 -0.48606697024E+01  0.63523139420E+01  0.12689527195E+02  0.51100000000E-03 0. -1.
        -11    1    3    3    0    0  0.25220426804E+01  0.31392019982E+02 -0.15218855006E+01  0.31529918388E+02  0.51100000000E-03 0.  1.
        -12    1    3    3    0    0  0.12944974949E+02 -0.72707586576E+01 -0.26547236477E+01  0.15082568267E+02  0.00000000000E+00 0.  1.
</event>
<event>
 7    1  0.7578565E-012  0.5930178E+02  0.7816164E-02  0.1266605E+00
        -11   -1    0    0    0    0  0.00000000000E+00  0.00000000000E+00  0.45593999997E+02  0.45594000000E+02  0.51100000000E-03 0.  1.
         11   -1    0    0    0    0 -0.00000000000E+00 -0.00000000000E+00 -0.45593999997E+02  0.45594000000E+02  0.51100000000E-03 0. -1.
    9900012    2    1    2    0    0 -0.87655236611E+00  0.27192128384E+02  0.16629823025E+02  0.59301777208E+02  0.49999695760E+02 0.  0.
         12    1    1    2    0    0  0.87655236611E+00 -0.27192128384E+02 -0.16629823025E+02  0.31886222792E+02  0.00000000000E+00 0. -1.
         11    1    3    3    0    0  0.12022598641E+02  0.24756186294E+02  0.18921993422E+01  0.27586084472E+02  0.51100000000E-03 0. -1.
        -11    1    3    3    0    0 -0.11157320791E+02 -0.65964923729E+01  0.17801259740E+02  0.22020090087E+02  0.51100000000E-03 0.  1.
         12    1    3    3    0    0 -0.17418302161E+01  0.90324344626E+01 -0.30636360575E+01  0.96956026484E+01  0.00000000000E+00 0. -1.
</event>
<event>
 7    1  0.7578565E-012  0.5930198E+02  0.7816164E-02  0.1266605E+00
        -11   -1    0    0    0    0  0.00000000000E+00  0.00000000000E+00  0.45593999997E+02  0.45594000000E+02  0.51100000000E-03 0. -1.
         11   -1    0    0    0    0 -0.00000000000E+00 -0.00000000000E+00 -0.45593999997E+02  0.45594000000E+02  0.51100000000E-03 0.  1.
    9900012    2    1    2    0    0 -0.12497996811E+01  0.15644288278E+02 -0.27756300719E+02  0.59301984498E+02  0.50000073809E+02 0.  0.
         12    1    1    2    0    0  0.12497996811E+01 -0.15644288278E+02  0.27756300719E+02  0.31886015502E+02  0.00000000000E+00 0. -1.
         11    1    3    3    0    0  0.14288843407E+02  0.61259987332E+01 -0.49198490596E+01  0.16306557620E+02  0.51100000000E-03 0. -1.
        -11    1    3    3    0    0 -0.11204984577E+02  0.10664009997E+02  0.38457295624E+01  0.15939335768E+02  0.51100000000E-03 0.  1.
        -12    1    3    3    0    0 -0.43336585104E+01 -0.11457204524E+01 -0.26682181222E+02  0.27056091111E+02  0.00000000000E+00 0.  1.
</event>
<event>
 7    1  0.7578565E-012  0.5930194E+02  0.7816164E-02  0.1266605E+00
        -11   -1    0    0    0    0  0.00000000000E+00  0.00000000000E+00  0.45593999997E+02  0.45594000000E+02  0.51100000000E-03 0.  1.
         11   -1    0    0    0    0 -0.00000000000E+00 -0.00000000000E+00 -0.45593999997E+02  0.45594000000E+02  0.51100000000E-03 0. -1.
    9900012    2    1    2    0    0 -0.59993156546E+01 -0.30736596122E+02  0.59992217710E+01  0.59301940486E+02  0.49999993541E+02 0.  0.
         12    1    1    2    0    0  0.59993156546E+01  0.30736596122E+02 -0.59992217710E+01  0.31886059514E+02  0.00000000000E+00 0. -1.
         11    1    3    3    0    0 -0.22552506008E+01  0.86245208994E+01 -0.47445237724E+01  0.10098466324E+02  0.51100000000E-03 0. -1.
        -11    1    3    3    0    0 -0.13056233421E+02 -0.34293023757E+02  0.46845838953E+01  0.36992188852E+02  0.51100000000E-03 0.  1.
         12    1    3    3    0    0  0.93121683673E+01 -0.50680932644E+01  0.60591616481E+01  0.12211285310E+02  0.00000000000E+00 0. -1.
</event>
<event>
 7    1  0.7578565E-012  0.5930194E+02  0.7816164E-02  0.1266605E+00
        -11   -1    0    0    0    0  0.00000000000E+00  0.00000000000E+00  0.45593999997E+02  0.45594000000E+02  0.51100000000E-03 0.  1.
         11   -1    0    0    0    0 -0.00000000000E+00 -0.00000000000E+00 -0.45593999997E+02  0.45594000000E+02  0.51100000000E-03 0. -1.
    9900012    2    1    2    0    0 -0.26147071179E+02 -0.77592016868E+00  0.18233189581E+02  0.59301943711E+02  0.49999999422E+02 0.  0.
         12    1    1    2    0    0  0.26147071179E+02  0.77592016868E+00 -0.18233189581E+02  0.31886056289E+02  0.00000000000E+00 0. -1.
         11    1    3    3    0    0  0.74271216336E+01  0.14581065340E+02  0.13234167801E+01  0.16417095798E+02  0.51100000000E-03 0. -1.
        -11    1    3    3    0    0 -0.22120961900E+02 -0.27842021903E+01  0.80186705399E+01  0.23693623925E+02  0.51100000000E-03 0.  1.
         12    1    3    3    0    0 -0.11453230913E+02 -0.12572783318E+02  0.88911022613E+01  0.19191223987E+02  0.00000000000E+00 0. -1.
</event>
<event>
 7    1  0.7578565E-012  0.5930198E+02  0.7816164E-02  0.1266605E+00
        -11   -1    0    0    0    0  0.00000000000E+00  0.00000000000E+00  0.45593999997E+02  0.45594000000E+02  0.51100000000E-03 0. -1.
         11   -1    0    0    0    0 -0.00000000000E+00 -0.00000000000E+00 -0.45593999997E+02  0.45594000000E+02  0.51100000000E-03 0.  1.
    9900012    2    1    2    0    0 -0.20109372402E+02 -0.24063282195E+02 -0.57697100399E+01  0.59301984847E+02  0.50000074445E+02 0.  0.
         12    1    1    2    0    0  0.20109372402E+02  0.24063282195E+02  0.57697100399E+01  0.31886015153E+02  0.00000000000E+00 0. -1.
         11    1    3    3    0    0  0.44533479240E+01  0.37308859554E+01  0.79439296468E+01  0.98416378840E+01  0.51100000000E-03 0. -1.
        -11    1    3    3    0    0 -0.55013543176E+01 -0.27535252134E+02 -0.11206322886E+02  0.30233039581E+02  0.51100000000E-03 0.  1.
         12    1    3    3    0    0 -0.19061366009E+02 -0.25891601582E+00 -0.25073168004E+01  0.19227307382E+02  0.00000000000E+00 0. -1.
</event>
<event>
 7    1  0.7578565E-012  0.5930198E+02  0.7816164E-02  0.1266605E+00
        -11   -1    0    0    0    0  0.00000000000E+00  0.00000000000E+00  0.45593999997E+02  0.45594000000E+02  0.51100000000E-03 0. -1.
         11   -1    0    0    0    0 -0.00000000000E+00 -0.00000000000E+00 -0.45593999997E+02  0.45594000000E+02  0.51100000000E-03 0.  1.
    9900012    2    1    2    0    0 -0.13374596010E+02 -0.26956406369E+02 -0.10544702422E+02  0.59301977797E+02  0.50000061587E+02 0.  0.
         12    1    1    2    0    0  0.13374596010E+02  0.26956406369E+02  0.10544702422E+02  0.31886022203E+02  0.00000000000E+00 0. -1.
         11    1    3    3    0    0  0.13337875948E+01 -0.22365594357E+02  0.16217318575E+01  0.22463944773E+02  0.51100000000E-03 0. -1.
        -11    1    3    3    0    0 -0.32548944541E+00  0.95541283243E+01  0.45984130986E+01  0.10608143792E+02  0.51100000000E-03 0.  1.
        -12    1    3    3    0    0 -0.14382894160E+02 -0.14144940337E+02 -0.16764847378E+02  0.26229889232E+02  0.00000000000E+00 0.  1.
</event>
<event>
 7    1  0.7578565E-012  0.5930194E+02  0.7816164E-02  0.1266605E+00
        -11   -1    0    0    0    0  0.00000000000E+00  0.00000000000E+00  0.45593999997E+02  0.45594000000E+02  0.51100000000E-03 0. -1.
         11   -1    0    0    0    0 -0.00000000000E+00 -0.00000000000E+00 -0.45593999997E+02  0.45594000000E+02  0.51100000000E-03 0.  1.
    9900012    2    1    2    0    0 -0.25040354473E+02  0.12463139741E+02 -0.15309196977E+02  0.59301941661E+02  0.49999995684E+02 0.  0.
         12    1    1    2    0    0  0.25040354473E+02 -0.12463139741E+02  0.15309196977E+02  0.31886058339E+02  0.00000000000E+00 0. -1.
         11    1    3    3    0    0  0.33518224446E+01 -0.24564289651E+01  0.37765500809E+01  0.56152549128E+01  0.51100000000E-03 0. -1.
        -11    1    3    3    0    0 -0.12003817446E+02  0.15598119258E+02 -0.28604852011E+02  0.34722190549E+02  0.51100000000E-03 0.  1.
        -12    1    3    3    0    0 -0.16388359471E+02 -0.67855055190E+00  0.95191049530E+01  0.18964496200E+02  0.00000000000E+00 0.  1.
</event>
<event>
 7    1  0.7578565E-012  0.5930197E+02  0.7816164E-02  0.1266605E+00
        -11   -1    0    0    0    0  0.00000000000E+00  0.00000000000E+00  0.45593999997E+02  0.45594000000E+02  0.51100000000E-03 0.  1.
         11   -1    0    0    0    0 -0.00000000000E+00 -0.00000000000E+00 -0.45593999997E+02  0.45594000000E+02  0.51100000000E-03 0. -1.
    9900012    2    1    2    0    0 -0.11081079634E+02  0.27616146018E+02  0.11457631900E+02  0.59301965824E+02  0.50000039751E+02 0.  0.
         12    1    1    2    0    0  0.11081079634E+02 -0.27616146018E+02 -0.11457631900E+02  0.31886034176E+02  0.00000000000E+00 0. -1.
         11    1    3    3    0    0 -0.16884619010E+02 -0.36111374462E+01  0.24616988727E+01  0.17441061733E+02  0.51100000000E-03 0. -1.
        -11    1    3    3    0    0 -0.46877694055E+01  0.16150656431E+02  0.15002008575E+02  0.22536174180E+02  0.51100000000E-03 0.  1.
         12    1    3    3    0    0  0.10491308781E+02  0.15076627033E+02 -0.60060755474E+01  0.19324729911E+02  0.00000000000E+00 0. -1.
</event>
<event>
 7    1  0.7578565E-012  0.5930196E+02  0.7816164E-02  0.1266605E+00
        -11   -1    0    0    0    0  0.00000000000E+00  0.00000000000E+00  0.45593999997E+02  0.45594000000E+02  0.51100000000E-03 0. -1.
         11   -1    0    0    0    0 -0.00000000000E+00 -0.00000000000E+00 -0.45593999997E+02  0.45594000000E+02  0.51100000000E-03 0.  1.
    9900012    2    1    2    0    0 -0.85770557125E+01  0.25506060964E+02 -0.17105400132E+02  0.59301956904E+02  0.50000023484E+02 0.  0.
         12    1    1    2    0    0  0.85770557125E+01 -0.25506060964E+02  0.17105400132E+02  0.31886043096E+02  0.00000000000E+00 0. -1.
         11    1    3    3    0    0  0.14283044717E+02  0.13524633001E+02 -0.92070012400E+01  0.21718423891E+02  0.51100000000E-03 0. -1.
        -11    1    3    3    0    0 -0.16023266258E+02 -0.48915418789E+01 -0.95827678474E+01  0.19300302677E+02  0.51100000000E-03 0.  1.
         12    1    3    3    0    0 -0.68368341713E+01  0.16872969842E+02  0.16843689552E+01  0.18283230337E+02  0.00000000000E+00 0. -1.
</event>
<event>
 7    1  0.7578565E-012  0.5930194E+02  0.7816164E-02  0.1266605E+00
        -11   -1    0    0    0    0  0.00000000000E+00  0.00000000000E+00  0.45593999997E+02  0.45594000000E+02  0.51100000000E-03 0.  1.
         11   -1    0    0    0    0 -0.00000000000E+00 -0.00000000000E+00 -0.45593999997E+02  0.45594000000E+02  0.51100000000E-03 0. -1.
    9900012    2    1    2    0    0  0.23231762163E+00  0.20681348302E+02  0.24268259019E+02  0.59301944507E+02  0.50000000875E+02 0.  0.
         12    1    1    2    0    0 -0.23231762163E+00 -0.20681348302E+02 -0.24268259019E+02  0.31886055493E+02  0.00000000000E+00 0. -1.
         11    1    3    3    0    0 -0.42448690933E+01  0.53817020142E+01 -0.16842733005E+01  0.70582155677E+01  0.51100000000E-03 0.  1.
        -11    1    3    3    0    0  0.15513893963E+02  0.76404254022E+01 -0.54143960875E+01  0.18121056577E+02  0.51100000000E-03 0. -1.
        -12    1    3    3    0    0 -0.11036707248E+02  0.76592208859E+01  0.31366928407E+02  0.34122672362E+02  0.00000000000E+00 0.  1.
</event>
<event>
 7    1  0.7578565E-012  0.5930191E+02  0.7816164E-02  0.1266605E+00
        -11   -1    0    0    0    0  0.00000000000E+00  0.00000000000E+00  0.45593999997E+02  0.45594000000E+02  0.51100000000E-03 0. -1.
         11   -1    0    0    0    0 -0.00000000000E+00 -0.00000000000E+00 -0.45593999997E+02  0.45594000000E+02  0.51100000000E-03 0.  1.
    9900012    2    1    2    0    0  0.25988315195E+02  0.18285725722E+02  0.26386379640E+01  0.59301910523E+02  0.49999938895E+02 0.  0.
         12    1    1    2    0    0 -0.25988315195E+02 -0.18285725722E+02 -0.26386379640E+01  0.31886089477E+02  0.00000000000E+00 0. -1.
         11    1    3    3    0    0  0.12785066053E+02 -0.82045101946E+01 -0.10672526467E+02  0.18565417392E+02  0.51100000000E-03 0. -1.
        -11    1    3    3    0    0  0.10568349145E+02  0.98674222903E+01  0.18168143297E+02  0.23219333699E+02  0.51100000000E-03 0.  1.
        -12    1    3    3    0    0  0.26348999975E+01  0.16622813626E+02 -0.48569788662E+01  0.17517159432E+02  0.00000000000E+00 0.  1.
</event>
<event>
 7    1  0.7578565E-012  0.5930198E+02  0.7816164E-02  0.1266605E+00
        -11   -1    0    0    0    0  0.00000000000E+00  0.00000000000E+00  0.45593999997E+02  0.45594000000E+02  0.51100000000E-03 0. -1.
         11   -1    0    0    0    0 -0.00000000000E+00 -0.00000000000E+00 -0.45593999997E+02  0.45594000000E+02  0.51100000000E-03 0.  1.
    9900012    2    1    2    0    0 -0.12597503607E+02  0.17528527670E+02 -0.23468530213E+02  0.59301979713E+02  0.50000065081E+02 0.  0.
         12    1    1    2    0    0  0.12597503607E+02 -0.17528527670E+02  0.23468530213E+02  0.31886020287E+02  0.00000000000E+00 0. -1.
         11    1    3    3    0    0  0.50027483742E+01  0.45591998804E+00  0.10034758971E+02  0.11221931304E+02  0.51100000000E-03 0. -1.
        -11    1    3    3    0    0 -0.20008943529E+02  0.75839549896E+01 -0.31511286980E+02  0.38089833313E+02  0.51100000000E-03 0.  1.
        -12    1    3    3    0    0  0.24086915469E+01  0.94886526922E+01 -0.19920022042E+01  0.99902150959E+01  0.00000000000E+00 0.  1.
</event>
<event>
 7    1  0.7578565E-012  0.5930203E+02  0.7816164E-02  0.1266604E+00
        -11   -1    0    0    0    0  0.00000000000E+00  0.00000000000E+00  0.45593999997E+02  0.45594000000E+02  0.51100000000E-03 0. -1.
         11   -1    0    0    0    0 -0.00000000000E+00 -0.00000000000E+00 -0.45593999997E+02  0.45594000000E+02  0.51100000000E-03 0.  1.
    9900012    2    1    2    0    0  0.13287973964E+02  0.28956208432E+02 -0.12972954430E+01  0.59302027626E+02  0.50000152462E+02 0.  0.
         12    1    1    2    0    0 -0.13287973964E+02 -0.28956208432E+02  0.12972954430E+01  0.31885972374E+02  0.00000000000E+00 0. -1.
         11    1    3    3    0    0  0.26881936868E+02  0.44445808239E+01  0.64247504827E+01  0.27994110943E+02  0.51100000000E-03 0. -1.
        -11    1    3    3    0    0 -0.67169390169E+00 -0.82571417146E-01 -0.30639068560E+01  0.31377565584E+01  0.51100000000E-03 0.  1.
         12    1    3    3    0    0 -0.12922269002E+02  0.24594199025E+02 -0.46581390698E+01  0.28170160124E+02  0.00000000000E+00 0. -1.
</event>
<event>
 7    1  0.7578565E-012  0.5930187E+02  0.7816164E-02  0.1266605E+00
        -11   -1    0    0    0    0  0.00000000000E+00  0.00000000000E+00  0.45593999997E+02  0.45594000000E+02  0.51100000000E-03 0. -1.
         11   -1    0    0    0    0 -0.00000000000E+00 -0.00000000000E+00 -0.45593999997E+02  0.45594000000E+02  0.51100000000E-03 0.  1.
    9900012    2    1    2    0    0  0.18269110984E+02  0.25919240214E+02 -0.33403848021E+01  0.59301865081E+02  0.49999856020E+02 0.  0.
         12    1    1    2    0    0 -0.18269110984E+02 -0.25919240214E+02  0.33403848021E+01  0.31886134919E+02  0.00000000000E+00 0. -1.
         11    1    3    3    0    0 -0.15315781844E+02  0.12234086059E+02  0.51247217842E+00  0.19608892452E+02  0.51100000000E-03 0.  1.
        -11    1    3    3    0    0  0.17396684492E+02 -0.10449477499E+01 -0.36450655144E+01  0.17805141111E+02  0.51100000000E-03 0. -1.
         12    1    3    3    0    0  0.16188208336E+02  0.14730101905E+02 -0.20779146617E+00  0.21887831518E+02  0.00000000000E+00 0. -1.
</event>
<event>
 7    1  0.7578565E-012  0.5930196E+02  0.7816164E-02  0.1266605E+00
        -11   -1    0    0    0    0  0.00000000000E+00  0.00000000000E+00  0.45593999997E+02  0.45594000000E+02  0.51100000000E-03 0.  1.
         11   -1    0    0    0    0 -0.00000000000E+00 -0.00000000000E+00 -0.45593999997E+02  0.45594000000E+02  0.51100000000E-03 0. -1.
    9900012    2    1    2    0    0  0.53219948445E+01 -0.30723994309E+02  0.66657598753E+01  0.59301955872E+02  0.50000021602E+02 0.  0.
         12    1    1    2    0    0 -0.53219948445E+01  0.30723994309E+02 -0.66657598753E+01  0.31886044128E+02  0.00000000000E+00 0. -1.
         11    1    3    3    0    0  0.37723311101E+01  0.21465416899E+01  0.20968285683E+02  0.21412779548E+02  0.51100000000E-03 0. -1.
        -11    1    3    3    0    0  0.64888496491E+01 -0.16465252009E+02 -0.49834037579E+01  0.18385973098E+02  0.51100000000E-03 0.  1.
         12    1    3    3    0    0 -0.49391859147E+01 -0.16405283990E+02 -0.93191220502E+01  0.19503203226E+02  0.00000000000E+00 0. -1.
</event>
<event>
 7    1  0.7578565E-012  0.5930196E+02  0.7816164E-02  0.1266605E+00
        -11   -1    0    0    0    0  0.00000000000E+00  0.00000000000E+00  0.45593999997E+02  0.45594000000E+02  0.51100000000E-03 0. -1.
         11   -1    0    0    0    0 -0.00000000000E+00 -0.00000000000E+00 -0.45593999997E+02  0.45594000000E+02  0.51100000000E-03 0.  1.
    9900012    2    1    2    0    0 -0.22395144543E+02  0.20600226466E+02 -0.95293209496E+01  0.59301956230E+02  0.50000022254E+02 0.  0.
         12    1    1    2    0    0  0.22395144543E+02 -0.20600226466E+02  0.95293209496E+01  0.31886043770E+02  0.00000000000E+00 0. -1.
         11    1    3    3    0    0 -0.20236943634E+02  0.14887065313E+02  0.53770847935E+01  0.25691859459E+02  0.51100000000E-03 0. -1.
        -11    1    3    3    0    0  0.13331780048E+01  0.79548703751E+01 -0.23077228713E+02  0.24446181944E+02  0.51100000000E-03 0.  1.
        -12    1    3    3    0    0 -0.34913789133E+01 -0.22417092220E+01  0.81708229703E+01  0.91639148274E+01  0.00000000000E+00 0.  1.
</event>
<event>
 7    1  0.7578565E-012  0.5930194E+02  0.7816164E-02  0.1266605E+00
        -11   -1    0    0    0    0  0.00000000000E+00  0.00000000000E+00  0.45593999997E+02  0.45594000000E+02  0.51100000000E-03 0.  1.
         11   -1    0    0    0    0 -0.00000000000E+00 -0.00000000000E+00 -0.45593999997E+02  0.45594000000E+02  0.51100000000E-03 0. -1.
    9900012    2    1    2    0    0 -0.17663060140E+02  0.22990816021E+02  0.13272498635E+02  0.59301944508E+02  0.50000000876E+02 0.  0.
         12    1    1    2    0    0  0.17663060140E+02 -0.22990816021E+02 -0.13272498635E+02  0.31886055492E+02  0.00000000000E+00 0. -1.
         11    1    3    3    0    0  0.10673546985E+02  0.11828659978E+02  0.15729738023E+01  0.16009873484E+02  0.51100000000E-03 0. -1.
        -11    1    3    3    0    0 -0.30236099270E+02  0.14331377658E+02  0.16440480624E+02  0.37281355770E+02  0.51100000000E-03 0.  1.
         12    1    3    3    0    0  0.18994921450E+01 -0.31692216150E+01 -0.47409557918E+01  0.60107152547E+01  0.00000000000E+00 0. -1.
</event>
<event>
 7    1  0.7578565E-012  0.5930193E+02  0.7816164E-02  0.1266605E+00
        -11   -1    0    0    0    0  0.00000000000E+00  0.00000000000E+00  0.45593999997E+02  0.45594000000E+02  0.51100000000E-03 0. -1.
         11   -1    0    0    0    0 -0.00000000000E+00 -0.00000000000E+00 -0.45593999997E+02  0.45594000000E+02  0.51100000000E-03 0.  1.
    9900012    2    1    2    0    0  0.26778622772E+02  0.12724158920E+02 -0.11735538511E+02  0.59301925893E+02  0.49999966927E+02 0.  0.
         12    1    1    2    0    0 -0.26778622772E+02 -0.12724158920E+02  0.11735538511E+02  0.31886074107E+02  0.00000000000E+00 0. -1.
         11    1    3    3    0    0 -0.11700591704E+02  0.62124788234E+01 -0.58441303638E+01  0.14479385323E+02  0.51100000000E-03 0. -1.
        -11    1    3    3    0    0  0.18722237296E+02 -0.61577591563E+01  0.25654870630E+01  0.19875157642E+02  0.51100000000E-03 0.  1.
        -12    1    3    3    0    0  0.19756977181E+02  0.12669439253E+02 -0.84568952100E+01  0.24947382927E+02  0.00000000000E+00 0.  1.
</event>
<event>
 7    1  0.7578565E-012  0.5930194E+02  0.7816164E-02  0.1266605E+00
        -11   -1    0    0    0    0  0.00000000000E+00  0.00000000000E+00  0.45593999997E+02  0.45594000000E+02  0.51100000000E-03 0. -1.
         11   -1    0    0    0    0 -0.00000000000E+00 -0.00000000000E+00 -0.45593999997E+02  0.45594000000E+02  0.51100000000E-03 0.  1.
    9900012    2    1    2    0    0  0.19519599972E+02 -0.75520490868E+01 -0.24055614621E+02  0.59301939985E+02  0.49999992628E+02 0.  0.
         12    1    1    2    0    0 -0.19519599972E+02  0.75520490868E+01  0.24055614621E+02  0.31886060015E+02  0.00000000000E+00 0. -1.
         11    1    3    3    0    0 -0.30329818658E+01 -0.18040573035E+02 -0.21167647349E+02  0.27977322048E+02  0.51100000000E-03 0. -1.
        -11    1    3    3    0    0  0.18675890126E+02  0.82417192599E+01 -0.10145184551E+02  0.22795604362E+02  0.51100000000E-03 0.  1.
         12    1    3    3    0    0  0.38766917112E+01  0.22468046878E+01  0.72572172798E+01  0.85290135757E+01  0.00000000000E+00 0. -1.
</event>
<event>
 7    1  0.7578565E-012  0.5930194E+02  0.7816164E-02  0.1266605E+00
        -11   -1    0    0    0    0  0.00000000000E+00  0.00000000000E+00  0.45593999997E+02  0.45594000000E+02  0.51100000000E-03 0.  1.
         11   -1    0    0    0    0 -0.00000000000E+00 -0.00000000000E+00 -0.45593999997E+02  0.45594000000E+02  0.51100000000E-03 0. -1.
    9900012    2    1    2    0    0  0.73743308726E+01  0.12007754351E+02  0.28603392936E+02  0.59301937092E+02  0.49999987350E+02 0.  0.
         12    1    1    2    0    0 -0.73743308726E+01 -0.12007754351E+02 -0.28603392936E+02  0.31886062908E+02  0.00000000000E+00 0. -1.
         11    1    3    3    0    0  0.16021915364E+02  0.62094294278E+01 -0.16815095034E+00  0.17183918667E+02  0.51100000000E-03 0. -1.
        -11    1    3    3    0    0 -0.16462253398E+01 -0.10927378388E+02  0.17720327338E+02  0.20883669638E+02  0.51100000000E-03 0.  1.
        -12    1    3    3    0    0 -0.70013591514E+01  0.16725703311E+02  0.11051216548E+02  0.21234348787E+02  0.00000000000E+00 0.  1.
</event>
<event>
 7    1  0.7578565E-012  0.5930194E+02  0.7816164E-02  0.1266605E+00
        -11   -1    0    0    0    0  0.00000000000E+00  0.00000000000E+00  0.45593999997E+02  0.45594000000E+02  0.51100000000E-03 0.  1.
         11   -1    0    0    0    0 -0.00000000000E+00 -0.00000000000E+00 -0.45593999997E+02  0.45594000000E+02  0.51100000000E-03 0. -1.
    9900012    2    1    2    0    0 -0.14170749917E+02  0.13144886608E+02  0.25359858002E+02  0.59301943564E+02  0.49999999155E+02 0.  0.
         12    1    1    2    0    0  0.14170749917E+02 -0.13144886608E+02 -0.25359858002E+02  0.31886056436E+02  0.00000000000E+00 0. -1.
         11    1    3    3    0    0 -0.10961082740E+02  0.11896277685E+01 -0.70802557176E+01  0.13103074844E+02  0.51100000000E-03 0. -1.
        -11    1    3    3    0    0  0.10506337133E+02  0.13733363990E+02  0.10398100237E+02  0.20176939689E+02  0.51100000000E-03 0.  1.
        -12    1    3    3    0    0 -0.13716004309E+02 -0.17781051502E+01  0.22042013483E+02  0.26021929031E+02  0.00000000000E+00 0.  1.
</event>
<event>
 7    1  0.7578565E-012  0.5930197E+02  0.7816164E-02  0.1266605E+00
        -11   -1    0    0    0    0  0.00000000000E+00  0.00000000000E+00  0.45593999997E+02  0.45594000000E+02  0.51100000000E-03 0.  1.
         11   -1    0    0    0    0 -0.00000000000E+00 -0.00000000000E+00 -0.45593999997E+02  0.45594000000E+02  0.51100000000E-03 0. -1.
    9900012    2    1    2    0    0  0.15974930647E+02 -0.16947196315E+02  0.21778727921E+02  0.59301970740E+02  0.50000048717E+02 0.  0.
         12    1    1    2    0    0 -0.15974930647E+02  0.16947196315E+02 -0.21778727921E+02  0.31886029260E+02  0.00000000000E+00 0. -1.
         11    1    3    3    0    0 -0.90685948233E+01 -0.23424602748E+02  0.10810082204E+02  0.27346102163E+02  0.51100000000E-03 0. -1.
        -11    1    3    3    0    0  0.22325770622E+02  0.77057432644E+01  0.34519557762E+01  0.23869112092E+02  0.51100000000E-03 0.  1.
        -12    1    3    3    0    0  0.27177548484E+01 -0.12283368309E+01  0.75166899408E+01  0.80867564853E+01  0.00000000000E+00 0.  1.
</event>
<event>
 7    1  0.7578565E-012  0.5930194E+02  0.7816164E-02  0.1266605E+00
        -11   -1    0    0    0    0  0.00000000000E+00  0.00000000000E+00  0.45593999997E+02  0.45594000000E+02  0.51100000000E-03 0. -1.
         11   -1    0    0    0    0 -0.00000000000E+00 -0.00000000000E+00 -0.45593999997E+02  0.45594000000E+02  0.51100000000E-03 0.  1.
    9900012    2    1    2    0    0  0.77959151805E+01  0.22032196810E+02 -0.21691623194E+02  0.59301944951E+02  0.50000001684E+02 0.  0.
         12    1    1    2    0    0 -0.77959151805E+01 -0.22032196810E+02  0.21691623194E+02  0.31886055049E+02  0.00000000000E+00 0. -1.
         11    1    3    3    0    0  0.10840459486E+02  0.22699843202E+01 -0.23093690560E+02  0.25612241889E+02  0.51100000000E-03 0. -1.
        -11    1    3    3    0    0  0.11446606878E+02  0.76021553239E+01  0.46277964001E+01  0.14499450830E+02  0.51100000000E-03 0.  1.
         12    1    3    3    0    0 -0.14491151184E+02  0.12160057166E+02 -0.32257290340E+01  0.19190252232E+02  0.00000000000E+00 0. -1.
</event>
<event>
 7    1  0.7578565E-012  0.5930195E+02  0.7816164E-02  0.1266605E+00
        -11   -1    0    0    0    0  0.00000000000E+00  0.00000000000E+00  0.45593999997E+02  0.45594000000E+02  0.51100000000E-03 0. -1.
         11   -1    0    0    0    0 -0.00000000000E+00 -0.00000000000E+00 -0.45593999997E+02  0.45594000000E+02  0.51100000000E-03 0.  1.
    9900012    2    1    2    0    0  0.16774966942E+02  0.76334408731E+01 -0.26020204152E+02  0.59301953529E+02  0.50000017327E+02 0.  0.
         12    1    1    2    0    0 -0.16774966942E+02 -0.76334408731E+01  0.26020204152E+02  0.31886046471E+02  0.00000000000E+00 0. -1.
         11    1    3    3    0    0  0.56089586644E+01  0.18829278269E+02  0.24414314907E+01  0.19798048525E+02  0.51100000000E-03 0. -1.
        -11    1    3    3    0    0  0.11630298261E+01 -0.10460555220E+02 -0.27479273194E+02  0.29425946194E+02  0.51100000000E-03 0.  1.
        -12    1    3    3    0    0  0.10002978451E+02 -0.73528217609E+00 -0.98236244809E+00  0.10077958809E+02  0.00000000000E+00 0.  1.
</event>
<event>
 7    1  0.7578565E-012  0.5930196E+02  0.7816164E-02  0.1266605E+00
        -11   -1    0    0    0    0  0.00000000000E+00  0.00000000000E+00  0.45593999997E+02  0.45594000000E+02  0.51100000000E-03 0. -1.
         11   -1    0    0    0    0 -0.00000000000E+00 -0.00000000000E+00 -0.45593999997E+02  0.45594000000E+02  0.51100000000E-03 0.  1.
    9900012    2    1    2    0    0  0.29042798490E+02  0.11352521336E+02  0.66600230179E+01  0.59301956165E+02  0.50000022136E+02 0.  0.
         12    1    1    2    0    0 -0.29042798490E+02 -0.11352521336E+02 -0.66600230179E+01  0.31886043835E+02  0.00000000000E+00 0. -1.
         11    1    3    3    0    0  0.11063510723E+02  0.26988536356E+02  0.10447129103E+02  0.30982654355E+02  0.51100000000E-03 0. -1.
        -11    1    3    3    0    0  0.16016843366E+02 -0.13476412928E+02  0.27964089688E+01  0.21118069993E+02  0.51100000000E-03 0.  1.
        -12    1    3    3    0    0  0.19624444008E+01 -0.21596020912E+01 -0.65835150541E+01  0.72012318173E+01  0.00000000000E+00 0.  1.
</event>
<event>
 7    1  0.7578565E-012  0.5930193E+02  0.7816164E-02  0.1266605E+00
        -11   -1    0    0    0    0  0.00000000000E+00  0.00000000000E+00  0.45593999997E+02  0.45594000000E+02  0.51100000000E-03 0.  1.
         11   -1    0    0    0    0 -0.00000000000E+00 -0.00000000000E+00 -0.45593999997E+02  0.45594000000E+02  0.51100000000E-03 0. -1.
    9900012    2    1    2    0    0 -0.27500184691E+02 -0.73341888457E+01  0.14376059613E+02  0.59301928212E+02  0.49999971156E+02 0.  0.
         12    1    1    2    0    0  0.27500184691E+02  0.73341888457E+01 -0.14376059613E+02  0.31886071788E+02  0.00000000000E+00 0. -1.
         11    1    3    3    0    0 -0.13868162679E+02 -0.17352403764E+02  0.44141343218E+00  0.22217711371E+02  0.51100000000E-03 0. -1.
        -11    1    3    3    0    0 -0.49767964782E+00  0.12928113642E+02 -0.49888056772E+01  0.13866217570E+02  0.51100000000E-03 0.  1.
         12    1    3    3    0    0 -0.13134342365E+02 -0.29098987233E+01  0.18923451858E+02  0.23217999271E+02  0.00000000000E+00 0. -1.
</event>
<event>
 7    1  0.7578565E-012  0.5930194E+02  0.7816164E-02  0.1266605E+00
        -11   -1    0    0    0    0  0.00000000000E+00  0.00000000000E+00  0.45593999997E+02  0.45594000000E+02  0.51100000000E-03 0.  1.
         11   -1    0    0    0    0 -0.00000000000E+00 -0.00000000000E+00 -0.45593999997E+02  0.45594000000E+02  0.51100000000E-03 0. -1.
    9900012    2    1    2    0    0 -0.31046136692E+02  0.60055577584E+01  0.40977226498E+01  0.59301942570E+02  0.49999997341E+02 0.  0.
         12    1    1    2    0    0  0.31046136692E+02 -0.60055577584E+01 -0.40977226498E+01  0.31886057430E+02  0.00000000000E+00 0. -1.
         11    1    3    3    0    0 -0.23075185108E+02  0.19213266573E+02 -0.45266194523E+01  0.30366166438E+02  0.51100000000E-03 0. -1.
        -11    1    3    3    0    0  0.72526954635E+01 -0.54335028270E+01  0.75725447161E+01  0.11809656142E+02  0.51100000000E-03 0.  1.
        -12    1    3    3    0    0 -0.15223647048E+02 -0.77742059878E+01  0.10517973860E+01  0.17126119990E+02  0.00000000000E+00 0.  1.
</event>
<event>
 7    1  0.7578565E-012  0.5930193E+02  0.7816164E-02  0.1266605E+00
        -11   -1    0    0    0    0  0.00000000000E+00  0.00000000000E+00  0.45593999997E+02  0.45594000000E+02  0.51100000000E-03 0.  1.
         11   -1    0    0    0    0 -0.00000000000E+00 -0.00000000000E+00 -0.45593999997E+02  0.45594000000E+02  0.51100000000E-03 0. -1.
    9900012    2    1    2    0    0 -0.18164352203E+02 -0.96614463399E+01  0.24360499319E+02  0.59301934652E+02  0.49999982901E+02 0.  0.
         12    1    1    2    0    0  0.18164352203E+02  0.96614463399E+01 -0.24360499319E+02  0.31886065348E+02  0.00000000000E+00 0. -1.
         11    1    3    3    0    0  0.61135141322E+01  0.96826852033E+00 -0.18688945344E+00  0.61925380016E+01  0.51100000000E-03 0. -1.
        -11    1    3    3    0    0 -0.28984039095E+02 -0.62311144084E+01  0.20602267116E+01  0.29717769825E+02  0.51100000000E-03 0.  1.
        -12    1    3    3    0    0  0.47061727597E+01 -0.43986004518E+01  0.22487162060E+02  0.23391626825E+02  0.00000000000E+00 0.  1.
</event>
<event>
 7    1  0.7578565E-012  0.5930194E+02  0.7816164E-02  0.1266605E+00
        -11   -1    0    0    0    0  0.00000000000E+00  0.00000000000E+00  0.45593999997E+02  0.45594000000E+02  0.51100000000E-03 0.  1.
         11   -1    0    0    0    0 -0.00000000000E+00 -0.00000000000E+00 -0.45593999997E+02  0.45594000000E+02  0.51100000000E-03 0. -1.
    9900012    2    1    2    0    0  0.20321820595E+02  0.12918235115E+02  0.20901287921E+02  0.59301936782E+02  0.49999986785E+02 0.  0.
         12    1    1    2    0    0 -0.20321820595E+02 -0.12918235115E+02 -0.20901287921E+02  0.31886063218E+02  0.00000000000E+00 0. -1.
         11    1    3    3    0    0  0.40102015234E+01 -0.19204067662E+01 -0.12719362588E+02  0.13474118276E+02  0.51100000000E-03 0. -1.
        -11    1    3    3    0    0  0.11435045151E+02  0.20620096803E+02  0.25380162230E+02  0.34642478042E+02  0.51100000000E-03 0.  1.
         12    1    3    3    0    0  0.48765739201E+01 -0.57814549220E+01  0.82404882793E+01  0.11185340464E+02  0.00000000000E+00 0. -1.
</event>
<event>
 7    1  0.7578565E-012  0.5930194E+02  0.7816164E-02  0.1266605E+00
        -11   -1    0    0    0    0  0.00000000000E+00  0.00000000000E+00  0.45593999997E+02  0.45594000000E+02  0.51100000000E-03 0.  1.
         11   -1    0    0    0    0 -0.00000000000E+00 -0.00000000000E+00 -0.45593999997E+02  0.45594000000E+02  0.51100000000E-03 0. -1.
    9900012    2    1    2    0    0 -0.27264623687E+02  0.14740110998E+02  0.74893510899E+01  0.59301937892E+02  0.49999988809E+02 0.  0.
         12    1    1    2    0    0  0.27264623687E+02 -0.14740110998E+02 -0.74893510899E+01  0.31886062108E+02  0.00000000000E+00 0. -1.
         11    1    3    3    0    0 -0.23605879122E+02  0.16945834389E+02 -0.50162845261E+01  0.29488335710E+02  0.51100000000E-03 0. -1.
        -11    1    3    3    0    0 -0.15176770728E+01 -0.14499175483E+02  0.70782748408E+01  0.16205906589E+02  0.51100000000E-03 0.  1.
        -12    1    3    3    0    0 -0.21410674925E+01  0.12293452092E+02  0.54273607751E+01  0.13607695592E+02  0.00000000000E+00 0.  1.
</event>
<event>
 7    1  0.7578565E-012  0.5930179E+02  0.7816164E-02  0.1266605E+00
        -11   -1    0    0    0    0  0.00000000000E+00  0.00000000000E+00  0.45593999997E+02  0.45594000000E+02  0.51100000000E-03 0.  1.
         11   -1    0    0    0    0 -0.00000000000E+00 -0.00000000000E+00 -0.45593999997E+02  0.45594000000E+02  0.51100000000E-03 0. -1.
    9900012    2    1    2    0    0  0.19594723212E+02 -0.23078760890E+02  0.10007408250E+02  0.59301786650E+02  0.49999712979E+02 0.  0.
         12    1    1    2    0    0 -0.19594723212E+02  0.23078760890E+02 -0.10007408250E+02  0.31886213350E+02  0.00000000000E+00 0. -1.
         11    1    3    3    0    0  0.57743532258E+01 -0.17229184454E+02  0.24704913357E+02  0.30667909880E+02  0.51100000000E-03 0. -1.
        -11    1    3    3    0    0  0.15605815744E+02 -0.32186041723E+01 -0.26242077375E+01  0.16148912173E+02  0.51100000000E-03 0.  1.
         12    1    3    3    0    0 -0.17854457586E+01 -0.26309722636E+01 -0.12073297370E+02  0.12484964597E+02  0.00000000000E+00 0. -1.
</event>
<event>
 7    1  0.7578565E-012  0.5930195E+02  0.7816164E-02  0.1266605E+00
        -11   -1    0    0    0    0  0.00000000000E+00  0.00000000000E+00  0.45593999997E+02  0.45594000000E+02  0.51100000000E-03 0.  1.
         11   -1    0    0    0    0 -0.00000000000E+00 -0.00000000000E+00 -0.45593999997E+02  0.45594000000E+02  0.51100000000E-03 0. -1.
    9900012    2    1    2    0    0  0.19038300646E+01  0.87112383364E+01  0.30613882095E+02  0.59301952593E+02  0.50000015622E+02 0.  0.
         12    1    1    2    0    0 -0.19038300646E+01 -0.87112383364E+01 -0.30613882095E+02  0.31886047407E+02  0.00000000000E+00 0. -1.
         11    1    3    3    0    0  0.20821257383E+01  0.72631474219E+01 -0.50347254137E+01  0.90794833727E+01  0.51100000000E-03 0. -1.
        -11    1    3    3    0    0  0.15267396851E+02 -0.35656892455E+01  0.28397526410E+02  0.32438049462E+02  0.51100000000E-03 0.  1.
        -12    1    3    3    0    0 -0.15445692525E+02  0.50137801600E+01  0.72510810991E+01  0.17784419759E+02  0.00000000000E+00 0.  1.
</event>
<event>
 7    1  0.7578565E-012  0.5930194E+02  0.7816164E-02  0.1266605E+00
        -11   -1    0    0    0    0  0.00000000000E+00  0.00000000000E+00  0.45593999997E+02  0.45594000000E+02  0.51100000000E-03 0. -1.
         11   -1    0    0    0    0 -0.00000000000E+00 -0.00000000000E+00 -0.45593999997E+02  0.45594000000E+02  0.51100000000E-03 0.  1.
    9900012    2    1    2    0    0  0.25041636329E+02 -0.13545468865E+02 -0.14358187496E+02  0.59301939959E+02  0.49999992579E+02 0.  0.
         12    1    1    2    0    0 -0.25041636329E+02  0.13545468865E+02  0.14358187496E+02  0.31886060041E+02  0.00000000000E+00 0. -1.
         11    1    3    3    0    0  0.18935954293E+02  0.45650198641E+01  0.11286131286E+02  0.22511919754E+02  0.51100000000E-03 0. -1.
        -11    1    3    3    0    0  0.52965543850E+01 -0.19263332191E+02 -0.27788454072E+02  0.34224664139E+02  0.51100000000E-03 0.  1.
        -12    1    3    3    0    0  0.80912765082E+00  0.11528434620E+01  0.21441352894E+01  0.25653560655E+01  0.00000000000E+00 0.  1.
</event>
<event>
 7    1  0.7578565E-012  0.5930197E+02  0.7816164E-02  0.1266605E+00
        -11   -1    0    0    0    0  0.00000000000E+00  0.00000000000E+00  0.45593999997E+02  0.45594000000E+02  0.51100000000E-03 0. -1.
         11   -1    0    0    0    0 -0.00000000000E+00 -0.00000000000E+00 -0.45593999997E+02  0.45594000000E+02  0.51100000000E-03 0.  1.
    9900012    2    1    2    0    0 -0.41320382744E+01  0.31185178939E+02 -0.52086496114E+01  0.59301966121E+02  0.50000040292E+02 0.  0.
         12    1    1    2    0    0  0.41320382744E+01 -0.31185178939E+02  0.52086496114E+01  0.31886033879E+02  0.00000000000E+00 0. -1.
         11    1    3    3    0    0  0.34528922003E+00 -0.51330528119E+01 -0.22812570445E+01  0.56277517517E+01  0.51100000000E-03 0. -1.
        -11    1    3    3    0    0 -0.76973179156E+01  0.42861608551E+02 -0.86575976328E+01  0.44399551661E+02  0.51100000000E-03 0.  1.
        -12    1    3    3    0    0  0.32199904212E+01 -0.65433767994E+01  0.57302050659E+01  0.92746627081E+01  0.00000000000E+00 0.  1.
</event>
<event>
 7    1  0.7578565E-012  0.5930194E+02  0.7816164E-02  0.1266605E+00
        -11   -1    0    0    0    0  0.00000000000E+00  0.00000000000E+00  0.45593999997E+02  0.45594000000E+02  0.51100000000E-03 0.  1.
         11   -1    0    0    0    0 -0.00000000000E+00 -0.00000000000E+00 -0.45593999997E+02  0.45594000000E+02  0.51100000000E-03 0. -1.
    9900012    2    1    2    0    0  0.26131736430E+02 -0.16301150651E+02  0.82538202363E+01  0.59301941763E+02  0.49999995870E+02 0.  0.
         12    1    1    2    0    0 -0.26131736430E+02  0.16301150651E+02 -0.82538202363E+01  0.31886058237E+02  0.00000000000E+00 0. -1.
         11    1    3    3    0    0 -0.28854745767E+01  0.44097505664E+01 -0.10373980531E+02  0.11635778269E+02  0.51100000000E-03 0. -1.
        -11    1    3    3    0    0  0.27771340714E+02 -0.25850392252E+02  0.13420097230E+02  0.40244119503E+02  0.51100000000E-03 0.  1.
         12    1    3    3    0    0  0.12458702925E+01  0.51394910340E+01  0.52077035381E+01  0.74220439917E+01  0.00000000000E+00 0. -1.
</event>
<event>
 7    1  0.7578565E-012  0.5930218E+02  0.7816164E-02  0.1266604E+00
        -11   -1    0    0    0    0  0.00000000000E+00  0.00000000000E+00  0.45593999997E+02  0.45594000000E+02  0.51100000000E-03 0.  1.
         11   -1    0    0    0    0 -0.00000000000E+00 -0.00000000000E+00 -0.45593999997E+02  0.45594000000E+02  0.51100000000E-03 0. -1.
    9900012    2    1    2    0    0 -0.13043217081E+02  0.10696259542E+02  0.27058636051E+02  0.59302183954E+02  0.50000437566E+02 0.  0.
         12    1    1    2    0    0  0.13043217081E+02 -0.10696259542E+02 -0.27058636051E+02  0.31885816046E+02  0.00000000000E+00 0. -1.
         11    1    3    3    0    0  0.64690985235E-01  0.17277207500E+02  0.10269775353E+02  0.20099113662E+02  0.51100000000E-03 0. -1.
        -11    1    3    3    0    0 -0.21075738394E+02 -0.90807315626E+01  0.19816276574E+02  0.30320475789E+02  0.51100000000E-03 0.  1.
         12    1    3    3    0    0  0.79678303279E+01  0.24997836042E+01 -0.30274158766E+01  0.88825945023E+01  0.00000000000E+00 0. -1.
</event>
<event>
 7    1  0.7578565E-012  0.5930195E+02  0.7816164E-02  0.1266605E+00
        -11   -1    0    0    0    0  0.00000000000E+00  0.00000000000E+00  0.45593999997E+02  0.45594000000E+02  0.51100000000E-03 0.  1.
         11   -1    0    0    0    0 -0.00000000000E+00 -0.00000000000E+00 -0.45593999997E+02  0.45594000000E+02  0.51100000000E-03 0. -1.
    9900012    2    1    2    0    0 -0.13768038296E+02  0.18422165021E+02  0.22085861244E+02  0.59301948042E+02  0.50000007320E+02 0.  0.
         12    1    1    2    0    0  0.13768038296E+02 -0.18422165021E+02 -0.22085861244E+02  0.31886051958E+02  0.00000000000E+00 0. -1.
         11    1    3    3    0    0 -0.10612695428E+02 -0.11641667821E+02  0.11282807720E+02  0.19376776930E+02  0.51100000000E-03 0. -1.
        -11    1    3    3    0    0 -0.11593939738E+02  0.25502774466E+02  0.43154262824E+01  0.28344908685E+02  0.51100000000E-03 0.  1.
         12    1    3    3    0    0  0.84385968689E+01  0.45610583765E+01  0.64876272418E+01  0.11580262426E+02  0.00000000000E+00 0. -1.
</event>
<event>
 7    1  0.7578565E-012  0.5930195E+02  0.7816164E-02  0.1266605E+00
        -11   -1    0    0    0    0  0.00000000000E+00  0.00000000000E+00  0.45593999997E+02  0.45594000000E+02  0.51100000000E-03 0.  1.
         11   -1    0    0    0    0 -0.00000000000E+00 -0.00000000000E+00 -0.45593999997E+02  0.45594000000E+02  0.51100000000E-03 0. -1.
    9900012    2    1    2    0    0 -0.11184080587E+02  0.26148547607E+02  0.14418393856E+02  0.59301948474E+02  0.50000008109E+02 0.  0.
         12    1    1    2    0    0  0.11184080587E+02 -0.26148547607E+02 -0.14418393856E+02  0.31886051526E+02  0.00000000000E+00 0. -1.
         11    1    3    3    0    0  0.70126464510E+00  0.16943717535E+02 -0.77253753524E+01  0.18634987540E+02  0.51100000000E-03 0. -1.
        -11    1    3    3    0    0 -0.15730072729E+02  0.14144150339E+02  0.25842500570E+02  0.33396511986E+02  0.51100000000E-03 0.  1.
        -12    1    3    3    0    0  0.38447274969E+01 -0.49393202674E+01 -0.36987313613E+01  0.72704489485E+01  0.00000000000E+00 0.  1.
</event>
<event>
 7    1  0.7578565E-012  0.5930194E+02  0.7816164E-02  0.1266605E+00
        -11   -1    0    0    0    0  0.00000000000E+00  0.00000000000E+00  0.45593999997E+02  0.45594000000E+02  0.51100000000E-03 0. -1.
         11   -1    0    0    0    0 -0.00000000000E+00 -0.00000000000E+00 -0.45593999997E+02  0.45594000000E+02  0.51100000000E-03 0.  1.
    9900012    2    1    2    0    0 -0.99837840721E+01 -0.94881632783E+01 -0.28757953353E+02  0.59301936150E+02  0.49999985633E+02 0.  0.
         12    1    1    2    0    0  0.99837840721E+01  0.94881632783E+01  0.28757953353E+02  0.31886063850E+02  0.00000000000E+00 0. -1.
         11    1    3    3    0    0  0.15449824410E+02  0.91783214499E+01 -0.12539446218E+02  0.21912927022E+02  0.51100000000E-03 0. -1.
        -11    1    3    3    0    0 -0.32509525344E+01 -0.34621306615E+00 -0.60467246995E+01  0.68739679749E+01  0.51100000000E-03 0.  1.
         12    1    3    3    0    0 -0.22182655948E+02 -0.18320271662E+02 -0.10171782436E+02  0.30515041153E+02  0.00000000000E+00 0. -1.
</event>
<event>
 7    1  0.7578565E-012  0.5930195E+02  0.7816164E-02  0.1266605E+00
        -11   -1    0    0    0    0  0.00000000000E+00  0.00000000000E+00  0.45593999997E+02  0.45594000000E+02  0.51100000000E-03 0.  1.
         11   -1    0    0    0    0 -0.00000000000E+00 -0.00000000000E+00 -0.45593999997E+02  0.45594000000E+02  0.51100000000E-03 0. -1.
    9900012    2    1    2    0    0  0.45087850758E+01  0.20967923848E+02 -0.23595280125E+02  0.59301949484E+02  0.50000009950E+02 0.  0.
         12    1    1    2    0    0 -0.45087850758E+01 -0.20967923848E+02  0.23595280125E+02  0.31886050516E+02  0.00000000000E+00 0. -1.
         11    1    3    3    0    0  0.68392973400E+01  0.29824819014E+01 -0.36037343704E+02  0.36801648440E+02  0.51100000000E-03 0. -1.
        -11    1    3    3    0    0 -0.24468736516E+01  0.13391476286E+02  0.11474707706E+02  0.17804149656E+02  0.51100000000E-03 0.  1.
         12    1    3    3    0    0  0.11636138737E+00  0.45939656607E+01  0.96735587322E+00  0.46961513870E+01  0.00000000000E+00 0. -1.
</event>
<event>
 7    1  0.7578565E-012  0.5930193E+02  0.7816164E-02  0.1266605E+00
        -11   -1    0    0    0    0  0.00000000000E+00  0.00000000000E+00  0.45593999997E+02  0.45594000000E+02  0.51100000000E-03 0. -1.
         11   -1    0    0    0    0 -0.00000000000E+00 -0.00000000000E+00 -0.45593999997E+02  0.45594000000E+02  0.51100000000E-03 0.  1.
    9900012    2    1    2    0    0  0.20046331684E+02 -0.23120474296E+02 -0.89615628426E+01  0.59301931659E+02  0.49999977442E+02 0.  0.
         12    1    1    2    0    0 -0.20046331684E+02  0.23120474296E+02  0.89615628426E+01  0.31886068341E+02  0.00000000000E+00 0. -1.
         11    1    3    3    0    0 -0.12501613614E+02  0.27801264192E+01 -0.13964086590E+01  0.12882911288E+02  0.51100000000E-03 0. -1.
        -11    1    3    3    0    0  0.16088798113E+02 -0.49472527057E+01 -0.10139223713E+02  0.19650155007E+02  0.51100000000E-03 0.  1.
        -12    1    3    3    0    0  0.16459147185E+02 -0.20953348010E+02  0.25740695294E+01  0.26768865363E+02  0.00000000000E+00 0.  1.
</event>
<event>
 7    1  0.7578565E-012  0.5930204E+02  0.7816164E-02  0.1266604E+00
        -11   -1    0    0    0    0  0.00000000000E+00  0.00000000000E+00  0.45593999997E+02  0.45594000000E+02  0.51100000000E-03 0.  1.
         11   -1    0    0    0    0 -0.00000000000E+00 -0.00000000000E+00 -0.45593999997E+02  0.45594000000E+02  0.51100000000E-03 0. -1.
    9900012    2    1    2    0    0 -0.16318947222E+02  0.24026358135E+02  0.13158299075E+02  0.59302035090E+02  0.50000166076E+02 0.  0.
         12    1    1    2    0    0  0.16318947222E+02 -0.24026358135E+02 -0.13158299075E+02  0.31885964910E+02  0.00000000000E+00 0. -1.
         11    1    3    3    0    0 -0.14213650143E+02 -0.63144824234E+01 -0.10008257868E+02  0.18495019991E+02  0.51100000000E-03 0. -1.
        -11    1    3    3    0    0  0.32482338173E+01  0.19217575121E+02  0.75518309742E+01  0.20902066113E+02  0.51100000000E-03 0.  1.
         12    1    3    3    0    0 -0.53535308969E+01  0.11123265438E+02  0.15614725969E+02  0.19904948987E+02  0.00000000000E+00 0. -1.
</event>
<event>
 7    1  0.7578565E-012  0.5930194E+02  0.7816164E-02  0.1266605E+00
        -11   -1    0    0    0    0  0.00000000000E+00  0.00000000000E+00  0.45593999997E+02  0.45594000000E+02  0.51100000000E-03 0.  1.
         11   -1    0    0    0    0 -0.00000000000E+00 -0.00000000000E+00 -0.45593999997E+02  0.45594000000E+02  0.51100000000E-03 0. -1.
    9900012    2    1    2    0    0  0.67017522379E+01 -0.66775303925E+01  0.30450248147E+02  0.59301944938E+02  0.50000001661E+02 0.  0.
         12    1    1    2    0    0 -0.67017522379E+01  0.66775303925E+01 -0.30450248147E+02  0.31886055062E+02  0.00000000000E+00 0. -1.
         11    1    3    3    0    0 -0.15574443710E+02 -0.13169576443E+02  0.94422592820E+00  0.20417948071E+02  0.51100000000E-03 0. -1.
        -11    1    3    3    0    0  0.15878633429E+02 -0.37517812431E+00  0.17274948233E+02  0.23466904247E+02  0.51100000000E-03 0.  1.
         12    1    3    3    0    0  0.63975625182E+01  0.68672241748E+01  0.12231073985E+02  0.15417092621E+02  0.00000000000E+00 0. -1.
</event>
<event>
 7    1  0.7578565E-012  0.5930201E+02  0.7816164E-02  0.1266605E+00
        -11   -1    0    0    0    0  0.00000000000E+00  0.00000000000E+00  0.45593999997E+02  0.45594000000E+02  0.51100000000E-03 0.  1.
         11   -1    0    0    0    0 -0.00000000000E+00 -0.00000000000E+00 -0.45593999997E+02  0.45594000000E+02  0.51100000000E-03 0. -1.
    9900012    2    1    2    0    0  0.20907663963E+02 -0.16670748714E+02  0.17368715028E+02  0.59302007201E+02  0.50000115212E+02 0.  0.
         12    1    1    2    0    0 -0.20907663963E+02  0.16670748714E+02 -0.17368715028E+02  0.31885992799E+02  0.00000000000E+00 0. -1.
         11    1    3    3    0    0 -0.63500108999E+01 -0.14669842012E+02  0.21463133008E+02  0.26761782113E+02  0.51100000000E-03 0. -1.
        -11    1    3    3    0    0  0.13886966255E+02  0.47301085490E+01  0.44161327287E+01  0.15320704527E+02  0.51100000000E-03 0.  1.
         12    1    3    3    0    0  0.13370708608E+02 -0.67310152505E+01 -0.85105507089E+01  0.17219520561E+02  0.00000000000E+00 0. -1.
</event>
<event>
 7    1  0.7578565E-012  0.5930194E+02  0.7816164E-02  0.1266605E+00
        -11   -1    0    0    0    0  0.00000000000E+00  0.00000000000E+00  0.45593999997E+02  0.45594000000E+02  0.51100000000E-03 0.  1.
         11   -1    0    0    0    0 -0.00000000000E+00 -0.00000000000E+00 -0.45593999997E+02  0.45594000000E+02  0.51100000000E-03 0. -1.
    9900012    2    1    2    0    0 -0.15241201084E+02  0.10586224892E+02  0.25929871915E+02  0.59301943087E+02  0.49999998284E+02 0.  0.
         12    1    1    2    0    0  0.15241201084E+02 -0.10586224892E+02 -0.25929871915E+02  0.31886056913E+02  0.00000000000E+00 0. -1.
         11    1    3    3    0    0 -0.12835597405E+02  0.16996551743E+02 -0.69831386912E+01  0.22414271305E+02  0.51100000000E-03 0. -1.
        -11    1    3    3    0    0 -0.85640615334E+01 -0.39145827709E+01  0.23914663472E+02  0.25701716625E+02  0.51100000000E-03 0.  1.
         12    1    3    3    0    0  0.61584578537E+01 -0.24957440797E+01  0.89983471334E+01  0.11185955157E+02  0.00000000000E+00 0. -1.
</event>
<event>
 7    1  0.7578565E-012  0.5930180E+02  0.7816164E-02  0.1266605E+00
        -11   -1    0    0    0    0  0.00000000000E+00  0.00000000000E+00  0.45593999997E+02  0.45594000000E+02  0.51100000000E-03 0.  1.
         11   -1    0    0    0    0 -0.00000000000E+00 -0.00000000000E+00 -0.45593999997E+02  0.45594000000E+02  0.51100000000E-03 0. -1.
    9900012    2    1    2    0    0  0.11475179496E+02 -0.18284519965E+02  0.23467556173E+02  0.59301802241E+02  0.49999741414E+02 0.  0.
         12    1    1    2    0    0 -0.11475179496E+02  0.18284519965E+02 -0.23467556173E+02  0.31886197759E+02  0.00000000000E+00 0. -1.
         11    1    3    3    0    0 -0.10810616516E+02 -0.97217036600E+00 -0.45588378040E+01  0.11772745944E+02  0.51100000000E-03 0. -1.
        -11    1    3    3    0    0  0.24718023848E+02 -0.17104638831E+02  0.13766173939E+02  0.33061411308E+02  0.51100000000E-03 0.  1.
         12    1    3    3    0    0 -0.24322278361E+01 -0.20771076757E+00  0.14260220037E+02  0.14467644989E+02  0.00000000000E+00 0. -1.
</event>
<event>
 7    1  0.7578565E-012  0.5930196E+02  0.7816164E-02  0.1266605E+00
        -11   -1    0    0    0    0  0.00000000000E+00  0.00000000000E+00  0.45593999997E+02  0.45594000000E+02  0.51100000000E-03 0.  1.
         11   -1    0    0    0    0 -0.00000000000E+00 -0.00000000000E+00 -0.45593999997E+02  0.45594000000E+02  0.51100000000E-03 0. -1.
    9900012    2    1    2    0    0  0.17583561576E+02 -0.25010461888E+02  0.90562001976E+01  0.59301959111E+02  0.50000027508E+02 0.  0.
         12    1    1    2    0    0 -0.17583561576E+02  0.25010461888E+02 -0.90562001976E+01  0.31886040889E+02  0.00000000000E+00 0. -1.
         11    1    3    3    0    0 -0.73289616670E+01 -0.20654673908E+02  0.21517100689E+02  0.30713431194E+02  0.51100000000E-03 0.  1.
        -11    1    3    3    0    0  0.18145812388E+01 -0.13345011151E+01 -0.21500787485E+01  0.31139102724E+01  0.51100000000E-03 0. -1.
         12    1    3    3    0    0  0.23097942004E+02 -0.30212868649E+01 -0.10310821742E+02  0.25474617645E+02  0.00000000000E+00 0. -1.
</event>
<event>
 7    1  0.7578565E-012  0.5930196E+02  0.7816164E-02  0.1266605E+00
        -11   -1    0    0    0    0  0.00000000000E+00  0.00000000000E+00  0.45593999997E+02  0.45594000000E+02  0.51100000000E-03 0. -1.
         11   -1    0    0    0    0 -0.00000000000E+00 -0.00000000000E+00 -0.45593999997E+02  0.45594000000E+02  0.51100000000E-03 0.  1.
    9900012    2    1    2    0    0 -0.14431080748E+02 -0.20228501555E+02 -0.19981774237E+02  0.59301958095E+02  0.50000025656E+02 0.  0.
         12    1    1    2    0    0  0.14431080748E+02  0.20228501555E+02  0.19981774237E+02  0.31886041905E+02  0.00000000000E+00 0. -1.
         11    1    3    3    0    0 -0.77025075276E+01 -0.19356975666E+02 -0.48276858594E+00  0.20838766636E+02  0.51100000000E-03 0.  1.
        -11    1    3    3    0    0 -0.13360246400E+02 -0.20544933770E+01 -0.25871716270E+02  0.29190115277E+02  0.51100000000E-03 0. -1.
         12    1    3    3    0    0  0.66316731797E+01  0.11829674880E+01  0.63727106190E+01  0.92730761818E+01  0.00000000000E+00 0. -1.
</event>
<event>
 7    1  0.7578565E-012  0.5930194E+02  0.7816164E-02  0.1266605E+00
        -11   -1    0    0    0    0  0.00000000000E+00  0.00000000000E+00  0.45593999997E+02  0.45594000000E+02  0.51100000000E-03 0.  1.
         11   -1    0    0    0    0 -0.00000000000E+00 -0.00000000000E+00 -0.45593999997E+02  0.45594000000E+02  0.51100000000E-03 0. -1.
    9900012    2    1    2    0    0  0.23506831793E+02 -0.19366624456E+02 -0.94384098066E+01  0.59301939356E+02  0.49999991479E+02 0.  0.
         12    1    1    2    0    0 -0.23506831793E+02  0.19366624456E+02  0.94384098066E+01  0.31886060644E+02  0.00000000000E+00 0. -1.
         11    1    3    3    0    0  0.12428953858E+02  0.51755793729E+01  0.15244568809E+02  0.20338692050E+02  0.51100000000E-03 0. -1.
        -11    1    3    3    0    0  0.78524308670E+01 -0.16608032871E+02 -0.76535803152E+01  0.19901374784E+02  0.51100000000E-03 0.  1.
         12    1    3    3    0    0  0.32254470677E+01 -0.79341709576E+01 -0.17029398301E+02  0.19061872522E+02  0.00000000000E+00 0. -1.
</event>
<event>
 7    1  0.7578565E-012  0.5930199E+02  0.7816164E-02  0.1266605E+00
        -11   -1    0    0    0    0  0.00000000000E+00  0.00000000000E+00  0.45593999997E+02  0.45594000000E+02  0.51100000000E-03 0.  1.
         11   -1    0    0    0    0 -0.00000000000E+00 -0.00000000000E+00 -0.45593999997E+02  0.45594000000E+02  0.51100000000E-03 0. -1.
    9900012    2    1    2    0    0 -0.44756902629E+01  0.58725604532E+01  0.31019331451E+02  0.59301989066E+02  0.50000082138E+02 0.  0.
         12    1    1    2    0    0  0.44756902629E+01 -0.58725604532E+01 -0.31019331451E+02  0.31886010934E+02  0.00000000000E+00 0. -1.
         11    1    3    3    0    0 -0.25189857629E+02  0.42718988281E+01  0.17336198739E+02  0.30875910253E+02  0.51100000000E-03 0. -1.
        -11    1    3    3    0    0  0.86889933575E+01 -0.16258012476E+01 -0.13111633124E+01  0.89364973427E+01  0.51100000000E-03 0.  1.
         12    1    3    3    0    0  0.12025174008E+02  0.32264628726E+01  0.14994296025E+02  0.19489581470E+02  0.00000000000E+00 0. -1.
</event>
<event>
 7    1  0.7578565E-012  0.5930195E+02  0.7816164E-02  0.1266605E+00
        -11   -1    0    0    0    0  0.00000000000E+00  0.00000000000E+00  0.45593999997E+02  0.45594000000E+02  0.51100000000E-03 0.  1.
         11   -1    0    0    0    0 -0.00000000000E+00 -0.00000000000E+00 -0.45593999997E+02  0.45594000000E+02  0.51100000000E-03 0. -1.
    9900012    2    1    2    0    0  0.15598508353E+02 -0.26740119905E+02 -0.76402083875E+01  0.59301948824E+02  0.50000008747E+02 0.  0.
         12    1    1    2    0    0 -0.15598508353E+02  0.26740119905E+02  0.76402083875E+01  0.31886051176E+02  0.00000000000E+00 0. -1.
         11    1    3    3    0    0 -0.54289758042E+01 -0.26427467671E+02 -0.36227598512E+01  0.27221484438E+02  0.51100000000E-03 0. -1.
        -11    1    3    3    0    0  0.21110400806E+02 -0.38025902655E+01  0.53299890113E+01  0.22102431948E+02  0.51100000000E-03 0.  1.
         12    1    3    3    0    0 -0.82916648130E-01  0.34899380311E+01 -0.93474375476E+01  0.99780324382E+01  0.00000000000E+00 0. -1.
</event>
<event>
 7    1  0.7578565E-012  0.5930199E+02  0.7816164E-02  0.1266605E+00
        -11   -1    0    0    0    0  0.00000000000E+00  0.00000000000E+00  0.45593999997E+02  0.45594000000E+02  0.51100000000E-03 0.  1.
         11   -1    0    0    0    0 -0.00000000000E+00 -0.00000000000E+00 -0.45593999997E+02  0.45594000000E+02  0.51100000000E-03 0. -1.
    9900012    2    1    2    0    0  0.29388040639E+02  0.28386353712E+01 -0.12041714366E+02  0.59301989458E+02  0.50000082855E+02 0.  0.
         12    1    1    2    0    0 -0.29388040639E+02 -0.28386353712E+01  0.12041714366E+02  0.31886010542E+02  0.00000000000E+00 0. -1.
         11    1    3    3    0    0 -0.82847403982E+01 -0.44535923885E+01 -0.14647116180E+02  0.17407165803E+02  0.51100000000E-03 0. -1.
        -11    1    3    3    0    0  0.21210629002E+02  0.10239380282E+02  0.70593538521E+01  0.24588008629E+02  0.51100000000E-03 0.  1.
        -12    1    3    3    0    0  0.16462152035E+02 -0.29471525228E+01 -0.44539520378E+01  0.17306815027E+02  0.00000000000E+00 0.  1.
</event>
<event>
 7    1  0.7578565E-012  0.5930192E+02  0.7816164E-02  0.1266605E+00
        -11   -1    0    0    0    0  0.00000000000E+00  0.00000000000E+00  0.45593999997E+02  0.45594000000E+02  0.51100000000E-03 0. -1.
         11   -1    0    0    0    0 -0.00000000000E+00 -0.00000000000E+00 -0.45593999997E+02  0.45594000000E+02  0.51100000000E-03 0.  1.
    9900012    2    1    2    0    0  0.24570104400E+02 -0.15434228052E+02 -0.13221823841E+02  0.59301920726E+02  0.49999957503E+02 0.  0.
         12    1    1    2    0    0 -0.24570104400E+02  0.15434228052E+02  0.13221823841E+02  0.31886079274E+02  0.00000000000E+00 0. -1.
         11    1    3    3    0    0  0.28074254723E+02 -0.14571564762E+01 -0.14263421360E+02  0.31523519353E+02  0.51100000000E-03 0. -1.
        -11    1    3    3    0    0 -0.38905142321E+01 -0.16232971440E+02 -0.79578271106E+01  0.18492497813E+02  0.51100000000E-03 0.  1.
        -12    1    3    3    0    0  0.38636390924E+00  0.22558998647E+01  0.89994246297E+01  0.92859035605E+01  0.00000000000E+00 0.  1.
</event>
<event>
 7    1  0.7578565E-012  0.5930200E+02  0.7816164E-02  0.1266605E+00
        -11   -1    0    0    0    0  0.00000000000E+00  0.00000000000E+00  0.45593999997E+02  0.45594000000E+02  0.51100000000E-03 0. -1.
         11   -1    0    0    0    0 -0.00000000000E+00 -0.00000000000E+00 -0.45593999997E+02  0.45594000000E+02  0.51100000000E-03 0.  1.
    9900012    2    1    2    0    0 -0.15068641354E+02 -0.27319154402E+02 -0.65815413359E+01  0.59302002511E+02  0.50000106659E+02 0.  0.
         12    1    1    2    0    0  0.15068641354E+02  0.27319154402E+02  0.65815413359E+01  0.31885997489E+02  0.00000000000E+00 0. -1.
         11    1    3    3    0    0  0.11955581106E+02  0.32763505722E+01 -0.65512247513E+00  0.12413685125E+02  0.51100000000E-03 0. -1.
        -11    1    3    3    0    0 -0.23687412205E+02 -0.11829524332E+02 -0.81396647814E+01  0.27699914908E+02  0.51100000000E-03 0.  1.
         12    1    3    3    0    0 -0.33368102561E+01 -0.18765980643E+02  0.22132459207E+01  0.19188402478E+02  0.00000000000E+00 0. -1.
</event>
<event>
 7    1  0.7578565E-012  0.5930193E+02  0.7816164E-02  0.1266605E+00
        -11   -1    0    0    0    0  0.00000000000E+00  0.00000000000E+00  0.45593999997E+02  0.45594000000E+02  0.51100000000E-03 0.  1.
         11   -1    0    0    0    0 -0.00000000000E+00 -0.00000000000E+00 -0.45593999997E+02  0.45594000000E+02  0.51100000000E-03 0. -1.
    9900012    2    1    2    0    0  0.31245258813E+02 -0.37605991122E+01  0.51296339865E+01  0.59301930177E+02  0.49999974739E+02 0.  0.
         12    1    1    2    0    0 -0.31245258813E+02  0.37605991122E+01 -0.51296339865E+01  0.31886069823E+02  0.00000000000E+00 0. -1.
         11    1    3    3    0    0  0.28968064201E+02 -0.16081260416E+02  0.15454830695E+00  0.33132756685E+02  0.51100000000E-03 0.  1.
        -11    1    3    3    0    0  0.79743779565E+01  0.11075987271E+02 -0.50656831946E+01  0.14557793250E+02  0.51100000000E-03 0. -1.
         12    1    3    3    0    0 -0.56971833454E+01  0.12446740324E+01  0.10040768874E+02  0.11611380241E+02  0.00000000000E+00 0. -1.
</event>
<event>
 7    1  0.7578565E-012  0.5930194E+02  0.7816164E-02  0.1266605E+00
        -11   -1    0    0    0    0  0.00000000000E+00  0.00000000000E+00  0.45593999997E+02  0.45594000000E+02  0.51100000000E-03 0.  1.
         11   -1    0    0    0    0 -0.00000000000E+00 -0.00000000000E+00 -0.45593999997E+02  0.45594000000E+02  0.51100000000E-03 0. -1.
    9900012    2    1    2    0    0 -0.28779087628E+02 -0.12943057597E+02  0.45784222926E+01  0.59301943873E+02  0.49999999717E+02 0.  0.
         12    1    1    2    0    0  0.28779087628E+02  0.12943057597E+02 -0.45784222926E+01  0.31886056127E+02  0.00000000000E+00 0. -1.
         11    1    3    3    0    0 -0.49365986452E+01 -0.14810534638E+02 -0.88053966428E+01  0.17923642285E+02  0.51100000000E-03 0. -1.
        -11    1    3    3    0    0 -0.23962175178E+02  0.11085407505E+02  0.16463577218E+01  0.26453404182E+02  0.51100000000E-03 0.  1.
        -12    1    3    3    0    0  0.11968619507E+00 -0.92179304642E+01  0.11737461214E+02  0.14924897406E+02  0.00000000000E+00 0.  1.
</event>
<event>
 7    1  0.7578565E-012  0.5930196E+02  0.7816164E-02  0.1266605E+00
        -11   -1    0    0    0    0  0.00000000000E+00  0.00000000000E+00  0.45593999997E+02  0.45594000000E+02  0.51100000000E-03 0.  1.
         11   -1    0    0    0    0 -0.00000000000E+00 -0.00000000000E+00 -0.45593999997E+02  0.45594000000E+02  0.51100000000E-03 0. -1.
    9900012    2    1    2    0    0 -0.28169686782E+02 -0.31758482437E+01 -0.14598020382E+02  0.59301961292E+02  0.50000031485E+02 0.  0.
         12    1    1    2    0    0  0.28169686782E+02  0.31758482437E+01  0.14598020382E+02  0.31886038708E+02  0.00000000000E+00 0. -1.
         11    1    3    3    0    0 -0.24066359403E+02  0.13432771368E+02 -0.15933652063E+02  0.31835676055E+02  0.51100000000E-03 0. -1.
        -11    1    3    3    0    0 -0.44543353997E+01 -0.61267197292E+01  0.10899115053E+02  0.13272848515E+02  0.51100000000E-03 0.  1.
        -12    1    3    3    0    0  0.35100802155E+00 -0.10481899882E+02 -0.95634833724E+01  0.14193436722E+02  0.00000000000E+00 0.  1.
</event>
<event>
 7    1  0.7578565E-012  0.5930196E+02  0.7816164E-02  0.1266605E+00
        -11   -1    0    0    0    0  0.00000000000E+00  0.00000000000E+00  0.45593999997E+02  0.45594000000E+02  0.51100000000E-03 0.  1.
         11   -1    0    0    0    0 -0.00000000000E+00 -0.00000000000E+00 -0.45593999997E+02  0.45594000000E+02  0.51100000000E-03 0. -1.
    9900012    2    1    2    0    0  0.62876962096E+01  0.72392042134E+01  0.30410167106E+02  0.59301961289E+02  0.50000031481E+02 0.  0.
         12    1    1    2    0    0 -0.62876962096E+01 -0.72392042134E+01 -0.30410167106E+02  0.31886038711E+02  0.00000000000E+00 0. -1.
         11    1    3    3    0    0  0.58873468837E+01  0.22912288351E+02  0.28804081726E+02  0.37273434711E+02  0.51100000000E-03 0. -1.
        -11    1    3    3    0    0 -0.88539046882E+00 -0.40737291575E+01  0.77793654846E+01  0.88259681132E+01  0.51100000000E-03 0.  1.
         12    1    3    3    0    0  0.12857397948E+01 -0.11599354980E+02 -0.61732801051E+01  0.13202558465E+02  0.00000000000E+00 0. -1.
</event>
<event>
 7    1  0.7578565E-012  0.5930193E+02  0.7816164E-02  0.1266605E+00
        -11   -1    0    0    0    0  0.00000000000E+00  0.00000000000E+00  0.45593999997E+02  0.45594000000E+02  0.51100000000E-03 0. -1.
         11   -1    0    0    0    0 -0.00000000000E+00 -0.00000000000E+00 -0.45593999997E+02  0.45594000000E+02  0.51100000000E-03 0.  1.
    9900012    2    1    2    0    0  0.26220954632E+02 -0.17774671161E+02 -0.36391963902E+01  0.59301934908E+02  0.49999983368E+02 0.  0.
         12    1    1    2    0    0 -0.26220954632E+02  0.17774671161E+02  0.36391963902E+01  0.31886065092E+02  0.00000000000E+00 0. -1.
         11    1    3    3    0    0 -0.78542651434E+01  0.11777674430E+01  0.51765545986E+01  0.94801547913E+01  0.51100000000E-03 0. -1.
        -11    1    3    3    0    0  0.13422489693E+02 -0.22452002575E+02  0.20233902668E+01  0.26236420442E+02  0.51100000000E-03 0.  1.
        -12    1    3    3    0    0  0.20652730082E+02  0.34995639714E+01 -0.10839141256E+02  0.23585359675E+02  0.00000000000E+00 0.  1.
</event>
<event>
 7    1  0.7578565E-012  0.5930197E+02  0.7816164E-02  0.1266605E+00
        -11   -1    0    0    0    0  0.00000000000E+00  0.00000000000E+00  0.45593999997E+02  0.45594000000E+02  0.51100000000E-03 0.  1.
         11   -1    0    0    0    0 -0.00000000000E+00 -0.00000000000E+00 -0.45593999997E+02  0.45594000000E+02  0.51100000000E-03 0. -1.
    9900012    2    1    2    0    0 -0.24435691517E+02  0.17342054111E+02  0.10902719090E+02  0.59301966314E+02  0.50000040644E+02 0.  0.
         12    1    1    2    0    0  0.24435691517E+02 -0.17342054111E+02 -0.10902719090E+02  0.31886033686E+02  0.00000000000E+00 0. -1.
         11    1    3    3    0    0 -0.20513902726E+02  0.16501054449E+02  0.20306008151E+02  0.33248142358E+02  0.51100000000E-03 0. -1.
        -11    1    3    3    0    0  0.78160565498E+01 -0.18611920520E+01  0.31744118201E+01  0.86389621199E+01  0.51100000000E-03 0.  1.
         12    1    3    3    0    0 -0.11737845341E+02  0.27021917144E+01 -0.12577700881E+02  0.17414861836E+02  0.00000000000E+00 0. -1.
</event>
<event>
 7    1  0.7578565E-012  0.5930197E+02  0.7816164E-02  0.1266605E+00
        -11   -1    0    0    0    0  0.00000000000E+00  0.00000000000E+00  0.45593999997E+02  0.45594000000E+02  0.51100000000E-03 0.  1.
         11   -1    0    0    0    0 -0.00000000000E+00 -0.00000000000E+00 -0.45593999997E+02  0.45594000000E+02  0.51100000000E-03 0. -1.
    9900012    2    1    2    0    0  0.13553797353E+00  0.10052769174E+02  0.30259582713E+02  0.59301970386E+02  0.50000048070E+02 0.  0.
         12    1    1    2    0    0 -0.13553797353E+00 -0.10052769174E+02 -0.30259582713E+02  0.31886029614E+02  0.00000000000E+00 0. -1.
         11    1    3    3    0    0  0.59071066078E+00 -0.27608446214E+01 -0.73920320301E+01  0.79128591484E+01  0.51100000000E-03 0. -1.
        -11    1    3    3    0    0  0.10463405257E+02  0.18914501977E+02  0.18170004810E+02  0.28238100320E+02  0.51100000000E-03 0.  1.
        -12    1    3    3    0    0 -0.10918577944E+02 -0.61008881815E+01  0.19481609933E+02  0.23151010917E+02  0.00000000000E+00 0.  1.
</event>
<event>
 7    1  0.7578565E-012  0.5930195E+02  0.7816164E-02  0.1266605E+00
        -11   -1    0    0    0    0  0.00000000000E+00  0.00000000000E+00  0.45593999997E+02  0.45594000000E+02  0.51100000000E-03 0.  1.
         11   -1    0    0    0    0 -0.00000000000E+00 -0.00000000000E+00 -0.45593999997E+02  0.45594000000E+02  0.51100000000E-03 0. -1.
    9900012    2    1    2    0    0  0.79650113302E+01 -0.29215999378E+02  0.99851938134E+01  0.59301951003E+02  0.50000012722E+02 0.  0.
         12    1    1    2    0    0 -0.79650113302E+01  0.29215999378E+02 -0.99851938134E+01  0.31886048997E+02  0.00000000000E+00 0. -1.
         11    1    3    3    0    0  0.10866848644E+02  0.67355815858E+01 -0.11024415194E+01  0.12832452467E+02  0.51100000000E-03 0. -1.
        -11    1    3    3    0    0  0.58481473041E+01 -0.28782265020E+02  0.16758983613E+02  0.33815427523E+02  0.51100000000E-03 0.  1.
        -12    1    3    3    0    0 -0.87499846176E+01 -0.71693159435E+01 -0.56713482800E+01  0.12654071014E+02  0.00000000000E+00 0.  1.
</event>
<event>
 7    1  0.7578565E-012  0.5930193E+02  0.7816164E-02  0.1266605E+00
        -11   -1    0    0    0    0  0.00000000000E+00  0.00000000000E+00  0.45593999997E+02  0.45594000000E+02  0.51100000000E-03 0.  1.
         11   -1    0    0    0    0 -0.00000000000E+00 -0.00000000000E+00 -0.45593999997E+02  0.45594000000E+02  0.51100000000E-03 0. -1.
    9900012    2    1    2    0    0  0.19044660545E+02 -0.25175736121E+02 -0.44949482803E+01  0.59301931811E+02  0.49999977719E+02 0.  0.
         12    1    1    2    0    0 -0.19044660545E+02  0.25175736121E+02  0.44949482803E+01  0.31886068189E+02  0.00000000000E+00 0. -1.
         11    1    3    3    0    0 -0.35069774272E+01 -0.14664371466E+02 -0.21164424405E+02  0.25986064377E+02  0.51100000000E-03 0. -1.
        -11    1    3    3    0    0  0.20044014823E+02 -0.33028858751E+01  0.15591474095E+02  0.25607921627E+02  0.51100000000E-03 0.  1.
         12    1    3    3    0    0  0.25076231495E+01 -0.72084787799E+01  0.10780020296E+01  0.77079458065E+01  0.00000000000E+00 0. -1.
</event>
<event>
 7    1  0.7578565E-012  0.5930184E+02  0.7816164E-02  0.1266605E+00
        -11   -1    0    0    0    0  0.00000000000E+00  0.00000000000E+00  0.45593999997E+02  0.45594000000E+02  0.51100000000E-03 0.  1.
         11   -1    0    0    0    0 -0.00000000000E+00 -0.00000000000E+00 -0.45593999997E+02  0.45594000000E+02  0.51100000000E-03 0. -1.
    9900012    2    1    2    0    0 -0.19151932968E+02  0.16665003663E+02  0.19292707951E+02  0.59301835860E+02  0.49999802727E+02 0.  0.
         12    1    1    2    0    0  0.19151932968E+02 -0.16665003663E+02 -0.19292707951E+02  0.31886164140E+02  0.00000000000E+00 0. -1.
         11    1    3    3    0    0 -0.17369894748E+02  0.98845293206E+01  0.91393005902E+00  0.20006309801E+02  0.51100000000E-03 0. -1.
        -11    1    3    3    0    0  0.26167821325E+00 -0.57168805323E+01  0.24550199113E+02  0.25208400887E+02  0.51100000000E-03 0.  1.
        -12    1    3    3    0    0 -0.20437164333E+01  0.12497354874E+02 -0.61714212212E+01  0.14087125172E+02  0.00000000000E+00 0.  1.
</event>
<event>
 7    1  0.7578565E-012  0.5930188E+02  0.7816164E-02  0.1266605E+00
        -11   -1    0    0    0    0  0.00000000000E+00  0.00000000000E+00  0.45593999997E+02  0.45594000000E+02  0.51100000000E-03 0. -1.
         11   -1    0    0    0    0 -0.00000000000E+00 -0.00000000000E+00 -0.45593999997E+02  0.45594000000E+02  0.51100000000E-03 0.  1.
    9900012    2    1    2    0    0 -0.29739931685E+02 -0.78468084353E+01  0.84076535830E+01  0.59301881108E+02  0.49999885249E+02 0.  0.
         12    1    1    2    0    0  0.29739931685E+02  0.78468084353E+01 -0.84076535830E+01  0.31886118892E+02  0.00000000000E+00 0. -1.
         11    1    3    3    0    0 -0.32579216583E+02  0.33391971240E+01  0.82294108403E+01  0.33768014357E+02  0.51100000000E-03 0. -1.
        -11    1    3    3    0    0  0.48552842347E+01 -0.68239668133E+01  0.10922612547E+02  0.13763857497E+02  0.51100000000E-03 0.  1.
         12    1    3    3    0    0 -0.20159993368E+01 -0.43620387460E+01 -0.10744369805E+02  0.11770009254E+02  0.00000000000E+00 0. -1.
</event>
<event>
 7    1  0.7578565E-012  0.5930198E+02  0.7816164E-02  0.1266605E+00
        -11   -1    0    0    0    0  0.00000000000E+00  0.00000000000E+00  0.45593999997E+02  0.45594000000E+02  0.51100000000E-03 0.  1.
         11   -1    0    0    0    0 -0.00000000000E+00 -0.00000000000E+00 -0.45593999997E+02  0.45594000000E+02  0.51100000000E-03 0. -1.
    9900012    2    1    2    0    0 -0.21383170585E+02  0.23326030350E+02 -0.39210140143E+01  0.59301983832E+02  0.50000072594E+02 0.  0.
         12    1    1    2    0    0  0.21383170585E+02 -0.23326030350E+02  0.39210140143E+01  0.31886016168E+02  0.00000000000E+00 0. -1.
         11    1    3    3    0    0 -0.75074163533E+01  0.15621816922E+02 -0.26231267180E+01  0.17529496806E+02  0.51100000000E-03 0. -1.
        -11    1    3    3    0    0 -0.17876304642E+02 -0.67688237982E+01 -0.12673211213E+02  0.22934461537E+02  0.51100000000E-03 0.  1.
        -12    1    3    3    0    0  0.40005504102E+01  0.14473037226E+02  0.11375323916E+02  0.18838025489E+02  0.00000000000E+00 0.  1.
</event>
<event>
 7    1  0.7578565E-012  0.5930193E+02  0.7816164E-02  0.1266605E+00
        -11   -1    0    0    0    0  0.00000000000E+00  0.00000000000E+00  0.45593999997E+02  0.45594000000E+02  0.51100000000E-03 0. -1.
         11   -1    0    0    0    0 -0.00000000000E+00 -0.00000000000E+00 -0.45593999997E+02  0.45594000000E+02  0.51100000000E-03 0.  1.
    9900012    2    1    2    0    0  0.24211494346E+01  0.92788852513E+01 -0.30409893340E+02  0.59301932682E+02  0.49999979308E+02 0.  0.
         12    1    1    2    0    0 -0.24211494346E+01 -0.92788852513E+01  0.30409893340E+02  0.31886067318E+02  0.00000000000E+00 0. -1.
         11    1    3    3    0    0 -0.16807910872E+01 -0.41044578621E+01 -0.17447513536E+02  0.18002426555E+02  0.51100000000E-03 0. -1.
        -11    1    3    3    0    0  0.16492400428E+02 -0.13549199764E+01  0.23296889418E+01  0.16711149896E+02  0.51100000000E-03 0.  1.
        -12    1    3    3    0    0 -0.12390459906E+02  0.14738263090E+02 -0.15292068745E+02  0.24588356230E+02  0.00000000000E+00 0.  1.
</event>
<event>
 7    1  0.7578565E-012  0.5930194E+02  0.7816164E-02  0.1266605E+00
        -11   -1    0    0    0    0  0.00000000000E+00  0.00000000000E+00  0.45593999997E+02  0.45594000000E+02  0.51100000000E-03 0.  1.
         11   -1    0    0    0    0 -0.00000000000E+00 -0.00000000000E+00 -0.45593999997E+02  0.45594000000E+02  0.51100000000E-03 0. -1.
    9900012    2    1    2    0    0  0.12589188088E+02 -0.26966049187E+02  0.11448385855E+02  0.59301937149E+02  0.49999987455E+02 0.  0.
         12    1    1    2    0    0 -0.12589188088E+02  0.26966049187E+02 -0.11448385855E+02  0.31886062851E+02  0.00000000000E+00 0. -1.
         11    1    3    3    0    0  0.89057843376E+00  0.11688378904E+02  0.49572749850E+01  0.12727368419E+02  0.51100000000E-03 0.  1.
        -11    1    3    3    0    0  0.16055453404E+02 -0.37097963182E+02  0.25612550298E+01  0.40504277352E+02  0.51100000000E-03 0. -1.
        -12    1    3    3    0    0 -0.43568437500E+01 -0.15564649088E+01  0.39298558403E+01  0.60702913769E+01  0.00000000000E+00 0.  1.
</event>
<event>
 7    1  0.7578565E-012  0.5930168E+02  0.7816164E-02  0.1266606E+00
        -11   -1    0    0    0    0  0.00000000000E+00  0.00000000000E+00  0.45593999997E+02  0.45594000000E+02  0.51100000000E-03 0.  1.
         11   -1    0    0    0    0 -0.00000000000E+00 -0.00000000000E+00 -0.45593999997E+02  0.45594000000E+02  0.51100000000E-03 0. -1.
    9900012    2    1    2    0    0 -0.28754693449E+02 -0.28805861291E+01  0.13476162104E+02  0.59301684490E+02  0.49999526663E+02 0.  0.
         12    1    1    2    0    0  0.28754693449E+02  0.28805861291E+01 -0.13476162104E+02  0.31886315510E+02  0.00000000000E+00 0. -1.
         11    1    3    3    0    0  0.43201995293E+01  0.12235869665E+02  0.66356185018E+01  0.14574363231E+02  0.51100000000E-03 0. -1.
        -11    1    3    3    0    0 -0.11856899042E+02 -0.19226544859E+02  0.34481568652E+01  0.22850292517E+02  0.51100000000E-03 0.  1.
        -12    1    3    3    0    0 -0.21217993936E+02  0.41100890644E+01  0.33923867371E+01  0.21877028741E+02  0.00000000000E+00 0.  1.
</event>
<event>
 7    1  0.7578565E-012  0.5930203E+02  0.7816164E-02  0.1266604E+00
        -11   -1    0    0    0    0  0.00000000000E+00  0.00000000000E+00  0.45593999997E+02  0.45594000000E+02  0.51100000000E-03 0. -1.
         11   -1    0    0    0    0 -0.00000000000E+00 -0.00000000000E+00 -0.45593999997E+02  0.45594000000E+02  0.51100000000E-03 0.  1.
    9900012    2    1    2    0    0 -0.26448064877E+02  0.12207446821E+02 -0.12968932814E+02  0.59302029543E+02  0.50000155960E+02 0.  0.
         12    1    1    2    0    0  0.26448064877E+02 -0.12207446821E+02  0.12968932814E+02  0.31885970457E+02  0.00000000000E+00 0. -1.
         11    1    3    3    0    0 -0.17893054731E+02  0.65092156528E+01 -0.25481427243E+01  0.19210005925E+02  0.51100000000E-03 0. -1.
        -11    1    3    3    0    0  0.41988524846E+01 -0.38935625990E+01 -0.20454946705E+02  0.21241352049E+02  0.51100000000E-03 0.  1.
         12    1    3    3    0    0 -0.12753862631E+02  0.95917937669E+01  0.10034156615E+02  0.18850671570E+02  0.00000000000E+00 0. -1.
</event>
<event>
 7    1  0.7578565E-012  0.5930191E+02  0.7816164E-02  0.1266605E+00
        -11   -1    0    0    0    0  0.00000000000E+00  0.00000000000E+00  0.45593999997E+02  0.45594000000E+02  0.51100000000E-03 0. -1.
         11   -1    0    0    0    0 -0.00000000000E+00 -0.00000000000E+00 -0.45593999997E+02  0.45594000000E+02  0.51100000000E-03 0.  1.
    9900012    2    1    2    0    0 -0.29708664489E+02  0.87391472964E+01 -0.75990412955E+01  0.59301907894E+02  0.49999934100E+02 0.  0.
         12    1    1    2    0    0  0.29708664489E+02 -0.87391472964E+01  0.75990412955E+01  0.31886092106E+02  0.00000000000E+00 0. -1.
         11    1    3    3    0    0 -0.29507729891E+02  0.93138516660E+01 -0.20271473267E+02  0.36991709677E+02  0.51100000000E-03 0. -1.
        -11    1    3    3    0    0 -0.25632725114E+01 -0.83334624750E+01  0.20695297052E+01  0.89610220540E+01  0.51100000000E-03 0.  1.
         12    1    3    3    0    0  0.23623379133E+01  0.77587581054E+01  0.10602902266E+02  0.13349176162E+02  0.00000000000E+00 0. -1.
</event>
<event>
 7    1  0.7578565E-012  0.5930189E+02  0.7816164E-02  0.1266605E+00
        -11   -1    0    0    0    0  0.00000000000E+00  0.00000000000E+00  0.45593999997E+02  0.45594000000E+02  0.51100000000E-03 0. -1.
         11   -1    0    0    0    0 -0.00000000000E+00 -0.00000000000E+00 -0.45593999997E+02  0.45594000000E+02  0.51100000000E-03 0.  1.
    9900012    2    1    2    0    0 -0.69470482059E+01 -0.29301033133E+02 -0.10483902006E+02  0.59301886679E+02  0.49999895409E+02 0.  0.
         12    1    1    2    0    0  0.69470482059E+01  0.29301033133E+02  0.10483902006E+02  0.31886113321E+02  0.00000000000E+00 0. -1.
         11    1    3    3    0    0  0.45186750343E+01 -0.25361055891E+02 -0.14035157958E+02  0.29335767233E+02  0.51100000000E-03 0.  1.
        -11    1    3    3    0    0 -0.12514060675E+02 -0.21285156750E+01  0.14238826783E+02  0.19075546702E+02  0.51100000000E-03 0. -1.
         12    1    3    3    0    0  0.10483374353E+01 -0.18114615674E+01 -0.10687570832E+02  0.10890572743E+02  0.00000000000E+00 0. -1.
</event>
<event>
 7    1  0.7578565E-012  0.5930194E+02  0.7816164E-02  0.1266605E+00
        -11   -1    0    0    0    0  0.00000000000E+00  0.00000000000E+00  0.45593999997E+02  0.45594000000E+02  0.51100000000E-03 0.  1.
         11   -1    0    0    0    0 -0.00000000000E+00 -0.00000000000E+00 -0.45593999997E+02  0.45594000000E+02  0.51100000000E-03 0. -1.
    9900012    2    1    2    0    0  0.93526745788E+00  0.73773953822E+01  0.31006773717E+02  0.59301941852E+02  0.49999996032E+02 0.  0.
         12    1    1    2    0    0 -0.93526745788E+00 -0.73773953822E+01 -0.31006773717E+02  0.31886058148E+02  0.00000000000E+00 0. -1.
         11    1    3    3    0    0  0.69272697295E+01  0.26260254690E+01 -0.42879931997E+01  0.85597874746E+01  0.51100000000E-03 0. -1.
        -11    1    3    3    0    0 -0.41268104699E+01 -0.14904235651E+02  0.91130803212E+01  0.17950349250E+02  0.51100000000E-03 0.  1.
        -12    1    3    3    0    0 -0.18651918017E+01  0.19655605564E+02  0.26181686596E+02  0.32791805128E+02  0.00000000000E+00 0.  1.
</event>
<event>
 7    1  0.7578565E-012  0.5930196E+02  0.7816164E-02  0.1266605E+00
        -11   -1    0    0    0    0  0.00000000000E+00  0.00000000000E+00  0.45593999997E+02  0.45594000000E+02  0.51100000000E-03 0. -1.
         11   -1    0    0    0    0 -0.00000000000E+00 -0.00000000000E+00 -0.45593999997E+02  0.45594000000E+02  0.51100000000E-03 0.  1.
    9900012    2    1    2    0    0 -0.21114065797E+02 -0.16352198910E+02 -0.17421862994E+02  0.59301960831E+02  0.50000030645E+02 0.  0.
         12    1    1    2    0    0  0.21114065797E+02  0.16352198910E+02  0.17421862994E+02  0.31886039169E+02  0.00000000000E+00 0. -1.
         11    1    3    3    0    0 -0.19899875218E+02 -0.12028501464E+01  0.80077411480E+01  0.21484315226E+02  0.51100000000E-03 0. -1.
        -11    1    3    3    0    0  0.15503641819E+01  0.47758706782E+01 -0.13562179564E+02  0.14461856196E+02  0.51100000000E-03 0.  1.
         12    1    3    3    0    0 -0.27645547614E+01 -0.19925219442E+02 -0.11867424578E+02  0.23355789410E+02  0.00000000000E+00 0. -1.
</event>
<event>
 7    1  0.7578565E-012  0.5930189E+02  0.7816164E-02  0.1266605E+00
        -11   -1    0    0    0    0  0.00000000000E+00  0.00000000000E+00  0.45593999997E+02  0.45594000000E+02  0.51100000000E-03 0.  1.
         11   -1    0    0    0    0 -0.00000000000E+00 -0.00000000000E+00 -0.45593999997E+02  0.45594000000E+02  0.51100000000E-03 0. -1.
    9900012    2    1    2    0    0 -0.11758042517E+02 -0.29198142227E+00  0.29637593377E+02  0.59301893964E+02  0.49999908695E+02 0.  0.
         12    1    1    2    0    0  0.11758042517E+02  0.29198142227E+00 -0.29637593377E+02  0.31886106036E+02  0.00000000000E+00 0. -1.
         11    1    3    3    0    0  0.57113662957E+01  0.39984053875E+01 -0.57162233663E+01  0.90156619525E+01  0.51100000000E-03 0. -1.
        -11    1    3    3    0    0 -0.49098011415E+01  0.10099945575E+02  0.27370109653E+02  0.29584420740E+02  0.51100000000E-03 0.  1.
        -12    1    3    3    0    0 -0.12559607672E+02 -0.14390332384E+02  0.79837070901E+01  0.20701811271E+02  0.00000000000E+00 0.  1.
</event>
<event>
 7    1  0.7578565E-012  0.5930196E+02  0.7816164E-02  0.1266605E+00
        -11   -1    0    0    0    0  0.00000000000E+00  0.00000000000E+00  0.45593999997E+02  0.45594000000E+02  0.51100000000E-03 0. -1.
         11   -1    0    0    0    0 -0.00000000000E+00 -0.00000000000E+00 -0.45593999997E+02  0.45594000000E+02  0.51100000000E-03 0.  1.
    9900012    2    1    2    0    0  0.63217192975E+01  0.28261493537E+02 -0.13343288412E+02  0.59301960775E+02  0.50000030543E+02 0.  0.
         12    1    1    2    0    0 -0.63217192975E+01 -0.28261493537E+02  0.13343288412E+02  0.31886039225E+02  0.00000000000E+00 0. -1.
         11    1    3    3    0    0 -0.19192338696E+02  0.78233268773E+00 -0.59509498876E+01  0.20108995845E+02  0.51100000000E-03 0. -1.
        -11    1    3    3    0    0  0.17131258958E+02  0.22893004568E+02 -0.32460842371E+01  0.28776844073E+02  0.51100000000E-03 0.  1.
         12    1    3    3    0    0  0.83827990354E+01  0.45861562809E+01 -0.41462542871E+01  0.10416120857E+02  0.00000000000E+00 0. -1.
</event>
<event>
 7    1  0.7578565E-012  0.5930193E+02  0.7816164E-02  0.1266605E+00
        -11   -1    0    0    0    0  0.00000000000E+00  0.00000000000E+00  0.45593999997E+02  0.45594000000E+02  0.51100000000E-03 0. -1.
         11   -1    0    0    0    0 -0.00000000000E+00 -0.00000000000E+00 -0.45593999997E+02  0.45594000000E+02  0.51100000000E-03 0.  1.
    9900012    2    1    2    0    0 -0.22661723422E+02  0.86517837222E+01 -0.20695750998E+02  0.59301934401E+02  0.49999982443E+02 0.  0.
         12    1    1    2    0    0  0.22661723422E+02 -0.86517837222E+01  0.20695750998E+02  0.31886065599E+02  0.00000000000E+00 0. -1.
         11    1    3    3    0    0  0.89743431885E+01  0.13076587468E+02 -0.49750280203E+01  0.16621879543E+02  0.51100000000E-03 0. -1.
        -11    1    3    3    0    0 -0.21368853661E+02  0.48476144938E+01 -0.23281287943E+00  0.21913043494E+02  0.51100000000E-03 0.  1.
         12    1    3    3    0    0 -0.10267212949E+02 -0.92724182398E+01 -0.15487910099E+02  0.20767011364E+02  0.00000000000E+00 0. -1.
</event>
<event>
 7    1  0.7578565E-012  0.5930195E+02  0.7816164E-02  0.1266605E+00
        -11   -1    0    0    0    0  0.00000000000E+00  0.00000000000E+00  0.45593999997E+02  0.45594000000E+02  0.51100000000E-03 0.  1.
         11   -1    0    0    0    0 -0.00000000000E+00 -0.00000000000E+00 -0.45593999997E+02  0.45594000000E+02  0.51100000000E-03 0. -1.
    9900012    2    1    2    0    0 -0.21643459377E+02 -0.12493121055E+02  0.19804117403E+02  0.59301945468E+02  0.50000002627E+02 0.  0.
         12    1    1    2    0    0  0.21643459377E+02  0.12493121055E+02 -0.19804117403E+02  0.31886054532E+02  0.00000000000E+00 0. -1.
         11    1    3    3    0    0  0.63163614832E+01 -0.16329561612E+02 -0.68117174522E+01  0.18786976865E+02  0.51100000000E-03 0. -1.
        -11    1    3    3    0    0 -0.13642632685E+02 -0.39210935127E+01  0.13740884972E+02  0.19756222336E+02  0.51100000000E-03 0.  1.
         12    1    3    3    0    0 -0.14317188175E+02  0.77575340700E+01  0.12874949882E+02  0.20758746267E+02  0.00000000000E+00 0. -1.
</event>
<event>
 7    1  0.7578565E-012  0.5930196E+02  0.7816164E-02  0.1266605E+00
        -11   -1    0    0    0    0  0.00000000000E+00  0.00000000000E+00  0.45593999997E+02  0.45594000000E+02  0.51100000000E-03 0. -1.
         11   -1    0    0    0    0 -0.00000000000E+00 -0.00000000000E+00 -0.45593999997E+02  0.45594000000E+02  0.51100000000E-03 0.  1.
    9900012    2    1    2    0    0  0.26164246304E+02 -0.14661297099E+02 -0.10825822773E+02  0.59301955153E+02  0.50000020289E+02 0.  0.
         12    1    1    2    0    0 -0.26164246304E+02  0.14661297099E+02  0.10825822773E+02  0.31886044847E+02  0.00000000000E+00 0. -1.
         11    1    3    3    0    0  0.34257008459E+02 -0.20233610307E+02 -0.33714351655E+00  0.39787627230E+02  0.51100000000E-03 0. -1.
        -11    1    3    3    0    0  0.32443408798E+01  0.19442187896E+01 -0.53430060919E+01  0.65462545632E+01  0.51100000000E-03 0.  1.
         12    1    3    3    0    0 -0.11337103034E+02  0.36280944185E+01 -0.51456731646E+01  0.12968073359E+02  0.00000000000E+00 0. -1.
</event>
<event>
 7    1  0.7578565E-012  0.5930194E+02  0.7816164E-02  0.1266605E+00
        -11   -1    0    0    0    0  0.00000000000E+00  0.00000000000E+00  0.45593999997E+02  0.45594000000E+02  0.51100000000E-03 0.  1.
         11   -1    0    0    0    0 -0.00000000000E+00 -0.00000000000E+00 -0.45593999997E+02  0.45594000000E+02  0.51100000000E-03 0. -1.
    9900012    2    1    2    0    0  0.18121537870E+01  0.66080542875E+01  0.31141139371E+02  0.59301939658E+02  0.49999992031E+02 0.  0.
         12    1    1    2    0    0 -0.18121537870E+01 -0.66080542875E+01 -0.31141139371E+02  0.31886060342E+02  0.00000000000E+00 0. -1.
         11    1    3    3    0    0 -0.16286300916E+02 -0.87051603641E+01  0.23579649510E+02  0.29950347006E+02  0.51100000000E-03 0. -1.
        -11    1    3    3    0    0  0.12464359707E+02  0.17851852307E+02  0.37561201385E+01  0.22094282800E+02  0.51100000000E-03 0.  1.
        -12    1    3    3    0    0  0.56340949963E+01 -0.25386376550E+01  0.38053697218E+01  0.72573098522E+01  0.00000000000E+00 0.  1.
</event>
<event>
 7    1  0.7578565E-012  0.5930195E+02  0.7816164E-02  0.1266605E+00
        -11   -1    0    0    0    0  0.00000000000E+00  0.00000000000E+00  0.45593999997E+02  0.45594000000E+02  0.51100000000E-03 0. -1.
         11   -1    0    0    0    0 -0.00000000000E+00 -0.00000000000E+00 -0.45593999997E+02  0.45594000000E+02  0.51100000000E-03 0.  1.
    9900012    2    1    2    0    0 -0.23501749108E+02 -0.15938378423E+02 -0.14503646630E+02  0.59301954722E+02  0.50000019504E+02 0.  0.
         12    1    1    2    0    0  0.23501749108E+02  0.15938378423E+02  0.14503646630E+02  0.31886045278E+02  0.00000000000E+00 0. -1.
         11    1    3    3    0    0 -0.15188530784E+02 -0.99782682676E+01 -0.52609117614E+00  0.18180596172E+02  0.51100000000E-03 0.  1.
        -11    1    3    3    0    0 -0.74560002009E+01  0.11975153766E+02 -0.17851560097E+02  0.22752460194E+02  0.51100000000E-03 0. -1.
         12    1    3    3    0    0 -0.85721812405E+00 -0.17935263922E+02  0.38740046430E+01  0.18368898356E+02  0.00000000000E+00 0. -1.
</event>
<event>
 7    1  0.7578565E-012  0.5930194E+02  0.7816164E-02  0.1266605E+00
        -11   -1    0    0    0    0  0.00000000000E+00  0.00000000000E+00  0.45593999997E+02  0.45594000000E+02  0.51100000000E-03 0.  1.
         11   -1    0    0    0    0 -0.00000000000E+00 -0.00000000000E+00 -0.45593999997E+02  0.45594000000E+02  0.51100000000E-03 0. -1.
    9900012    2    1    2    0    0  0.20723077270E+01 -0.10470908508E+02  0.30046400829E+02  0.59301943689E+02  0.49999999382E+02 0.  0.
         12    1    1    2    0    0 -0.20723077270E+01  0.10470908508E+02 -0.30046400829E+02  0.31886056311E+02  0.00000000000E+00 0. -1.
         11    1    3    3    0    0 -0.20514782666E+02 -0.47919685947E+01  0.19244450312E+02  0.28533631716E+02  0.51100000000E-03 0. -1.
        -11    1    3    3    0    0  0.25209872835E+02 -0.48554881559E+01  0.81173878252E+01  0.26925925035E+02  0.51100000000E-03 0.  1.
        -12    1    3    3    0    0 -0.26227824426E+01 -0.82345175785E+00  0.26845626916E+01  0.38423869383E+01  0.00000000000E+00 0.  1.
</event>
<event>
 7    1  0.7578565E-012  0.5930187E+02  0.7816164E-02  0.1266605E+00
        -11   -1    0    0    0    0  0.00000000000E+00  0.00000000000E+00  0.45593999997E+02  0.45594000000E+02  0.51100000000E-03 0. -1.
         11   -1    0    0    0    0 -0.00000000000E+00 -0.00000000000E+00 -0.45593999997E+02  0.45594000000E+02  0.51100000000E-03 0.  1.
    9900012    2    1    2    0    0  0.29765192758E+02 -0.10580083767E+02 -0.43382742428E+01  0.59301866716E+02  0.49999859002E+02 0.  0.
         12    1    1    2    0    0 -0.29765192758E+02  0.10580083767E+02  0.43382742428E+01  0.31886133284E+02  0.00000000000E+00 0. -1.
         11    1    3    3    0    0  0.16955642960E+02  0.26064125137E+01  0.13069651540E+02  0.21566246915E+02  0.51100000000E-03 0. -1.
        -11    1    3    3    0    0  0.23723185807E+01 -0.20109410002E+02 -0.69164354312E+01  0.21397507925E+02  0.51100000000E-03 0.  1.
        -12    1    3    3    0    0  0.10437231217E+02  0.69229137212E+01 -0.10491490351E+02  0.16338111876E+02  0.00000000000E+00 0.  1.
</event>
<event>
 7    1  0.7578565E-012  0.5930194E+02  0.7816164E-02  0.1266605E+00
        -11   -1    0    0    0    0  0.00000000000E+00  0.00000000000E+00  0.45593999997E+02  0.45594000000E+02  0.51100000000E-03 0.  1.
         11   -1    0    0    0    0 -0.00000000000E+00 -0.00000000000E+00 -0.45593999997E+02  0.45594000000E+02  0.51100000000E-03 0. -1.
    9900012    2    1    2    0    0 -0.12115537153E+02 -0.28792845167E+02 -0.63958117017E+01  0.59301943790E+02  0.49999999567E+02 0.  0.
         12    1    1    2    0    0  0.12115537153E+02  0.28792845167E+02  0.63958117017E+01  0.31886056210E+02  0.00000000000E+00 0. -1.
         11    1    3    3    0    0 -0.18892771280E+02 -0.25852250952E+02 -0.17245971070E+02  0.36368931856E+02  0.51100000000E-03 0. -1.
        -11    1    3    3    0    0 -0.18683190574E+01 -0.92291066536E+01  0.39652268414E+01  0.10217144899E+02  0.51100000000E-03 0.  1.
         12    1    3    3    0    0  0.86455531846E+01  0.62885124395E+01  0.68849325264E+01  0.12715867035E+02  0.00000000000E+00 0. -1.
</event>
<event>
 7    1  0.7578565E-012  0.5930188E+02  0.7816164E-02  0.1266605E+00
        -11   -1    0    0    0    0  0.00000000000E+00  0.00000000000E+00  0.45593999997E+02  0.45594000000E+02  0.51100000000E-03 0.  1.
         11   -1    0    0    0    0 -0.00000000000E+00 -0.00000000000E+00 -0.45593999997E+02  0.45594000000E+02  0.51100000000E-03 0. -1.
    9900012    2    1    2    0    0 -0.28268393683E+02 -0.13014519439E+02  0.69458416964E+01  0.59301882103E+02  0.49999887065E+02 0.  0.
         12    1    1    2    0    0  0.28268393683E+02  0.13014519439E+02 -0.69458416964E+01  0.31886117897E+02  0.00000000000E+00 0. -1.
         11    1    3    3    0    0  0.78997150202E+00  0.45978606164E+01 -0.20418141578E+01  0.50924829443E+01  0.51100000000E-03 0. -1.
        -11    1    3    3    0    0 -0.24877530425E+02 -0.21733684000E+02 -0.98555704585E+01  0.34472841624E+02  0.51100000000E-03 0.  1.
        -12    1    3    3    0    0 -0.41808347595E+01  0.41213039445E+01  0.18843226313E+02  0.19736557536E+02  0.00000000000E+00 0.  1.
</event>
<event>
 7    1  0.7578565E-012  0.5930196E+02  0.7816164E-02  0.1266605E+00
        -11   -1    0    0    0    0  0.00000000000E+00  0.00000000000E+00  0.45593999997E+02  0.45594000000E+02  0.51100000000E-03 0. -1.
         11   -1    0    0    0    0 -0.00000000000E+00 -0.00000000000E+00 -0.45593999997E+02  0.45594000000E+02  0.51100000000E-03 0.  1.
    9900012    2    1    2    0    0 -0.10927697136E+02 -0.28460104536E+02 -0.93449263517E+01  0.59301956605E+02  0.50000022937E+02 0.  0.
         12    1    1    2    0    0  0.10927697136E+02  0.28460104536E+02  0.93449263517E+01  0.31886043395E+02  0.00000000000E+00 0. -1.
         11    1    3    3    0    0  0.58444542457E+01  0.73154657721E+01  0.92524704362E+01  0.13163658091E+02  0.51100000000E-03 0. -1.
        -11    1    3    3    0    0 -0.17176668480E+02 -0.20595178438E+02 -0.14110307057E+02  0.30303466476E+02  0.51100000000E-03 0.  1.
        -12    1    3    3    0    0  0.40451709829E+00 -0.15180391870E+02 -0.44870897311E+01  0.15834832038E+02  0.00000000000E+00 0.  1.
</event>
<event>
 7    1  0.7578565E-012  0.5930186E+02  0.7816164E-02  0.1266605E+00
        -11   -1    0    0    0    0  0.00000000000E+00  0.00000000000E+00  0.45593999997E+02  0.45594000000E+02  0.51100000000E-03 0.  1.
         11   -1    0    0    0    0 -0.00000000000E+00 -0.00000000000E+00 -0.45593999997E+02  0.45594000000E+02  0.51100000000E-03 0. -1.
    9900012    2    1    2    0    0 -0.21785890245E+02  0.17143686165E+02  0.15754194898E+02  0.59301864362E+02  0.49999854708E+02 0.  0.
         12    1    1    2    0    0  0.21785890245E+02 -0.17143686165E+02 -0.15754194898E+02  0.31886135638E+02  0.00000000000E+00 0. -1.
         11    1    3    3    0    0 -0.24543181231E+02 -0.12025369245E+01  0.13712433182E+01  0.24610854282E+02  0.51100000000E-03 0. -1.
        -11    1    3    3    0    0  0.81414459930E+01  0.10514154179E+02  0.19724674624E+02  0.23788513409E+02  0.51100000000E-03 0.  1.
        -12    1    3    3    0    0 -0.53841550069E+01  0.78320689110E+01 -0.53417230444E+01  0.10902496670E+02  0.00000000000E+00 0.  1.
</event>
<event>
 7    1  0.7578565E-012  0.5930195E+02  0.7816164E-02  0.1266605E+00
        -11   -1    0    0    0    0  0.00000000000E+00  0.00000000000E+00  0.45593999997E+02  0.45594000000E+02  0.51100000000E-03 0.  1.
         11   -1    0    0    0    0 -0.00000000000E+00 -0.00000000000E+00 -0.45593999997E+02  0.45594000000E+02  0.51100000000E-03 0. -1.
    9900012    2    1    2    0    0 -0.91306655857E+01 -0.30069158143E+02  0.54033923852E+01  0.59301953291E+02  0.50000016893E+02 0.  0.
         12    1    1    2    0    0  0.91306655857E+01  0.30069158143E+02 -0.54033923852E+01  0.31886046709E+02  0.00000000000E+00 0. -1.
         11    1    3    3    0    0 -0.73923960228E+01 -0.44187282276E+01  0.24516826195E+02  0.25985523759E+02  0.51100000000E-03 0. -1.
        -11    1    3    3    0    0  0.17671974414E+00  0.22639726614E+00  0.64261384215E+00  0.70387385327E+00  0.51100000000E-03 0.  1.
         12    1    3    3    0    0 -0.19149893070E+01 -0.25876827182E+02 -0.19756047652E+02  0.32612555678E+02  0.00000000000E+00 0. -1.
</event>
<event>
 7    1  0.7578565E-012  0.5930195E+02  0.7816164E-02  0.1266605E+00
        -11   -1    0    0    0    0  0.00000000000E+00  0.00000000000E+00  0.45593999997E+02  0.45594000000E+02  0.51100000000E-03 0.  1.
         11   -1    0    0    0    0 -0.00000000000E+00 -0.00000000000E+00 -0.45593999997E+02  0.45594000000E+02  0.51100000000E-03 0. -1.
    9900012    2    1    2    0    0  0.16618850950E+02  0.27104899482E+02  0.24203660986E+01  0.59301953602E+02  0.50000017462E+02 0.  0.
         12    1    1    2    0    0 -0.16618850950E+02 -0.27104899482E+02 -0.24203660986E+01  0.31886046398E+02  0.00000000000E+00 0. -1.
         11    1    3    3    0    0  0.23383411828E+02 -0.39633307292E+01 -0.67563838156E+01  0.24660508140E+02  0.51100000000E-03 0. -1.
        -11    1    3    3    0    0 -0.94264765579E+00  0.47288304344E+01  0.56640594283E+01  0.74385476639E+01  0.51100000000E-03 0.  1.
         12    1    3    3    0    0 -0.58219132229E+01  0.26339399777E+02  0.35126904860E+01  0.27202897799E+02  0.00000000000E+00 0. -1.
</event>
<event>
 7    1  0.7578565E-012  0.5930196E+02  0.7816164E-02  0.1266605E+00
        -11   -1    0    0    0    0  0.00000000000E+00  0.00000000000E+00  0.45593999997E+02  0.45594000000E+02  0.51100000000E-03 0.  1.
         11   -1    0    0    0    0 -0.00000000000E+00 -0.00000000000E+00 -0.45593999997E+02  0.45594000000E+02  0.51100000000E-03 0. -1.
    9900012    2    1    2    0    0  0.20305205922E+02 -0.24065444382E+02  0.50272054656E+01  0.59301956099E+02  0.50000022015E+02 0.  0.
         12    1    1    2    0    0 -0.20305205922E+02  0.24065444382E+02 -0.50272054656E+01  0.31886043901E+02  0.00000000000E+00 0. -1.
         11    1    3    3    0    0  0.16890253050E+01  0.23155303794E+01  0.18137204311E+02  0.18362262058E+02  0.51100000000E-03 0. -1.
        -11    1    3    3    0    0  0.15061866851E+02 -0.29887392416E+02 -0.95380468418E+01  0.34800724077E+02  0.51100000000E-03 0.  1.
         12    1    3    3    0    0  0.35543137663E+01  0.35064176540E+01 -0.35719520032E+01  0.61389699646E+01  0.00000000000E+00 0. -1.
</event>
<event>
 7    1  0.7578565E-012  0.5930195E+02  0.7816164E-02  0.1266605E+00
        -11   -1    0    0    0    0  0.00000000000E+00  0.00000000000E+00  0.45593999997E+02  0.45594000000E+02  0.51100000000E-03 0. -1.
         11   -1    0    0    0    0 -0.00000000000E+00 -0.00000000000E+00 -0.45593999997E+02  0.45594000000E+02  0.51100000000E-03 0.  1.
    9900012    2    1    2    0    0  0.19359064904E+02 -0.24695639722E+01 -0.25216030367E+02  0.59301947757E+02  0.50000006801E+02 0.  0.
         12    1    1    2    0    0 -0.19359064904E+02  0.24695639722E+01  0.25216030367E+02  0.31886052243E+02  0.00000000000E+00 0. -1.
         11    1    3    3    0    0  0.18368949182E+02 -0.10245130585E+02  0.61881109444E+01  0.21924272213E+02  0.51100000000E-03 0. -1.
        -11    1    3    3    0    0 -0.28882761615E+01  0.12306116410E+02 -0.27454039520E+02  0.30224277105E+02  0.51100000000E-03 0.  1.
        -12    1    3    3    0    0  0.38783918833E+01 -0.45305497971E+01 -0.39501017912E+01  0.71533984389E+01  0.00000000000E+00 0.  1.
</event>
<event>
 7    1  0.7578565E-012  0.5930192E+02  0.7816164E-02  0.1266605E+00
        -11   -1    0    0    0    0  0.00000000000E+00  0.00000000000E+00  0.45593999997E+02  0.45594000000E+02  0.51100000000E-03 0.  1.
         11   -1    0    0    0    0 -0.00000000000E+00 -0.00000000000E+00 -0.45593999997E+02  0.45594000000E+02  0.51100000000E-03 0. -1.
    9900012    2    1    2    0    0 -0.15154218114E+02 -0.17925687341E+01  0.27997475458E+02  0.59301917434E+02  0.49999951500E+02 0.  0.
         12    1    1    2    0    0  0.15154218114E+02  0.17925687341E+01 -0.27997475458E+02  0.31886082566E+02  0.00000000000E+00 0. -1.
         11    1    3    3    0    0  0.12884128505E+01  0.34088776546E+01  0.98392102171E+01  0.10492402608E+02  0.51100000000E-03 0. -1.
        -11    1    3    3    0    0 -0.11033534676E+02 -0.23400043024E+02  0.70545693274E+01  0.26815440508E+02  0.51100000000E-03 0.  1.
        -12    1    3    3    0    0 -0.54090962892E+01  0.18198596635E+02  0.11103695914E+02  0.21994074318E+02  0.00000000000E+00 0.  1.
</event>
<event>
 7    1  0.7578565E-012  0.5930194E+02  0.7816164E-02  0.1266605E+00
        -11   -1    0    0    0    0  0.00000000000E+00  0.00000000000E+00  0.45593999997E+02  0.45594000000E+02  0.51100000000E-03 0. -1.
         11   -1    0    0    0    0 -0.00000000000E+00 -0.00000000000E+00 -0.45593999997E+02  0.45594000000E+02  0.51100000000E-03 0.  1.
    9900012    2    1    2    0    0 -0.26241282767E+02 -0.11323282256E+02 -0.14138570919E+02  0.59301939880E+02  0.49999992436E+02 0.  0.
         12    1    1    2    0    0  0.26241282767E+02  0.11323282256E+02  0.14138570919E+02  0.31886060120E+02  0.00000000000E+00 0. -1.
         11    1    3    3    0    0  0.34304390819E+01  0.31022540448E+01 -0.12092820883E+02  0.12947131328E+02  0.51100000000E-03 0. -1.
        -11    1    3    3    0    0 -0.24351433457E+02 -0.12064166175E+01  0.11262717712E+02  0.26856964888E+02  0.51100000000E-03 0.  1.
        -12    1    3    3    0    0 -0.53202883921E+01 -0.13219119683E+02 -0.13308467747E+02  0.19497843664E+02  0.00000000000E+00 0.  1.
</event>
<event>
 7    1  0.7578565E-012  0.5930194E+02  0.7816164E-02  0.1266605E+00
        -11   -1    0    0    0    0  0.00000000000E+00  0.00000000000E+00  0.45593999997E+02  0.45594000000E+02  0.51100000000E-03 0. -1.
         11   -1    0    0    0    0 -0.00000000000E+00 -0.00000000000E+00 -0.45593999997E+02  0.45594000000E+02  0.51100000000E-03 0.  1.
    9900012    2    1    2    0    0  0.16022587617E+02  0.15305943498E+02 -0.22928706539E+02  0.59301940289E+02  0.49999993181E+02 0.  0.
         12    1    1    2    0    0 -0.16022587617E+02 -0.15305943498E+02  0.22928706539E+02  0.31886059711E+02  0.00000000000E+00 0. -1.
         11    1    3    3    0    0 -0.75637855389E+01  0.14676062562E+01 -0.25499042506E+02  0.26637677992E+02  0.51100000000E-03 0. -1.
        -11    1    3    3    0    0  0.11295726477E+02  0.15212397067E+02 -0.28511937021E+01  0.19160891601E+02  0.51100000000E-03 0.  1.
         12    1    3    3    0    0  0.12290646680E+02 -0.13740598247E+01  0.54215296689E+01  0.13503370696E+02  0.00000000000E+00 0. -1.
</event>
<event>
 7    1  0.7578565E-012  0.5930193E+02  0.7816164E-02  0.1266605E+00
        -11   -1    0    0    0    0  0.00000000000E+00  0.00000000000E+00  0.45593999997E+02  0.45594000000E+02  0.51100000000E-03 0. -1.
         11   -1    0    0    0    0 -0.00000000000E+00 -0.00000000000E+00 -0.45593999997E+02  0.45594000000E+02  0.51100000000E-03 0.  1.
    9900012    2    1    2    0    0 -0.15662408006E+02  0.83094835844E+01 -0.26502128677E+02  0.59301931469E+02  0.49999977096E+02 0.  0.
         12    1    1    2    0    0  0.15662408006E+02 -0.83094835844E+01  0.26502128677E+02  0.31886068531E+02  0.00000000000E+00 0. -1.
         11    1    3    3    0    0 -0.11457126526E+02  0.11171861836E+02  0.58475722518E+01  0.17037322167E+02  0.51100000000E-03 0. -1.
        -11    1    3    3    0    0  0.64551518603E+01  0.86442106094E+01 -0.18106857439E+02  0.21077230586E+02  0.51100000000E-03 0.  1.
         12    1    3    3    0    0 -0.10660433340E+02 -0.11506588860E+02 -0.14242843489E+02  0.21187378716E+02  0.00000000000E+00 0. -1.
</event>
<event>
 7    1  0.7578565E-012  0.5930196E+02  0.7816164E-02  0.1266605E+00
        -11   -1    0    0    0    0  0.00000000000E+00  0.00000000000E+00  0.45593999997E+02  0.45594000000E+02  0.51100000000E-03 0.  1.
         11   -1    0    0    0    0 -0.00000000000E+00 -0.00000000000E+00 -0.45593999997E+02  0.45594000000E+02  0.51100000000E-03 0. -1.
    9900012    2    1    2    0    0 -0.26156147532E+02  0.17776028974E+02 -0.40728893973E+01  0.59301957790E+02  0.50000025099E+02 0.  0.
         12    1    1    2    0    0  0.26156147532E+02 -0.17776028974E+02  0.40728893973E+01  0.31886042210E+02  0.00000000000E+00 0. -1.
         11    1    3    3    0    0 -0.33757874414E+02  0.94855307244E+01  0.33622588074E+01  0.35226043811E+02  0.51100000000E-03 0. -1.
        -11    1    3    3    0    0  0.36200265197E+01  0.71435668893E+01  0.60061402779E+01  0.10010437613E+02  0.51100000000E-03 0.  1.
         12    1    3    3    0    0  0.39817003621E+01  0.11469313599E+01 -0.13441288483E+02  0.14065476366E+02  0.00000000000E+00 0. -1.
</event>
<event>
 7    1  0.7578565E-012  0.5930192E+02  0.7816164E-02  0.1266605E+00
        -11   -1    0    0    0    0  0.00000000000E+00  0.00000000000E+00  0.45593999997E+02  0.45594000000E+02  0.51100000000E-03 0. -1.
         11   -1    0    0    0    0 -0.00000000000E+00 -0.00000000000E+00 -0.45593999997E+02  0.45594000000E+02  0.51100000000E-03 0.  1.
    9900012    2    1    2    0    0 -0.24673848558E+02 -0.15676040167E+02 -0.12735187618E+02  0.59301920880E+02  0.49999957785E+02 0.  0.
         12    1    1    2    0    0  0.24673848558E+02  0.15676040167E+02  0.12735187618E+02  0.31886079120E+02  0.00000000000E+00 0. -1.
         11    1    3    3    0    0 -0.17170607360E+02 -0.98270776269E+01 -0.10194050190E+02  0.22255782874E+02  0.51100000000E-03 0. -1.
        -11    1    3    3    0    0 -0.81675571571E+01  0.17804221701E+01  0.15409090841E+02  0.17530515504E+02  0.51100000000E-03 0.  1.
        -12    1    3    3    0    0  0.66431595909E+00 -0.76293847101E+01 -0.17950228269E+02  0.19515622503E+02  0.00000000000E+00 0.  1.
</event>
<event>
 7    1  0.7578565E-012  0.5930194E+02  0.7816164E-02  0.1266605E+00
        -11   -1    0    0    0    0  0.00000000000E+00  0.00000000000E+00  0.45593999997E+02  0.45594000000E+02  0.51100000000E-03 0.  1.
         11   -1    0    0    0    0 -0.00000000000E+00 -0.00000000000E+00 -0.45593999997E+02  0.45594000000E+02  0.51100000000E-03 0. -1.
    9900012    2    1    2    0    0 -0.12931280956E+02 -0.70411679284E+01  0.28282936354E+02  0.59301944085E+02  0.50000000105E+02 0.  0.
         12    1    1    2    0    0  0.12931280956E+02  0.70411679284E+01 -0.28282936354E+02  0.31886055915E+02  0.00000000000E+00 0. -1.
         11    1    3    3    0    0  0.27090267912E+01 -0.13241541530E+00  0.10577589866E+02  0.10919787893E+02  0.51100000000E-03 0. -1.
        -11    1    3    3    0    0 -0.24078989857E+02  0.94942951825E+01  0.14472534648E+02  0.29654572209E+02  0.51100000000E-03 0.  1.
        -12    1    3    3    0    0  0.84386821094E+01 -0.16403047696E+02  0.32328118411E+01  0.18727583983E+02  0.00000000000E+00 0.  1.
</event>
<event>
 7    1  0.7578565E-012  0.5930194E+02  0.7816164E-02  0.1266605E+00
        -11   -1    0    0    0    0  0.00000000000E+00  0.00000000000E+00  0.45593999997E+02  0.45594000000E+02  0.51100000000E-03 0.  1.
         11   -1    0    0    0    0 -0.00000000000E+00 -0.00000000000E+00 -0.45593999997E+02  0.45594000000E+02  0.51100000000E-03 0. -1.
    9900012    2    1    2    0    0  0.28224036117E+02  0.58878681762E+01  0.13618278791E+02  0.59301941548E+02  0.49999995477E+02 0.  0.
         12    1    1    2    0    0 -0.28224036117E+02 -0.58878681762E+01 -0.13618278791E+02  0.31886058452E+02  0.00000000000E+00 0. -1.
         11    1    3    3    0    0 -0.63836605025E+01  0.10430771744E+01  0.19140510394E+01  0.67455706242E+01  0.51100000000E-03 0. -1.
        -11    1    3    3    0    0  0.36034925629E+02 -0.88431087256E+01  0.56915372501E+01  0.37538114411E+02  0.51100000000E-03 0.  1.
        -12    1    3    3    0    0 -0.14272290098E+01  0.13687899727E+02  0.60126905019E+01  0.15018256512E+02  0.00000000000E+00 0.  1.
</event>
<event>
 7    1  0.7578565E-012  0.5930194E+02  0.7816164E-02  0.1266605E+00
        -11   -1    0    0    0    0  0.00000000000E+00  0.00000000000E+00  0.45593999997E+02  0.45594000000E+02  0.51100000000E-03 0. -1.
         11   -1    0    0    0    0 -0.00000000000E+00 -0.00000000000E+00 -0.45593999997E+02  0.45594000000E+02  0.51100000000E-03 0.  1.
    9900012    2    1    2    0    0 -0.16450519632E+02  0.27296343805E+02  0.10053807383E+01  0.59301940794E+02  0.49999994102E+02 0.  0.
         12    1    1    2    0    0  0.16450519632E+02 -0.27296343805E+02 -0.10053807383E+01  0.31886059206E+02  0.00000000000E+00 0. -1.
         11    1    3    3    0    0 -0.62294961274E+01  0.28885968539E+02  0.30174814455E+01  0.29703720221E+02  0.51100000000E-03 0. -1.
        -11    1    3    3    0    0 -0.66720844883E+01 -0.98953227717E+01  0.92945372884E+01  0.15126881630E+02  0.51100000000E-03 0.  1.
        -12    1    3    3    0    0 -0.35489390167E+01  0.83056980380E+01 -0.11306637996E+02  0.14471338943E+02  0.00000000000E+00 0.  1.
</event>
<event>
 7    1  0.7578565E-012  0.5930193E+02  0.7816164E-02  0.1266605E+00
        -11   -1    0    0    0    0  0.00000000000E+00  0.00000000000E+00  0.45593999997E+02  0.45594000000E+02  0.51100000000E-03 0.  1.
         11   -1    0    0    0    0 -0.00000000000E+00 -0.00000000000E+00 -0.45593999997E+02  0.45594000000E+02  0.51100000000E-03 0. -1.
    9900012    2    1    2    0    0  0.11346744475E+02 -0.29798654278E+02  0.11491081129E+00  0.59301927626E+02  0.49999970087E+02 0.  0.
         12    1    1    2    0    0 -0.11346744475E+02  0.29798654278E+02 -0.11491081129E+00  0.31886072374E+02  0.00000000000E+00 0. -1.
         11    1    3    3    0    0 -0.20496813657E+01  0.11551418868E+02 -0.26094983454E+01  0.12018567029E+02  0.51100000000E-03 0. -1.
        -11    1    3    3    0    0  0.18440911568E+01 -0.18908450024E+02  0.93692506449E+01  0.21182847128E+02  0.51100000000E-03 0.  1.
         12    1    3    3    0    0  0.11552334684E+02 -0.22441623121E+02 -0.66448414882E+01  0.26100513469E+02  0.00000000000E+00 0. -1.
</event>
<event>
 7    1  0.7578565E-012  0.5930195E+02  0.7816164E-02  0.1266605E+00
        -11   -1    0    0    0    0  0.00000000000E+00  0.00000000000E+00  0.45593999997E+02  0.45594000000E+02  0.51100000000E-03 0. -1.
         11   -1    0    0    0    0 -0.00000000000E+00 -0.00000000000E+00 -0.45593999997E+02  0.45594000000E+02  0.51100000000E-03 0.  1.
    9900012    2    1    2    0    0 -0.29693832572E+02 -0.11607392423E+02  0.51449932003E+00  0.59301953503E+02  0.50000017280E+02 0.  0.
         12    1    1    2    0    0  0.29693832572E+02  0.11607392423E+02 -0.51449932003E+00  0.31886046497E+02  0.00000000000E+00 0. -1.
         11    1    3    3    0    0  0.84379906279E+01 -0.17448537659E+02 -0.68478104200E-01  0.19381843096E+02  0.51100000000E-03 0.  1.
        -11    1    3    3    0    0 -0.26624316068E+02  0.87233346061E+01 -0.36485996205E+00  0.28019348597E+02  0.51100000000E-03 0. -1.
        -12    1    3    3    0    0 -0.11507507131E+02 -0.28821893704E+01  0.94783738629E+00  0.11900761810E+02  0.00000000000E+00 0.  1.
</event>
<event>
 7    1  0.7578565E-012  0.5930191E+02  0.7816164E-02  0.1266605E+00
        -11   -1    0    0    0    0  0.00000000000E+00  0.00000000000E+00  0.45593999997E+02  0.45594000000E+02  0.51100000000E-03 0.  1.
         11   -1    0    0    0    0 -0.00000000000E+00 -0.00000000000E+00 -0.45593999997E+02  0.45594000000E+02  0.51100000000E-03 0. -1.
    9900012    2    1    2    0    0 -0.12609639016E+01  0.40139841087E+01  0.31607288034E+02  0.59301909690E+02  0.49999937376E+02 0.  0.
         12    1    1    2    0    0  0.12609639016E+01 -0.40139841087E+01 -0.31607288034E+02  0.31886090310E+02  0.00000000000E+00 0. -1.
         11    1    3    3    0    0  0.44889121001E+01 -0.14135810478E+02  0.19684967898E+02  0.24646894959E+02  0.51100000000E-03 0. -1.
        -11    1    3    3    0    0 -0.13162398286E+02  0.19603824089E+02  0.44471897054E+01  0.24027820211E+02  0.51100000000E-03 0.  1.
        -12    1    3    3    0    0  0.74125222842E+01 -0.14540295028E+01  0.74751304311E+01  0.10627194520E+02  0.00000000000E+00 0.  1.
</event>
<event>
 7    1  0.7578565E-012  0.5930194E+02  0.7816164E-02  0.1266605E+00
        -11   -1    0    0    0    0  0.00000000000E+00  0.00000000000E+00  0.45593999997E+02  0.45594000000E+02  0.51100000000E-03 0.  1.
         11   -1    0    0    0    0 -0.00000000000E+00 -0.00000000000E+00 -0.45593999997E+02  0.45594000000E+02  0.51100000000E-03 0. -1.
    9900012    2    1    2    0    0 -0.24663386100E+02  0.12021496070E+02 -0.16245671003E+02  0.59301940225E+02  0.49999993065E+02 0.  0.
         12    1    1    2    0    0  0.24663386100E+02 -0.12021496070E+02  0.16245671003E+02  0.31886059775E+02  0.00000000000E+00 0. -1.
         11    1    3    3    0    0 -0.22094979445E+02 -0.12423394338E+02 -0.22420964088E+02  0.33841224482E+02  0.51100000000E-03 0. -1.
        -11    1    3    3    0    0 -0.13083018706E+00  0.71842572613E+01  0.86157939952E+00  0.72369184228E+01  0.51100000000E-03 0.  1.
         12    1    3    3    0    0 -0.24375764680E+01  0.17260633146E+02  0.53137136861E+01  0.18223797320E+02  0.00000000000E+00 0. -1.
</event>
<event>
 7    1  0.7578565E-012  0.5930191E+02  0.7816164E-02  0.1266605E+00
        -11   -1    0    0    0    0  0.00000000000E+00  0.00000000000E+00  0.45593999997E+02  0.45594000000E+02  0.51100000000E-03 0.  1.
         11   -1    0    0    0    0 -0.00000000000E+00 -0.00000000000E+00 -0.45593999997E+02  0.45594000000E+02  0.51100000000E-03 0. -1.
    9900012    2    1    2    0    0  0.14473181635E+01 -0.31423240109E+02  0.52161263154E+01  0.59301910203E+02  0.49999938312E+02 0.  0.
         12    1    1    2    0    0 -0.14473181635E+01  0.31423240109E+02 -0.52161263154E+01  0.31886089797E+02  0.00000000000E+00 0. -1.
         11    1    3    3    0    0  0.12818087902E+01  0.41706004421E+01 -0.98866738375E+01  0.10806630449E+02  0.51100000000E-03 0. -1.
        -11    1    3    3    0    0 -0.21088629176E+01 -0.38536897025E+02  0.19077083276E+02  0.43052001599E+02  0.51100000000E-03 0.  1.
        -12    1    3    3    0    0  0.22743722909E+01  0.29430564743E+01 -0.39742831232E+01  0.54432781549E+01  0.00000000000E+00 0.  1.
</event>
<event>
 7    1  0.7578565E-012  0.5930193E+02  0.7816164E-02  0.1266605E+00
        -11   -1    0    0    0    0  0.00000000000E+00  0.00000000000E+00  0.45593999997E+02  0.45594000000E+02  0.51100000000E-03 0.  1.
         11   -1    0    0    0    0 -0.00000000000E+00 -0.00000000000E+00 -0.45593999997E+02  0.45594000000E+02  0.51100000000E-03 0. -1.
    9900012    2    1    2    0    0 -0.15991050175E+02  0.16027626566E+01  0.27539769260E+02  0.59301930553E+02  0.49999975426E+02 0.  0.
         12    1    1    2    0    0  0.15991050175E+02 -0.16027626566E+01 -0.27539769260E+02  0.31886069447E+02  0.00000000000E+00 0. -1.
         11    1    3    3    0    0  0.15550176401E+02  0.79874900553E+00  0.64381630922E+01  0.16849211564E+02  0.51100000000E-03 0. -1.
        -11    1    3    3    0    0 -0.23989610992E+02  0.84397396327E+01  0.18369293859E+02  0.31371349951E+02  0.51100000000E-03 0.  1.
        -12    1    3    3    0    0 -0.75516155843E+01 -0.76357259817E+01  0.27323123089E+01  0.11081369038E+02  0.00000000000E+00 0.  1.
</event>
<event>
 7    1  0.7578565E-012  0.5930193E+02  0.7816164E-02  0.1266605E+00
        -11   -1    0    0    0    0  0.00000000000E+00  0.00000000000E+00  0.45593999997E+02  0.45594000000E+02  0.51100000000E-03 0. -1.
         11   -1    0    0    0    0 -0.00000000000E+00 -0.00000000000E+00 -0.45593999997E+02  0.45594000000E+02  0.51100000000E-03 0.  1.
    9900012    2    1    2    0    0 -0.18495935511E+02  0.16094281437E+02 -0.20386172095E+02  0.59301928776E+02  0.49999972184E+02 0.  0.
         12    1    1    2    0    0  0.18495935511E+02 -0.16094281437E+02  0.20386172095E+02  0.31886071224E+02  0.00000000000E+00 0. -1.
         11    1    3    3    0    0  0.11375968671E+02  0.35298666866E+01  0.41471696113E+01  0.12612360527E+02  0.51100000000E-03 0. -1.
        -11    1    3    3    0    0 -0.11700381908E+02  0.10366352935E+02  0.54542442315E+00  0.15641537585E+02  0.51100000000E-03 0.  1.
         12    1    3    3    0    0 -0.18171522274E+02  0.21980618154E+01 -0.25078766130E+02  0.31048030664E+02  0.00000000000E+00 0. -1.
</event>
<event>
 7    1  0.7578565E-012  0.5930210E+02  0.7816164E-02  0.1266604E+00
        -11   -1    0    0    0    0  0.00000000000E+00  0.00000000000E+00  0.45593999997E+02  0.45594000000E+02  0.51100000000E-03 0. -1.
         11   -1    0    0    0    0 -0.00000000000E+00 -0.00000000000E+00 -0.45593999997E+02  0.45594000000E+02  0.51100000000E-03 0.  1.
    9900012    2    1    2    0    0 -0.37979577128E+01  0.17352401333E+01 -0.31611307817E+02  0.59302104638E+02  0.50000292914E+02 0.  0.
         12    1    1    2    0    0  0.37979577128E+01 -0.17352401333E+01  0.31611307817E+02  0.31885895362E+02  0.00000000000E+00 0. -1.
         11    1    3    3    0    0 -0.14807674168E+02 -0.15221103552E+02 -0.27678001431E+02  0.34885827654E+02  0.51100000000E-03 0. -1.
        -11    1    3    3    0    0  0.50199960173E+01  0.15501109185E+02 -0.67533921157E+01  0.17637830119E+02  0.51100000000E-03 0.  1.
         12    1    3    3    0    0  0.59897204383E+01  0.14552345007E+01  0.28200857293E+01  0.67784468650E+01  0.00000000000E+00 0. -1.
</event>
<event>
 7    1  0.7578565E-012  0.5930196E+02  0.7816164E-02  0.1266605E+00
        -11   -1    0    0    0    0  0.00000000000E+00  0.00000000000E+00  0.45593999997E+02  0.45594000000E+02  0.51100000000E-03 0.  1.
         11   -1    0    0    0    0 -0.00000000000E+00 -0.00000000000E+00 -0.45593999997E+02  0.45594000000E+02  0.51100000000E-03 0. -1.
    9900012    2    1    2    0    0 -0.23438547890E+02  0.12495900068E+02  0.17641041555E+02  0.59301962416E+02  0.50000033536E+02 0.  0.
         12    1    1    2    0    0  0.23438547890E+02 -0.12495900068E+02 -0.17641041555E+02  0.31886037584E+02  0.00000000000E+00 0. -1.
         11    1    3    3    0    0 -0.20627339891E+02 -0.21918984420E+01  0.57022886632E+00  0.20751306729E+02  0.51100000000E-03 0.  1.
        -11    1    3    3    0    0  0.73039984233E+01  0.20448004647E+02  0.60970315722E+01  0.22553116886E+02  0.51100000000E-03 0. -1.
        -12    1    3    3    0    0 -0.10115206422E+02 -0.57602061370E+01  0.10973781116E+02  0.15997538801E+02  0.00000000000E+00 0.  1.
</event>
<event>
 7    1  0.7578565E-012  0.5930193E+02  0.7816164E-02  0.1266605E+00
        -11   -1    0    0    0    0  0.00000000000E+00  0.00000000000E+00  0.45593999997E+02  0.45594000000E+02  0.51100000000E-03 0. -1.
         11   -1    0    0    0    0 -0.00000000000E+00 -0.00000000000E+00 -0.45593999997E+02  0.45594000000E+02  0.51100000000E-03 0.  1.
    9900012    2    1    2    0    0  0.81302021494E+01  0.10386667418E+02 -0.29029955336E+02  0.59301931665E+02  0.49999977454E+02 0.  0.
         12    1    1    2    0    0 -0.81302021494E+01 -0.10386667418E+02  0.29029955336E+02  0.31886068335E+02  0.00000000000E+00 0. -1.
         11    1    3    3    0    0 -0.11488435805E+02  0.53084667969E+01 -0.22272005049E+01  0.12850073903E+02  0.51100000000E-03 0. -1.
        -11    1    3    3    0    0  0.22198731278E+02  0.75276143949E+01 -0.45015254512E+01  0.23868648485E+02  0.51100000000E-03 0.  1.
        -12    1    3    3    0    0 -0.25800933241E+01 -0.24494137739E+01 -0.22301229380E+02  0.22583209277E+02  0.00000000000E+00 0.  1.
</event>
<event>
 7    1  0.7578565E-012  0.5930194E+02  0.7816164E-02  0.1266605E+00
        -11   -1    0    0    0    0  0.00000000000E+00  0.00000000000E+00  0.45593999997E+02  0.45594000000E+02  0.51100000000E-03 0.  1.
         11   -1    0    0    0    0 -0.00000000000E+00 -0.00000000000E+00 -0.45593999997E+02  0.45594000000E+02  0.51100000000E-03 0. -1.
    9900012    2    1    2    0    0 -0.12594002298E+02 -0.14054101971E+02  0.25702023233E+02  0.59301942320E+02  0.49999996885E+02 0.  0.
         12    1    1    2    0    0  0.12594002298E+02  0.14054101971E+02 -0.25702023233E+02  0.31886057680E+02  0.00000000000E+00 0. -1.
         11    1    3    3    0    0  0.11074227108E+02 -0.30062090391E+00  0.14272231719E+02  0.18067248752E+02  0.51100000000E-03 0. -1.
        -11    1    3    3    0    0 -0.22120181528E+02 -0.21419897905E+02  0.12706171189E+02  0.33310077209E+02  0.51100000000E-03 0.  1.
         12    1    3    3    0    0 -0.15480478782E+01  0.76664168375E+01 -0.12763796748E+01  0.79246163588E+01  0.00000000000E+00 0. -1.
</event>
<event>
 7    1  0.7578565E-012  0.5930195E+02  0.7816164E-02  0.1266605E+00
        -11   -1    0    0    0    0  0.00000000000E+00  0.00000000000E+00  0.45593999997E+02  0.45594000000E+02  0.51100000000E-03 0. -1.
         11   -1    0    0    0    0 -0.00000000000E+00 -0.00000000000E+00 -0.45593999997E+02  0.45594000000E+02  0.51100000000E-03 0.  1.
    9900012    2    1    2    0    0 -0.51085556622E+01  0.19834578012E+02 -0.24437934483E+02  0.59301945562E+02  0.50000002798E+02 0.  0.
         12    1    1    2    0    0  0.51085556622E+01 -0.19834578012E+02  0.24437934483E+02  0.31886054438E+02  0.00000000000E+00 0. -1.
         11    1    3    3    0    0 -0.51693186289E+01 -0.12984083173E+02 -0.20644652712E+01  0.14126934843E+02  0.51100000000E-03 0. -1.
        -11    1    3    3    0    0  0.10215284255E+02  0.11437329623E+02 -0.11264137774E+02  0.19027489098E+02  0.51100000000E-03 0.  1.
         12    1    3    3    0    0 -0.10154521288E+02  0.21381331562E+02 -0.11109331438E+02  0.26147521621E+02  0.00000000000E+00 0. -1.
</event>
<event>
 7    1  0.7578565E-012  0.5930190E+02  0.7816164E-02  0.1266605E+00
        -11   -1    0    0    0    0  0.00000000000E+00  0.00000000000E+00  0.45593999997E+02  0.45594000000E+02  0.51100000000E-03 0. -1.
         11   -1    0    0    0    0 -0.00000000000E+00 -0.00000000000E+00 -0.45593999997E+02  0.45594000000E+02  0.51100000000E-03 0.  1.
    9900012    2    1    2    0    0 -0.30558168972E+02  0.91061175804E+01 -0.11274915635E-01  0.59301902788E+02  0.49999924788E+02 0.  0.
         12    1    1    2    0    0  0.30558168972E+02 -0.91061175804E+01  0.11274915635E-01  0.31886097212E+02  0.00000000000E+00 0. -1.
         11    1    3    3    0    0 -0.24097013268E+02  0.92445490220E+01  0.18223097169E+02  0.31594445805E+02  0.51100000000E-03 0. -1.
        -11    1    3    3    0    0 -0.95669701606E+01  0.75215313991E+01 -0.13525908603E+02  0.18194794762E+02  0.51100000000E-03 0.  1.
         12    1    3    3    0    0  0.31058144564E+01 -0.76599628406E+01 -0.47084634815E+01  0.95126622201E+01  0.00000000000E+00 0. -1.
</event>
<event>
 7    1  0.7578565E-012  0.5930193E+02  0.7816164E-02  0.1266605E+00
        -11   -1    0    0    0    0  0.00000000000E+00  0.00000000000E+00  0.45593999997E+02  0.45594000000E+02  0.51100000000E-03 0.  1.
         11   -1    0    0    0    0 -0.00000000000E+00 -0.00000000000E+00 -0.45593999997E+02  0.45594000000E+02  0.51100000000E-03 0. -1.
    9900012    2    1    2    0    0  0.68913626785E+01 -0.17184835813E+01  0.31085003989E+02  0.59301928772E+02  0.49999972177E+02 0.  0.
         12    1    1    2    0    0 -0.68913626785E+01  0.17184835813E+01 -0.31085003989E+02  0.31886071228E+02  0.00000000000E+00 0. -1.
         11    1    3    3    0    0  0.77738976699E+01 -0.25136041811E+02  0.16511933948E+02  0.31062808081E+02  0.51100000000E-03 0. -1.
        -11    1    3    3    0    0 -0.31446515545E+01  0.18612694547E+02  0.11483794860E+02  0.22095220668E+02  0.51100000000E-03 0.  1.
         12    1    3    3    0    0  0.22621165630E+01  0.48048636821E+01  0.30892751809E+01  0.61439000230E+01  0.00000000000E+00 0. -1.
</event>
<event>
 7    1  0.7578565E-012  0.5930193E+02  0.7816164E-02  0.1266605E+00
        -11   -1    0    0    0    0  0.00000000000E+00  0.00000000000E+00  0.45593999997E+02  0.45594000000E+02  0.51100000000E-03 0.  1.
         11   -1    0    0    0    0 -0.00000000000E+00 -0.00000000000E+00 -0.45593999997E+02  0.45594000000E+02  0.51100000000E-03 0. -1.
    9900012    2    1    2    0    0  0.38458457608E+01  0.82210312900E+01  0.30567063057E+02  0.59301933623E+02  0.49999981024E+02 0.  0.
         12    1    1    2    0    0 -0.38458457608E+01 -0.82210312900E+01 -0.30567063057E+02  0.31886066377E+02  0.00000000000E+00 0. -1.
         11    1    3    3    0    0  0.66489918527E+01  0.96037037789E+01 -0.47967968448E+01  0.12627330643E+02  0.51100000000E-03 0. -1.
        -11    1    3    3    0    0 -0.77835088525E+01  0.84895600299E+01  0.33546851622E+02  0.35468956759E+02  0.51100000000E-03 0.  1.
        -12    1    3    3    0    0  0.49803627606E+01 -0.98722325188E+01  0.18170082795E+01  0.11205646221E+02  0.00000000000E+00 0.  1.
</event>
<event>
 7    1  0.7578565E-012  0.5930194E+02  0.7816164E-02  0.1266605E+00
        -11   -1    0    0    0    0  0.00000000000E+00  0.00000000000E+00  0.45593999997E+02  0.45594000000E+02  0.51100000000E-03 0. -1.
         11   -1    0    0    0    0 -0.00000000000E+00 -0.00000000000E+00 -0.45593999997E+02  0.45594000000E+02  0.51100000000E-03 0.  1.
    9900012    2    1    2    0    0 -0.13551570992E+02 -0.28358476756E+02 -0.53733014375E+01  0.59301942724E+02  0.49999997622E+02 0.  0.
         12    1    1    2    0    0  0.13551570992E+02  0.28358476756E+02  0.53733014375E+01  0.31886057276E+02  0.00000000000E+00 0. -1.
         11    1    3    3    0    0  0.94513003659E+01 -0.11929934062E+02 -0.18149635796E+01  0.15327899347E+02  0.51100000000E-03 0. -1.
        -11    1    3    3    0    0 -0.20550447911E+02 -0.23740264532E+02 -0.10986944564E+02  0.33266109188E+02  0.51100000000E-03 0.  1.
        -12    1    3    3    0    0 -0.24524234468E+01  0.73117218377E+01  0.74286067064E+01  0.10707934189E+02  0.00000000000E+00 0.  1.
</event>
<event>
 7    1  0.7578565E-012  0.5930204E+02  0.7816164E-02  0.1266604E+00
        -11   -1    0    0    0    0  0.00000000000E+00  0.00000000000E+00  0.45593999997E+02  0.45594000000E+02  0.51100000000E-03 0.  1.
         11   -1    0    0    0    0 -0.00000000000E+00 -0.00000000000E+00 -0.45593999997E+02  0.45594000000E+02  0.51100000000E-03 0. -1.
    9900012    2    1    2    0    0 -0.23288318337E+02 -0.68542445994E+01  0.20673364451E+02  0.59302040116E+02  0.50000175242E+02 0.  0.
         12    1    1    2    0    0  0.23288318337E+02  0.68542445994E+01 -0.20673364451E+02  0.31885959884E+02  0.00000000000E+00 0. -1.
         11    1    3    3    0    0 -0.31415708856E+02 -0.63944068919E+01  0.10040063251E+02  0.33595209075E+02  0.51100000000E-03 0. -1.
        -11    1    3    3    0    0  0.28219427683E+01 -0.47521941980E+01  0.16062172034E+02  0.16986467596E+02  0.51100000000E-03 0.  1.
         12    1    3    3    0    0  0.53054477509E+01  0.42923564905E+01 -0.54288708344E+01  0.87203634451E+01  0.00000000000E+00 0. -1.
</event>
<event>
 7    1  0.7578565E-012  0.5930192E+02  0.7816164E-02  0.1266605E+00
        -11   -1    0    0    0    0  0.00000000000E+00  0.00000000000E+00  0.45593999997E+02  0.45594000000E+02  0.51100000000E-03 0.  1.
         11   -1    0    0    0    0 -0.00000000000E+00 -0.00000000000E+00 -0.45593999997E+02  0.45594000000E+02  0.51100000000E-03 0. -1.
    9900012    2    1    2    0    0  0.12855623616E+02  0.24397751125E+02  0.16006398329E+02  0.59301919871E+02  0.49999955944E+02 0.  0.
         12    1    1    2    0    0 -0.12855623616E+02 -0.24397751125E+02 -0.16006398329E+02  0.31886080129E+02  0.00000000000E+00 0. -1.
         11    1    3    3    0    0 -0.45384367282E+01 -0.59061087016E+00  0.77866045220E+01  0.90320229948E+01  0.51100000000E-03 0. -1.
        -11    1    3    3    0    0  0.28485741087E+02  0.93682205201E+01  0.82924381280E+01  0.31112144435E+02  0.51100000000E-03 0.  1.
        -12    1    3    3    0    0 -0.11091680742E+02  0.15620141475E+02 -0.72644321405E-01  0.19157752441E+02  0.00000000000E+00 0.  1.
</event>
<event>
 7    1  0.7578565E-012  0.5930194E+02  0.7816164E-02  0.1266605E+00
        -11   -1    0    0    0    0  0.00000000000E+00  0.00000000000E+00  0.45593999997E+02  0.45594000000E+02  0.51100000000E-03 0. -1.
         11   -1    0    0    0    0 -0.00000000000E+00 -0.00000000000E+00 -0.45593999997E+02  0.45594000000E+02  0.51100000000E-03 0.  1.
    9900012    2    1    2    0    0 -0.21878617005E+02  0.52629256040E+01  0.22590893068E+02  0.59301941643E+02  0.49999995651E+02 0.  0.
         12    1    1    2    0    0  0.21878617005E+02 -0.52629256040E+01 -0.22590893068E+02  0.31886058357E+02  0.00000000000E+00 0. -1.
         11    1    3    3    0    0 -0.10933542568E+02 -0.13875662233E+02  0.24702959655E+02  0.30369599462E+02  0.51100000000E-03 0. -1.
        -11    1    3    3    0    0 -0.43634300574E+01  0.18436469230E+02  0.46099153278E+01  0.19498570181E+02  0.51100000000E-03 0.  1.
         12    1    3    3    0    0 -0.65816443793E+01  0.70211860746E+00 -0.67219819152E+01  0.94337719998E+01  0.00000000000E+00 0. -1.
</event>
<event>
 7    1  0.7578565E-012  0.5930178E+02  0.7816164E-02  0.1266605E+00
        -11   -1    0    0    0    0  0.00000000000E+00  0.00000000000E+00  0.45593999997E+02  0.45594000000E+02  0.51100000000E-03 0.  1.
         11   -1    0    0    0    0 -0.00000000000E+00 -0.00000000000E+00 -0.45593999997E+02  0.45594000000E+02  0.51100000000E-03 0. -1.
    9900012    2    1    2    0    0 -0.18382310376E+02  0.14659557203E+02  0.21538787265E+02  0.59301775561E+02  0.49999692756E+02 0.  0.
         12    1    1    2    0    0  0.18382310376E+02 -0.14659557203E+02 -0.21538787265E+02  0.31886224439E+02  0.00000000000E+00 0. -1.
         11    1    3    3    0    0 -0.23652845231E+01  0.66830787842E+01 -0.93521783956E+01  0.11735474167E+02  0.51100000000E-03 0. -1.
        -11    1    3    3    0    0 -0.44558369189E+01 -0.10742484487E+02  0.19713690335E+02  0.22888535176E+02  0.51100000000E-03 0.  1.
         12    1    3    3    0    0 -0.11561188934E+02  0.18718962906E+02  0.11177275325E+02  0.24677766219E+02  0.00000000000E+00 0. -1.
</event>
<event>
 7    1  0.7578565E-012  0.5930195E+02  0.7816164E-02  0.1266605E+00
        -11   -1    0    0    0    0  0.00000000000E+00  0.00000000000E+00  0.45593999997E+02  0.45594000000E+02  0.51100000000E-03 0. -1.
         11   -1    0    0    0    0 -0.00000000000E+00 -0.00000000000E+00 -0.45593999997E+02  0.45594000000E+02  0.51100000000E-03 0.  1.
    9900012    2    1    2    0    0  0.98613866356E+00  0.20933003632E+02 -0.24032416387E+02  0.59301950575E+02  0.50000011941E+02 0.  0.
         12    1    1    2    0    0 -0.98613866356E+00 -0.20933003632E+02  0.24032416387E+02  0.31886049425E+02  0.00000000000E+00 0. -1.
         11    1    3    3    0    0  0.18592136499E+01  0.25838282065E+01  0.46132104816E+01  0.56048688482E+01  0.51100000000E-03 0. -1.
        -11    1    3    3    0    0 -0.49435164400E+01  0.31330980913E+02 -0.18435430327E+02  0.36686970594E+02  0.51100000000E-03 0.  1.
        -12    1    3    3    0    0  0.40704414536E+01 -0.12981805488E+02 -0.10210196541E+02  0.17010111133E+02  0.00000000000E+00 0.  1.
</event>
<event>
 7    1  0.7578565E-012  0.5930192E+02  0.7816164E-02  0.1266605E+00
        -11   -1    0    0    0    0  0.00000000000E+00  0.00000000000E+00  0.45593999997E+02  0.45594000000E+02  0.51100000000E-03 0.  1.
         11   -1    0    0    0    0 -0.00000000000E+00 -0.00000000000E+00 -0.45593999997E+02  0.45594000000E+02  0.51100000000E-03 0. -1.
    9900012    2    1    2    0    0 -0.15532195190E+02 -0.27839892095E+02  0.64287048510E+00  0.59301922133E+02  0.49999960068E+02 0.  0.
         12    1    1    2    0    0  0.15532195190E+02  0.27839892095E+02 -0.64287048510E+00  0.31886077867E+02  0.00000000000E+00 0. -1.
         11    1    3    3    0    0  0.15570653681E+02 -0.52072523650E+01 -0.67811254810E+01  0.17763569357E+02  0.51100000000E-03 0. -1.
        -11    1    3    3    0    0 -0.22849629706E+01 -0.82666184224E+01  0.27123035426E+01  0.89952557877E+01  0.51100000000E-03 0.  1.
         12    1    3    3    0    0 -0.28817885901E+02 -0.14366021308E+02  0.47116924235E+01  0.32543096987E+02  0.00000000000E+00 0. -1.
</event>
<event>
 7    1  0.7578565E-012  0.5930195E+02  0.7816164E-02  0.1266605E+00
        -11   -1    0    0    0    0  0.00000000000E+00  0.00000000000E+00  0.45593999997E+02  0.45594000000E+02  0.51100000000E-03 0.  1.
         11   -1    0    0    0    0 -0.00000000000E+00 -0.00000000000E+00 -0.45593999997E+02  0.45594000000E+02  0.51100000000E-03 0. -1.
    9900012    2    1    2    0    0  0.18450772112E+02 -0.25632956323E+02  0.43864594629E+01  0.59301945556E+02  0.50000002787E+02 0.  0.
         12    1    1    2    0    0 -0.18450772112E+02  0.25632956323E+02 -0.43864594629E+01  0.31886054444E+02  0.00000000000E+00 0. -1.
         11    1    3    3    0    0  0.89070573057E+01 -0.55925796229E+01 -0.39386913735E+01  0.11230579089E+02  0.51100000000E-03 0. -1.
        -11    1    3    3    0    0 -0.10073765806E+02 -0.24667361739E+01 -0.11215815108E+02  0.15276126920E+02  0.51100000000E-03 0.  1.
        -12    1    3    3    0    0  0.19617480613E+02 -0.17573640526E+02  0.19540965944E+02  0.32795239547E+02  0.00000000000E+00 0.  1.
</event>
<event>
 7    1  0.7578565E-012  0.5930196E+02  0.7816164E-02  0.1266605E+00
        -11   -1    0    0    0    0  0.00000000000E+00  0.00000000000E+00  0.45593999997E+02  0.45594000000E+02  0.51100000000E-03 0.  1.
         11   -1    0    0    0    0 -0.00000000000E+00 -0.00000000000E+00 -0.45593999997E+02  0.45594000000E+02  0.51100000000E-03 0. -1.
    9900012    2    1    2    0    0 -0.23789800505E+02  0.20441102601E+02 -0.57381547984E+01  0.59301957535E+02  0.50000024634E+02 0.  0.
         12    1    1    2    0    0  0.23789800505E+02 -0.20441102601E+02  0.57381547984E+01  0.31886042465E+02  0.00000000000E+00 0. -1.
         11    1    3    3    0    0  0.44838221878E+00  0.15194654317E+02 -0.20969684581E+01  0.15345222169E+02  0.51100000000E-03 0.  1.
        -11    1    3    3    0    0 -0.22553551512E+02  0.65801846225E+00 -0.17952454757E+02  0.28833770239E+02  0.51100000000E-03 0. -1.
        -12    1    3    3    0    0 -0.16846312116E+01  0.45884298209E+01  0.14311268417E+02  0.15122965127E+02  0.00000000000E+00 0.  1.
</event>
<event>
 7    1  0.7578565E-012  0.5930201E+02  0.7816164E-02  0.1266605E+00
        -11   -1    0    0    0    0  0.00000000000E+00  0.00000000000E+00  0.45593999997E+02  0.45594000000E+02  0.51100000000E-03 0. -1.
         11   -1    0    0    0    0 -0.00000000000E+00 -0.00000000000E+00 -0.45593999997E+02  0.45594000000E+02  0.51100000000E-03 0.  1.
    9900012    2    1    2    0    0  0.14168853695E+02  0.20371752872E+02 -0.20023770972E+02  0.59302013516E+02  0.50000126730E+02 0.  0.
         12    1    1    2    0    0 -0.14168853695E+02 -0.20371752872E+02  0.20023770972E+02  0.31885986484E+02  0.00000000000E+00 0. -1.
         11    1    3    3    0    0  0.79090703301E+01  0.11482693335E+02  0.23501191618E+01  0.14139614565E+02  0.51100000000E-03 0. -1.
        -11    1    3    3    0    0  0.33247338808E+01 -0.29723727956E+01 -0.30281233984E+02  0.30607874595E+02  0.51100000000E-03 0.  1.
        -12    1    3    3    0    0  0.29350494839E+01  0.11861432333E+02  0.79073438500E+01  0.14554524356E+02  0.00000000000E+00 0.  1.
</event>
<event>
 7    1  0.7578565E-012  0.5930197E+02  0.7816164E-02  0.1266605E+00
        -11   -1    0    0    0    0  0.00000000000E+00  0.00000000000E+00  0.45593999997E+02  0.45594000000E+02  0.51100000000E-03 0.  1.
         11   -1    0    0    0    0 -0.00000000000E+00 -0.00000000000E+00 -0.45593999997E+02  0.45594000000E+02  0.51100000000E-03 0. -1.
    9900012    2    1    2    0    0  0.12468438645E+01  0.25495854612E+02  0.19108257332E+02  0.59301972962E+02  0.50000052769E+02 0.  0.
         12    1    1    2    0    0 -0.12468438645E+01 -0.25495854612E+02 -0.19108257332E+02  0.31886027038E+02  0.00000000000E+00 0. -1.
         11    1    3    3    0    0  0.16692627193E+02 -0.11333522101E+01 -0.53446454639E+01  0.17563983752E+02  0.51100000000E-03 0. -1.
        -11    1    3    3    0    0 -0.84590648163E+01  0.13738120506E+02  0.21333516304E+02  0.26747161546E+02  0.51100000000E-03 0.  1.
         12    1    3    3    0    0 -0.69867185119E+01  0.12891086316E+02  0.31193864916E+01  0.14990827664E+02  0.00000000000E+00 0. -1.
</event>
<event>
 7    1  0.7578565E-012  0.5930193E+02  0.7816164E-02  0.1266605E+00
        -11   -1    0    0    0    0  0.00000000000E+00  0.00000000000E+00  0.45593999997E+02  0.45594000000E+02  0.51100000000E-03 0.  1.
         11   -1    0    0    0    0 -0.00000000000E+00 -0.00000000000E+00 -0.45593999997E+02  0.45594000000E+02  0.51100000000E-03 0. -1.
    9900012    2    1    2    0    0 -0.29014154509E+02  0.36191500697E+01  0.12720152974E+02  0.59301926225E+02  0.49999967531E+02 0.  0.
         12    1    1    2    0    0  0.29014154509E+02 -0.36191500697E+01 -0.12720152974E+02  0.31886073775E+02  0.00000000000E+00 0. -1.
         11    1    3    3    0    0 -0.14680138188E+02 -0.15451873221E+02  0.13858526478E+02  0.25422934521E+02  0.51100000000E-03 0. -1.
        -11    1    3    3    0    0 -0.25701887741E+01  0.20915799220E+02  0.29725626429E+01  0.21281744672E+02  0.51100000000E-03 0.  1.
         12    1    3    3    0    0 -0.11763827547E+02 -0.18447759299E+01 -0.41109361464E+01  0.12597247032E+02  0.00000000000E+00 0. -1.
</event>
<event>
 7    1  0.7578565E-012  0.5930194E+02  0.7816164E-02  0.1266605E+00
        -11   -1    0    0    0    0  0.00000000000E+00  0.00000000000E+00  0.45593999997E+02  0.45594000000E+02  0.51100000000E-03 0. -1.
         11   -1    0    0    0    0 -0.00000000000E+00 -0.00000000000E+00 -0.45593999997E+02  0.45594000000E+02  0.51100000000E-03 0.  1.
    9900012    2    1    2    0    0  0.18683917354E+02  0.15003549035E+02 -0.21036288050E+02  0.59301942447E+02  0.49999997118E+02 0.  0.
         12    1    1    2    0    0 -0.18683917354E+02 -0.15003549035E+02  0.21036288050E+02  0.31886057553E+02  0.00000000000E+00 0. -1.
         11    1    3    3    0    0  0.24877589319E+02  0.28509304701E+01 -0.53192011798E+01  0.25599143664E+02  0.51100000000E-03 0. -1.
        -11    1    3    3    0    0 -0.11805340445E+02  0.11746127181E+02  0.37271966115E+00  0.16657625490E+02  0.51100000000E-03 0.  1.
         12    1    3    3    0    0  0.56116684800E+01  0.40649138433E+00 -0.16089806531E+02  0.17045173293E+02  0.00000000000E+00 0. -1.
</event>
<event>
 7    1  0.7578565E-012  0.5930193E+02  0.7816164E-02  0.1266605E+00
        -11   -1    0    0    0    0  0.00000000000E+00  0.00000000000E+00  0.45593999997E+02  0.45594000000E+02  0.51100000000E-03 0.  1.
         11   -1    0    0    0    0 -0.00000000000E+00 -0.00000000000E+00 -0.45593999997E+02  0.45594000000E+02  0.51100000000E-03 0. -1.
    9900012    2    1    2    0    0  0.22868435383E+02  0.21520167515E+02  0.55351984127E+01  0.59301931440E+02  0.49999977043E+02 0.  0.
         12    1    1    2    0    0 -0.22868435383E+02 -0.21520167515E+02 -0.55351984127E+01  0.31886068560E+02  0.00000000000E+00 0. -1.
         11    1    3    3    0    0  0.29517119796E+02  0.35106318991E+01 -0.90812377699E+01  0.31081405649E+02  0.51100000000E-03 0. -1.
        -11    1    3    3    0    0  0.38164665766E+01  0.94546525279E+01  0.89396653710E+01  0.13559995898E+02  0.51100000000E-03 0.  1.
         12    1    3    3    0    0 -0.10465150990E+02  0.85548830882E+01  0.56767708116E+01  0.14660529893E+02  0.00000000000E+00 0. -1.
</event>
<event>
 7    1  0.7578565E-012  0.5930206E+02  0.7816164E-02  0.1266604E+00
        -11   -1    0    0    0    0  0.00000000000E+00  0.00000000000E+00  0.45593999997E+02  0.45594000000E+02  0.51100000000E-03 0. -1.
         11   -1    0    0    0    0 -0.00000000000E+00 -0.00000000000E+00 -0.45593999997E+02  0.45594000000E+02  0.51100000000E-03 0.  1.
    9900012    2    1    2    0    0 -0.11557150729E+02  0.19470764858E+02 -0.22450722782E+02  0.59302056851E+02  0.50000205761E+02 0.  0.
         12    1    1    2    0    0  0.11557150729E+02 -0.19470764858E+02  0.22450722782E+02  0.31885943149E+02  0.00000000000E+00 0. -1.
         11    1    3    3    0    0  0.66146310990E+01  0.15226230369E+02  0.32465704721E+01  0.16915426566E+02  0.51100000000E-03 0. -1.
        -11    1    3    3    0    0 -0.10322167821E+02 -0.10550510790E+02 -0.46221143248E+01  0.15466879696E+02  0.51100000000E-03 0.  1.
        -12    1    3    3    0    0 -0.78496140073E+01  0.14795045278E+02 -0.21075178929E+02  0.26919750588E+02  0.00000000000E+00 0.  1.
</event>
<event>
 7    1  0.7578565E-012  0.5930194E+02  0.7816164E-02  0.1266605E+00
        -11   -1    0    0    0    0  0.00000000000E+00  0.00000000000E+00  0.45593999997E+02  0.45594000000E+02  0.51100000000E-03 0.  1.
         11   -1    0    0    0    0 -0.00000000000E+00 -0.00000000000E+00 -0.45593999997E+02  0.45594000000E+02  0.51100000000E-03 0. -1.
    9900012    2    1    2    0    0  0.30771122464E+02 -0.80759617769E+01  0.21534731838E+01  0.59301943751E+02  0.49999999496E+02 0.  0.
         12    1    1    2    0    0 -0.30771122464E+02  0.80759617769E+01 -0.21534731838E+01  0.31886056249E+02  0.00000000000E+00 0. -1.
         11    1    3    3    0    0 -0.64945977959E+01 -0.13574640796E+02 -0.31424079745E+01  0.15372878761E+02  0.51100000000E-03 0. -1.
        -11    1    3    3    0    0  0.36200927087E+02  0.33016148388E+01  0.10788446903E+02  0.37918311795E+02  0.51100000000E-03 0.  1.
        -12    1    3    3    0    0  0.10647931730E+01  0.21970641806E+01 -0.54925657446E+01  0.60107531952E+01  0.00000000000E+00 0.  1.
</event>
<event>
 7    1  0.7578565E-012  0.5930194E+02  0.7816164E-02  0.1266605E+00
        -11   -1    0    0    0    0  0.00000000000E+00  0.00000000000E+00  0.45593999997E+02  0.45594000000E+02  0.51100000000E-03 0. -1.
         11   -1    0    0    0    0 -0.00000000000E+00 -0.00000000000E+00 -0.45593999997E+02  0.45594000000E+02  0.51100000000E-03 0.  1.
    9900012    2    1    2    0    0 -0.25002306219E+02  0.58053005208E+01 -0.18918358444E+02  0.59301935385E+02  0.49999984239E+02 0.  0.
         12    1    1    2    0    0  0.25002306219E+02 -0.58053005208E+01  0.18918358444E+02  0.31886064615E+02  0.00000000000E+00 0. -1.
         11    1    3    3    0    0 -0.99129858355E+01 -0.13792056553E+02  0.10545843215E+02  0.19992571658E+02  0.51100000000E-03 0. -1.
        -11    1    3    3    0    0 -0.33785524954E+01  0.99724631812E+01 -0.15229750724E+02  0.18515127497E+02  0.51100000000E-03 0.  1.
         12    1    3    3    0    0 -0.11710767888E+02  0.96248938926E+01 -0.14234450935E+02  0.20794236230E+02  0.00000000000E+00 0. -1.
</event>
<event>
 7    1  0.7578565E-012  0.5930193E+02  0.7816164E-02  0.1266605E+00
        -11   -1    0    0    0    0  0.00000000000E+00  0.00000000000E+00  0.45593999997E+02  0.45594000000E+02  0.51100000000E-03 0. -1.
         11   -1    0    0    0    0 -0.00000000000E+00 -0.00000000000E+00 -0.45593999997E+02  0.45594000000E+02  0.51100000000E-03 0.  1.
    9900012    2    1    2    0    0  0.12236089814E+02  0.29346855736E+02 -0.24002777715E+01  0.59301934565E+02  0.49999982743E+02 0.  0.
         12    1    1    2    0    0 -0.12236089814E+02 -0.29346855736E+02  0.24002777715E+01  0.31886065435E+02  0.00000000000E+00 0. -1.
         11    1    3    3    0    0 -0.13395525874E+01 -0.14410872638E+01 -0.12091221107E+02  0.12250255579E+02  0.51100000000E-03 0. -1.
        -11    1    3    3    0    0 -0.29288494532E+01  0.29315985670E+02  0.57094634964E+01  0.30010050793E+02  0.51100000000E-03 0.  1.
         12    1    3    3    0    0  0.16504491854E+02  0.14719573295E+01  0.39814798394E+01  0.17041628193E+02  0.00000000000E+00 0. -1.
</event>
<event>
 7    1  0.7578565E-012  0.5930184E+02  0.7816164E-02  0.1266605E+00
        -11   -1    0    0    0    0  0.00000000000E+00  0.00000000000E+00  0.45593999997E+02  0.45594000000E+02  0.51100000000E-03 0. -1.
         11   -1    0    0    0    0 -0.00000000000E+00 -0.00000000000E+00 -0.45593999997E+02  0.45594000000E+02  0.51100000000E-03 0.  1.
    9900012    2    1    2    0    0 -0.48183991554E+01 -0.34668509766E+01 -0.31328756488E+02  0.59301842985E+02  0.49999815721E+02 0.  0.
         12    1    1    2    0    0  0.48183991554E+01  0.34668509766E+01  0.31328756488E+02  0.31886157015E+02  0.00000000000E+00 0. -1.
         11    1    3    3    0    0 -0.52504998969E+01 -0.17503532868E+02  0.35381192222E+01  0.18613427946E+02  0.51100000000E-03 0. -1.
        -11    1    3    3    0    0 -0.48543582138E+01  0.14396853132E+02 -0.29287925431E+02  0.32994192672E+02  0.51100000000E-03 0.  1.
         12    1    3    3    0    0  0.52864589553E+01 -0.36017124069E+00 -0.55789502793E+01  0.76942223667E+01  0.00000000000E+00 0. -1.
</event>
<event>
 7    1  0.7578565E-012  0.5930195E+02  0.7816164E-02  0.1266605E+00
        -11   -1    0    0    0    0  0.00000000000E+00  0.00000000000E+00  0.45593999997E+02  0.45594000000E+02  0.51100000000E-03 0. -1.
         11   -1    0    0    0    0 -0.00000000000E+00 -0.00000000000E+00 -0.45593999997E+02  0.45594000000E+02  0.51100000000E-03 0.  1.
    9900012    2    1    2    0    0  0.12162739479E+02  0.42367236019E+01 -0.29169128337E+02  0.59301951225E+02  0.50000013127E+02 0.  0.
         12    1    1    2    0    0 -0.12162739479E+02 -0.42367236019E+01  0.29169128337E+02  0.31886048775E+02  0.00000000000E+00 0. -1.
         11    1    3    3    0    0  0.25602136618E+02  0.82494215752E+01 -0.62542044665E+01  0.27615890887E+02  0.51100000000E-03 0. -1.
        -11    1    3    3    0    0 -0.70969755453E+01  0.31467793521E+01 -0.10671522921E+01  0.78363318240E+01  0.51100000000E-03 0.  1.
         12    1    3    3    0    0 -0.63424215936E+01 -0.71594773254E+01 -0.21847771578E+02  0.23849728514E+02  0.00000000000E+00 0. -1.
</event>
<event>
 7    1  0.7578565E-012  0.5930190E+02  0.7816164E-02  0.1266605E+00
        -11   -1    0    0    0    0  0.00000000000E+00  0.00000000000E+00  0.45593999997E+02  0.45594000000E+02  0.51100000000E-03 0. -1.
         11   -1    0    0    0    0 -0.00000000000E+00 -0.00000000000E+00 -0.45593999997E+02  0.45594000000E+02  0.51100000000E-03 0.  1.
    9900012    2    1    2    0    0  0.30802268370E+02  0.77379096919E+01 -0.28405278676E+01  0.59301896731E+02  0.49999913742E+02 0.  0.
         12    1    1    2    0    0 -0.30802268370E+02 -0.77379096919E+01  0.28405278676E+01  0.31886103269E+02  0.00000000000E+00 0. -1.
         11    1    3    3    0    0 -0.36324364859E+01  0.30703885101E+01  0.20192803704E+01  0.51671436890E+01  0.51100000000E-03 0. -1.
        -11    1    3    3    0    0  0.29918405295E+02  0.20526607946E+02 -0.84611219937E+01  0.37256451721E+02  0.51100000000E-03 0.  1.
        -12    1    3    3    0    0  0.45162995608E+01 -0.15859086764E+02  0.36013137556E+01  0.16878301321E+02  0.00000000000E+00 0.  1.
</event>
<event>
 7    1  0.7578565E-012  0.5930195E+02  0.7816164E-02  0.1266605E+00
        -11   -1    0    0    0    0  0.00000000000E+00  0.00000000000E+00  0.45593999997E+02  0.45594000000E+02  0.51100000000E-03 0. -1.
         11   -1    0    0    0    0 -0.00000000000E+00 -0.00000000000E+00 -0.45593999997E+02  0.45594000000E+02  0.51100000000E-03 0.  1.
    9900012    2    1    2    0    0 -0.23943496348E+02  0.20845280802E+02  0.29839001995E+01  0.59301946474E+02  0.50000004462E+02 0.  0.
         12    1    1    2    0    0  0.23943496348E+02 -0.20845280802E+02 -0.29839001995E+01  0.31886053526E+02  0.00000000000E+00 0. -1.
         11    1    3    3    0    0  0.40654127406E-01 -0.89797229387E+01 -0.47931479542E+01  0.10178965782E+02  0.51100000000E-03 0. -1.
        -11    1    3    3    0    0 -0.57146828288E+01  0.14268101149E+02  0.17447563912E+02  0.23251963292E+02  0.51100000000E-03 0.  1.
        -12    1    3    3    0    0 -0.18269467646E+02  0.15556902591E+02 -0.96705157578E+01  0.25871017401E+02  0.00000000000E+00 0.  1.
</event>
<event>
 7    1  0.7578565E-012  0.5930184E+02  0.7816164E-02  0.1266605E+00
        -11   -1    0    0    0    0  0.00000000000E+00  0.00000000000E+00  0.45593999997E+02  0.45594000000E+02  0.51100000000E-03 0. -1.
         11   -1    0    0    0    0 -0.00000000000E+00 -0.00000000000E+00 -0.45593999997E+02  0.45594000000E+02  0.51100000000E-03 0.  1.
    9900012    2    1    2    0    0  0.30343135318E+02 -0.94618389112E+00  0.97532628984E+01  0.59301839020E+02  0.49999808491E+02 0.  0.
         12    1    1    2    0    0 -0.30343135318E+02  0.94618389112E+00 -0.97532628984E+01  0.31886160980E+02  0.00000000000E+00 0. -1.
         11    1    3    3    0    0 -0.88165165578E+01 -0.12016098870E+02  0.39572906461E+01  0.15420043638E+02  0.51100000000E-03 0. -1.
        -11    1    3    3    0    0  0.24379333264E+02  0.13923682055E+02  0.10379888406E+01  0.28094452005E+02  0.51100000000E-03 0.  1.
         12    1    3    3    0    0  0.14780318611E+02 -0.28537670753E+01  0.47579834116E+01  0.15787343377E+02  0.00000000000E+00 0. -1.
</event>
<event>
 7    1  0.7578565E-012  0.5930191E+02  0.7816164E-02  0.1266605E+00
        -11   -1    0    0    0    0  0.00000000000E+00  0.00000000000E+00  0.45593999997E+02  0.45594000000E+02  0.51100000000E-03 0.  1.
         11   -1    0    0    0    0 -0.00000000000E+00 -0.00000000000E+00 -0.45593999997E+02  0.45594000000E+02  0.51100000000E-03 0. -1.
    9900012    2    1    2    0    0 -0.14915972889E+01 -0.27728776828E+02  0.15672041283E+02  0.59301908913E+02  0.49999935959E+02 0.  0.
         12    1    1    2    0    0  0.14915972889E+01  0.27728776828E+02 -0.15672041283E+02  0.31886091087E+02  0.00000000000E+00 0. -1.
         11    1    3    3    0    0 -0.14551658883E+02  0.60190956440E+01  0.91725962135E+01  0.18224072272E+02  0.51100000000E-03 0. -1.
        -11    1    3    3    0    0  0.10179317564E+02 -0.33720771574E+02  0.14368997516E+01  0.35252994522E+02  0.51100000000E-03 0.  1.
        -12    1    3    3    0    0  0.28807440293E+01 -0.27100898425E-01  0.50625453175E+01  0.58248421191E+01  0.00000000000E+00 0.  1.
</event>
<event>
 7    1  0.7578565E-012  0.5930192E+02  0.7816164E-02  0.1266605E+00
        -11   -1    0    0    0    0  0.00000000000E+00  0.00000000000E+00  0.45593999997E+02  0.45594000000E+02  0.51100000000E-03 0. -1.
         11   -1    0    0    0    0 -0.00000000000E+00 -0.00000000000E+00 -0.45593999997E+02  0.45594000000E+02  0.51100000000E-03 0.  1.
    9900012    2    1    2    0    0 -0.92416430175E+01 -0.69868824978E+01 -0.29706862012E+02  0.59301919286E+02  0.49999954878E+02 0.  0.
         12    1    1    2    0    0  0.92416430175E+01  0.69868824978E+01  0.29706862012E+02  0.31886080714E+02  0.00000000000E+00 0. -1.
         11    1    3    3    0    0  0.27614831767E+01 -0.23142174233E+01  0.23066065115E+01  0.42780632858E+01  0.51100000000E-03 0. -1.
        -11    1    3    3    0    0 -0.16666770565E+02  0.10012540973E+01 -0.40496253210E+02  0.43803313517E+02  0.51100000000E-03 0.  1.
        -12    1    3    3    0    0  0.46636443704E+01 -0.56739191718E+01  0.84827846864E+01  0.11220542483E+02  0.00000000000E+00 0.  1.
</event>
<event>
 7    1  0.7578565E-012  0.5930178E+02  0.7816164E-02  0.1266605E+00
        -11   -1    0    0    0    0  0.00000000000E+00  0.00000000000E+00  0.45593999997E+02  0.45594000000E+02  0.51100000000E-03 0.  1.
         11   -1    0    0    0    0 -0.00000000000E+00 -0.00000000000E+00 -0.45593999997E+02  0.45594000000E+02  0.51100000000E-03 0. -1.
    9900012    2    1    2    0    0 -0.12170199785E+02  0.22484111376E+02  0.19054705453E+02  0.59301783118E+02  0.49999706538E+02 0.  0.
         12    1    1    2    0    0  0.12170199785E+02 -0.22484111376E+02 -0.19054705453E+02  0.31886216882E+02  0.00000000000E+00 0. -1.
         11    1    3    3    0    0 -0.11156164014E+02  0.31524048582E+02  0.14606169352E+02  0.36490626439E+02  0.51100000000E-03 0. -1.
        -11    1    3    3    0    0  0.21333892511E+01 -0.29922790255E+01  0.12051367254E+02  0.12599227612E+02  0.51100000000E-03 0.  1.
         12    1    3    3    0    0 -0.31474250221E+01 -0.60476581808E+01 -0.76028311522E+01  0.10211929067E+02  0.00000000000E+00 0. -1.
</event>
<event>
 7    1  0.7578565E-012  0.5930195E+02  0.7816164E-02  0.1266605E+00
        -11   -1    0    0    0    0  0.00000000000E+00  0.00000000000E+00  0.45593999997E+02  0.45594000000E+02  0.51100000000E-03 0.  1.
         11   -1    0    0    0    0 -0.00000000000E+00 -0.00000000000E+00 -0.45593999997E+02  0.45594000000E+02  0.51100000000E-03 0. -1.
    9900012    2    1    2    0    0  0.10555440074E+02  0.27399807644E+02  0.12431952070E+02  0.59301949659E+02  0.50000010270E+02 0.  0.
         12    1    1    2    0    0 -0.10555440074E+02 -0.27399807644E+02 -0.12431952070E+02  0.31886050341E+02  0.00000000000E+00 0. -1.
         11    1    3    3    0    0 -0.13631765969E+02  0.12757434693E+02 -0.68176647118E+01  0.19876059363E+02  0.51100000000E-03 0. -1.
        -11    1    3    3    0    0  0.88622168981E+01  0.10403187279E+02  0.19148460148E+02  0.23525065785E+02  0.51100000000E-03 0.  1.
         12    1    3    3    0    0  0.15324989145E+02  0.42391856716E+01  0.10115663443E+00  0.15900824511E+02  0.00000000000E+00 0. -1.
</event>
<event>
 7    1  0.7578565E-012  0.5930192E+02  0.7816164E-02  0.1266605E+00
        -11   -1    0    0    0    0  0.00000000000E+00  0.00000000000E+00  0.45593999997E+02  0.45594000000E+02  0.51100000000E-03 0.  1.
         11   -1    0    0    0    0 -0.00000000000E+00 -0.00000000000E+00 -0.45593999997E+02  0.45594000000E+02  0.51100000000E-03 0. -1.
    9900012    2    1    2    0    0  0.31328000550E+02  0.70228608255E+00  0.58979157315E+01  0.59301917861E+02  0.49999952279E+02 0.  0.
         12    1    1    2    0    0 -0.31328000550E+02 -0.70228608255E+00 -0.58979157315E+01  0.31886082139E+02  0.00000000000E+00 0. -1.
         11    1    3    3    0    0 -0.51243767059E+00  0.39712212593E+01 -0.10652637225E+02  0.11380328236E+02  0.51100000000E-03 0. -1.
        -11    1    3    3    0    0  0.85567771053E+01 -0.29375419848E+01  0.22189166968E+02  0.23962610842E+02  0.51100000000E-03 0.  1.
        -12    1    3    3    0    0  0.23283661115E+02 -0.33139319196E+00 -0.56386140121E+01  0.23958978783E+02  0.00000000000E+00 0.  1.
</event>
<event>
 7    1  0.7578565E-012  0.5930200E+02  0.7816164E-02  0.1266605E+00
        -11   -1    0    0    0    0  0.00000000000E+00  0.00000000000E+00  0.45593999997E+02  0.45594000000E+02  0.51100000000E-03 0. -1.
         11   -1    0    0    0    0 -0.00000000000E+00 -0.00000000000E+00 -0.45593999997E+02  0.45594000000E+02  0.51100000000E-03 0.  1.
    9900012    2    1    2    0    0 -0.31356138447E+01  0.31025320566E+02  0.66568834312E+01  0.59302004838E+02  0.50000110904E+02 0.  0.
         12    1    1    2    0    0  0.31356138447E+01 -0.31025320566E+02 -0.66568834312E+01  0.31885995162E+02  0.00000000000E+00 0. -1.
         11    1    3    3    0    0  0.71933294561E+01  0.27023318761E+02  0.51900228635E+01  0.28441872004E+02  0.51100000000E-03 0. -1.
        -11    1    3    3    0    0 -0.74779268559E+01 -0.77316100949E+01 -0.96473364474E+01  0.14448816059E+02  0.51100000000E-03 0.  1.
         12    1    3    3    0    0 -0.28510164449E+01  0.11733611900E+02  0.11114197015E+02  0.16411316775E+02  0.00000000000E+00 0. -1.
</event>
<event>
 7    1  0.7578565E-012  0.5930195E+02  0.7816164E-02  0.1266605E+00
        -11   -1    0    0    0    0  0.00000000000E+00  0.00000000000E+00  0.45593999997E+02  0.45594000000E+02  0.51100000000E-03 0. -1.
         11   -1    0    0    0    0 -0.00000000000E+00 -0.00000000000E+00 -0.45593999997E+02  0.45594000000E+02  0.51100000000E-03 0.  1.
    9900012    2    1    2    0    0 -0.23038258860E+02  0.49168023737E+01 -0.21489149597E+02  0.59301954976E+02  0.50000019966E+02 0.  0.
         12    1    1    2    0    0  0.23038258860E+02 -0.49168023737E+01  0.21489149597E+02  0.31886045024E+02  0.00000000000E+00 0. -1.
         11    1    3    3    0    0 -0.33194318346E+02 -0.10927527353E+01 -0.15263816357E+02  0.36551894192E+02  0.51100000000E-03 0. -1.
        -11    1    3    3    0    0  0.17931380494E+01  0.11576325331E+02 -0.45402369987E+01  0.12563455118E+02  0.51100000000E-03 0.  1.
         12    1    3    3    0    0  0.83629214361E+01 -0.55667702218E+01 -0.16850962413E+01  0.10186605666E+02  0.00000000000E+00 0. -1.
</event>
<event>
 7    1  0.7578565E-012  0.5930193E+02  0.7816164E-02  0.1266605E+00
        -11   -1    0    0    0    0  0.00000000000E+00  0.00000000000E+00  0.45593999997E+02  0.45594000000E+02  0.51100000000E-03 0. -1.
         11   -1    0    0    0    0 -0.00000000000E+00 -0.00000000000E+00 -0.45593999997E+02  0.45594000000E+02  0.51100000000E-03 0.  1.
    9900012    2    1    2    0    0  0.95342202124E+01 -0.47013418285E+01 -0.30061892615E+02  0.59301931606E+02  0.49999977345E+02 0.  0.
         12    1    1    2    0    0 -0.95342202124E+01  0.47013418285E+01  0.30061892615E+02  0.31886068394E+02  0.00000000000E+00 0. -1.
         11    1    3    3    0    0 -0.75758722284E+01  0.63068006929E+01 -0.65735295694E-01  0.98576821004E+01  0.51100000000E-03 0. -1.
        -11    1    3    3    0    0  0.17458739505E+02 -0.87514724216E+01 -0.37130611150E+02  0.41953285203E+02  0.51100000000E-03 0.  1.
        -12    1    3    3    0    0 -0.34864706461E+00 -0.22566700999E+01  0.71344538307E+01  0.74909643022E+01  0.00000000000E+00 0.  1.
</event>
<event>
 7    1  0.7578565E-012  0.5930195E+02  0.7816164E-02  0.1266605E+00
        -11   -1    0    0    0    0  0.00000000000E+00  0.00000000000E+00  0.45593999997E+02  0.45594000000E+02  0.51100000000E-03 0.  1.
         11   -1    0    0    0    0 -0.00000000000E+00 -0.00000000000E+00 -0.45593999997E+02  0.45594000000E+02  0.51100000000E-03 0. -1.
    9900012    2    1    2    0    0  0.16182226897E+01  0.98537529685E+01  0.30282096521E+02  0.59301945651E+02  0.50000002960E+02 0.  0.
         12    1    1    2    0    0 -0.16182226897E+01 -0.98537529685E+01 -0.30282096521E+02  0.31886054349E+02  0.00000000000E+00 0. -1.
         11    1    3    3    0    0  0.19355752339E+01  0.18327431518E+02  0.14086194597E+02  0.23196165115E+02  0.51100000000E-03 0. -1.
        -11    1    3    3    0    0 -0.20319772156E+00 -0.16448137192E+02  0.21091651521E+02  0.26747715240E+02  0.51100000000E-03 0.  1.
        -12    1    3    3    0    0 -0.11415482256E+00  0.79744586424E+01 -0.48957495969E+01  0.93580652957E+01  0.00000000000E+00 0.  1.
</event>
<event>
 7    1  0.7578565E-012  0.5930196E+02  0.7816164E-02  0.1266605E+00
        -11   -1    0    0    0    0  0.00000000000E+00  0.00000000000E+00  0.45593999997E+02  0.45594000000E+02  0.51100000000E-03 0.  1.
         11   -1    0    0    0    0 -0.00000000000E+00 -0.00000000000E+00 -0.45593999997E+02  0.45594000000E+02  0.51100000000E-03 0. -1.
    9900012    2    1    2    0    0  0.99953472357E+01 -0.29566247766E+02 -0.65306470230E+01  0.59301963497E+02  0.50000035508E+02 0.  0.
         12    1    1    2    0    0 -0.99953472357E+01  0.29566247766E+02  0.65306470230E+01  0.31886036503E+02  0.00000000000E+00 0. -1.
         11    1    3    3    0    0 -0.30335211635E+01 -0.13305071078E+01  0.24736727555E+01  0.41341936306E+01  0.51100000000E-03 0.  1.
        -11    1    3    3    0    0  0.18306755105E+01 -0.37941638362E+02 -0.12411584555E+02  0.39962066086E+02  0.51100000000E-03 0. -1.
        -12    1    3    3    0    0  0.11198192889E+02  0.97058977040E+01  0.34072647766E+01  0.15205703781E+02  0.00000000000E+00 0.  1.
</event>
<event>
 7    1  0.7578565E-012  0.5930196E+02  0.7816164E-02  0.1266605E+00
        -11   -1    0    0    0    0  0.00000000000E+00  0.00000000000E+00  0.45593999997E+02  0.45594000000E+02  0.51100000000E-03 0. -1.
         11   -1    0    0    0    0 -0.00000000000E+00 -0.00000000000E+00 -0.45593999997E+02  0.45594000000E+02  0.51100000000E-03 0.  1.
    9900012    2    1    2    0    0 -0.17714196926E+02  0.23347254544E+02 -0.12563151783E+02  0.59301955244E+02  0.50000020455E+02 0.  0.
         12    1    1    2    0    0  0.17714196926E+02 -0.23347254544E+02  0.12563151783E+02  0.31886044756E+02  0.00000000000E+00 0. -1.
         11    1    3    3    0    0 -0.83484648370E+01 -0.10982117527E+02  0.47071149415E+01  0.14576031759E+02  0.51100000000E-03 0. -1.
        -11    1    3    3    0    0 -0.10820537866E+02  0.34216751255E+02 -0.20394897899E+02  0.41277378390E+02  0.51100000000E-03 0.  1.
        -12    1    3    3    0    0  0.14548057764E+01  0.11262081576E+00  0.31246311745E+01  0.34485450949E+01  0.00000000000E+00 0.  1.
</event>
<event>
 7    1  0.7578565E-012  0.5930194E+02  0.7816164E-02  0.1266605E+00
        -11   -1    0    0    0    0  0.00000000000E+00  0.00000000000E+00  0.45593999997E+02  0.45594000000E+02  0.51100000000E-03 0. -1.
         11   -1    0    0    0    0 -0.00000000000E+00 -0.00000000000E+00 -0.45593999997E+02  0.45594000000E+02  0.51100000000E-03 0.  1.
    9900012    2    1    2    0    0 -0.17504621750E+02  0.22032859947E+01 -0.26560391041E+02  0.59301943110E+02  0.49999998326E+02 0.  0.
         12    1    1    2    0    0  0.17504621750E+02 -0.22032859947E+01  0.26560391041E+02  0.31886056890E+02  0.00000000000E+00 0. -1.
         11    1    3    3    0    0 -0.63327436375E+01 -0.81086168318E+01  0.12901340157E+02  0.16501451058E+02  0.51100000000E-03 0. -1.
        -11    1    3    3    0    0 -0.82325250994E+01  0.87308767679E+01 -0.22364846528E+02  0.25380879400E+02  0.51100000000E-03 0.  1.
         12    1    3    3    0    0 -0.29393530131E+01  0.15810260586E+01 -0.17096884669E+02  0.17419612651E+02  0.00000000000E+00 0. -1.
</event>
<event>
 7    1  0.7578565E-012  0.5930201E+02  0.7816164E-02  0.1266605E+00
        -11   -1    0    0    0    0  0.00000000000E+00  0.00000000000E+00  0.45593999997E+02  0.45594000000E+02  0.51100000000E-03 0. -1.
         11   -1    0    0    0    0 -0.00000000000E+00 -0.00000000000E+00 -0.45593999997E+02  0.45594000000E+02  0.51100000000E-03 0.  1.
    9900012    2    1    2    0    0 -0.11848973790E+02  0.24256090228E+02 -0.16969396211E+02  0.59302007766E+02  0.50000116242E+02 0.  0.
         12    1    1    2    0    0  0.11848973790E+02 -0.24256090228E+02  0.16969396211E+02  0.31885992234E+02  0.00000000000E+00 0. -1.
         11    1    3    3    0    0  0.22444278224E+00  0.28280453014E+02 -0.75963906839E+01  0.29283776207E+02  0.51100000000E-03 0. -1.
        -11    1    3    3    0    0 -0.18838608330E+02  0.23158967196E+01 -0.43472399815E+01  0.19471903788E+02  0.51100000000E-03 0.  1.
        -12    1    3    3    0    0  0.67651917575E+01 -0.63402595062E+01 -0.50257655454E+01  0.10546327770E+02  0.00000000000E+00 0.  1.
</event>
<event>
 7    1  0.7578565E-012  0.5930194E+02  0.7816164E-02  0.1266605E+00
        -11   -1    0    0    0    0  0.00000000000E+00  0.00000000000E+00  0.45593999997E+02  0.45594000000E+02  0.51100000000E-03 0. -1.
         11   -1    0    0    0    0 -0.00000000000E+00 -0.00000000000E+00 -0.45593999997E+02  0.45594000000E+02  0.51100000000E-03 0.  1.
    9900012    2    1    2    0    0 -0.89747101882E+01  0.20316810222E+02 -0.22877987341E+02  0.59301944970E+02  0.50000001719E+02 0.  0.
         12    1    1    2    0    0  0.89747101882E+01 -0.20316810222E+02  0.22877987341E+02  0.31886055030E+02  0.00000000000E+00 0. -1.
         11    1    3    3    0    0  0.12481399917E+02  0.12209568835E+02 -0.20550150495E+02  0.26966045328E+02  0.51100000000E-03 0.  1.
        -11    1    3    3    0    0 -0.65645850246E+01 -0.74250234683E+01 -0.41427859229E+01  0.10741853914E+02  0.51100000000E-03 0. -1.
         12    1    3    3    0    0 -0.14891525081E+02  0.15532264855E+02  0.18149490761E+01  0.21594045728E+02  0.00000000000E+00 0. -1.
</event>
<event>
 7    1  0.7578565E-012  0.5930194E+02  0.7816164E-02  0.1266605E+00
        -11   -1    0    0    0    0  0.00000000000E+00  0.00000000000E+00  0.45593999997E+02  0.45594000000E+02  0.51100000000E-03 0. -1.
         11   -1    0    0    0    0 -0.00000000000E+00 -0.00000000000E+00 -0.45593999997E+02  0.45594000000E+02  0.51100000000E-03 0.  1.
    9900012    2    1    2    0    0  0.18569822498E+02  0.11333497153E+02 -0.23311673205E+02  0.59301943910E+02  0.49999999786E+02 0.  0.
         12    1    1    2    0    0 -0.18569822498E+02 -0.11333497153E+02  0.23311673205E+02  0.31886056090E+02  0.00000000000E+00 0. -1.
         11    1    3    3    0    0  0.14301213128E+02  0.26170185922E+02 -0.45984557445E+01  0.30175306521E+02  0.51100000000E-03 0. -1.
        -11    1    3    3    0    0  0.10019742671E+02 -0.57229205102E+01 -0.99609669002E+01  0.15243619131E+02  0.51100000000E-03 0.  1.
         12    1    3    3    0    0 -0.57511333001E+01 -0.91137682588E+01 -0.87522505601E+01  0.13883018259E+02  0.00000000000E+00 0. -1.
</event>
<event>
 7    1  0.7578565E-012  0.5930195E+02  0.7816164E-02  0.1266605E+00
        -11   -1    0    0    0    0  0.00000000000E+00  0.00000000000E+00  0.45593999997E+02  0.45594000000E+02  0.51100000000E-03 0. -1.
         11   -1    0    0    0    0 -0.00000000000E+00 -0.00000000000E+00 -0.45593999997E+02  0.45594000000E+02  0.51100000000E-03 0.  1.
    9900012    2    1    2    0    0  0.14661804684E+02  0.18499455908E+02 -0.21436463572E+02  0.59301947313E+02  0.50000005991E+02 0.  0.
         12    1    1    2    0    0 -0.14661804684E+02 -0.18499455908E+02  0.21436463572E+02  0.31886052687E+02  0.00000000000E+00 0. -1.
         11    1    3    3    0    0 -0.12473188362E+02 -0.12747770665E+01  0.25086861140E+01  0.12786672388E+02  0.51100000000E-03 0. -1.
        -11    1    3    3    0    0  0.18296013456E+02  0.12976910262E+02 -0.26855934550E+02  0.34991220744E+02  0.51100000000E-03 0.  1.
         12    1    3    3    0    0  0.88389795890E+01  0.67973227131E+01  0.29107848642E+01  0.11524054181E+02  0.00000000000E+00 0. -1.
</event>
<event>
 7    1  0.7578565E-012  0.5930195E+02  0.7816164E-02  0.1266605E+00
        -11   -1    0    0    0    0  0.00000000000E+00  0.00000000000E+00  0.45593999997E+02  0.45594000000E+02  0.51100000000E-03 0.  1.
         11   -1    0    0    0    0 -0.00000000000E+00 -0.00000000000E+00 -0.45593999997E+02  0.45594000000E+02  0.51100000000E-03 0. -1.
    9900012    2    1    2    0    0  0.13180033172E+02  0.28192346550E+02  0.69425225027E+01  0.59301948236E+02  0.50000007674E+02 0.  0.
         12    1    1    2    0    0 -0.13180033172E+02 -0.28192346550E+02 -0.69425225027E+01  0.31886051764E+02  0.00000000000E+00 0. -1.
         11    1    3    3    0    0  0.25778703307E+02  0.94246029030E+01 -0.44420379193E+01  0.27804610862E+02  0.51100000000E-03 0. -1.
        -11    1    3    3    0    0 -0.13657524119E+02  0.20733636078E+02  0.13636480643E+02  0.28326052225E+02  0.51100000000E-03 0.  1.
        -12    1    3    3    0    0  0.10588539839E+01 -0.19658924311E+01 -0.22519202210E+01  0.31712851483E+01  0.00000000000E+00 0.  1.
</event>
<event>
 7    1  0.7578565E-012  0.5930192E+02  0.7816164E-02  0.1266605E+00
        -11   -1    0    0    0    0  0.00000000000E+00  0.00000000000E+00  0.45593999997E+02  0.45594000000E+02  0.51100000000E-03 0.  1.
         11   -1    0    0    0    0 -0.00000000000E+00 -0.00000000000E+00 -0.45593999997E+02  0.45594000000E+02  0.51100000000E-03 0. -1.
    9900012    2    1    2    0    0 -0.14533426816E+01  0.10207989622E+01  0.31836578410E+02  0.59301922155E+02  0.49999960109E+02 0.  0.
         12    1    1    2    0    0  0.14533426816E+01 -0.10207989622E+01 -0.31836578410E+02  0.31886077845E+02  0.00000000000E+00 0. -1.
         11    1    3    3    0    0 -0.22252881581E+02  0.40435608335E+01  0.90548707700E+01  0.24362508241E+02  0.51100000000E-03 0.  1.
        -11    1    3    3    0    0  0.19000094485E+02 -0.16529312576E+01  0.92075677789E+01  0.21178174540E+02  0.51100000000E-03 0. -1.
        -12    1    3    3    0    0  0.17994444145E+01 -0.13698306137E+01  0.13574139861E+02  0.13761239373E+02  0.00000000000E+00 0.  1.
</event>
<event>
 7    1  0.7578565E-012  0.5930187E+02  0.7816164E-02  0.1266605E+00
        -11   -1    0    0    0    0  0.00000000000E+00  0.00000000000E+00  0.45593999997E+02  0.45594000000E+02  0.51100000000E-03 0. -1.
         11   -1    0    0    0    0 -0.00000000000E+00 -0.00000000000E+00 -0.45593999997E+02  0.45594000000E+02  0.51100000000E-03 0.  1.
    9900012    2    1    2    0    0  0.31019865917E+02  0.64020951287E+01 -0.36750805035E+01  0.59301872605E+02  0.49999869741E+02 0.  0.
         12    1    1    2    0    0 -0.31019865917E+02 -0.64020951287E+01  0.36750805035E+01  0.31886127395E+02  0.00000000000E+00 0. -1.
         11    1    3    3    0    0  0.19869873556E+02  0.20791139434E+02  0.70804887652E+01  0.29617843870E+02  0.51100000000E-03 0. -1.
        -11    1    3    3    0    0 -0.17451536510E+01 -0.10839015111E+02  0.20487598240E+01  0.11168134442E+02  0.51100000000E-03 0.  1.
         12    1    3    3    0    0  0.12895146013E+02 -0.35500291942E+01 -0.12804329093E+02  0.18515894293E+02  0.00000000000E+00 0. -1.
</event>
<event>
 7    1  0.7578565E-012  0.5930193E+02  0.7816164E-02  0.1266605E+00
        -11   -1    0    0    0    0  0.00000000000E+00  0.00000000000E+00  0.45593999997E+02  0.45594000000E+02  0.51100000000E-03 0.  1.
         11   -1    0    0    0    0 -0.00000000000E+00 -0.00000000000E+00 -0.45593999997E+02  0.45594000000E+02  0.51100000000E-03 0. -1.
    9900012    2    1    2    0    0  0.16443771002E+02 -0.94112648044E+01  0.25646676895E+02  0.59301928656E+02  0.49999971966E+02 0.  0.
         12    1    1    2    0    0 -0.16443771002E+02  0.94112648044E+01 -0.25646676895E+02  0.31886071344E+02  0.00000000000E+00 0. -1.
         11    1    3    3    0    0 -0.21493826414E+01 -0.18467131182E+02  0.28718079437E+02  0.34210858900E+02  0.51100000000E-03 0. -1.
        -11    1    3    3    0    0  0.84388434870E+01  0.11024882645E+02  0.11236650252E+01  0.13929276366E+02  0.51100000000E-03 0.  1.
         12    1    3    3    0    0  0.10154310156E+02 -0.19690162672E+01 -0.41950675672E+01  0.11161793391E+02  0.00000000000E+00 0. -1.
</event>
<event>
 7    1  0.7578565E-012  0.5930196E+02  0.7816164E-02  0.1266605E+00
        -11   -1    0    0    0    0  0.00000000000E+00  0.00000000000E+00  0.45593999997E+02  0.45594000000E+02  0.51100000000E-03 0. -1.
         11   -1    0    0    0    0 -0.00000000000E+00 -0.00000000000E+00 -0.45593999997E+02  0.45594000000E+02  0.51100000000E-03 0.  1.
    9900012    2    1    2    0    0 -0.28707915245E+02  0.54014883835E+01 -0.12782765954E+02  0.59301959483E+02  0.50000028186E+02 0.  0.
         12    1    1    2    0    0  0.28707915245E+02 -0.54014883835E+01  0.12782765954E+02  0.31886040517E+02  0.00000000000E+00 0. -1.
         11    1    3    3    0    0 -0.23125737481E+02  0.62398357771E+01  0.12526848536E+02  0.27030671820E+02  0.51100000000E-03 0. -1.
        -11    1    3    3    0    0 -0.34079186430E+01  0.74481596775E+01 -0.21283909739E+02  0.22805565244E+02  0.51100000000E-03 0.  1.
         12    1    3    3    0    0 -0.21742591209E+01 -0.82865070711E+01 -0.40257047506E+01  0.94657224184E+01  0.00000000000E+00 0. -1.
</event>
<event>
 7    1  0.7578565E-012  0.5930198E+02  0.7816164E-02  0.1266605E+00
        -11   -1    0    0    0    0  0.00000000000E+00  0.00000000000E+00  0.45593999997E+02  0.45594000000E+02  0.51100000000E-03 0.  1.
         11   -1    0    0    0    0 -0.00000000000E+00 -0.00000000000E+00 -0.45593999997E+02  0.45594000000E+02  0.51100000000E-03 0. -1.
    9900012    2    1    2    0    0  0.13011926960E+02  0.27791844403E+02  0.86615080206E+01  0.59301975166E+02  0.50000056789E+02 0.  0.
         12    1    1    2    0    0 -0.13011926960E+02 -0.27791844403E+02 -0.86615080206E+01  0.31886024834E+02  0.00000000000E+00 0. -1.
         11    1    3    3    0    0  0.25936750748E+01  0.14750126945E+02 -0.28469786555E+01  0.15244628005E+02  0.51100000000E-03 0. -1.
        -11    1    3    3    0    0  0.69808788033E+01 -0.89505222663E+01  0.17633251231E+02  0.20970838490E+02  0.51100000000E-03 0.  1.
        -12    1    3    3    0    0  0.34373730817E+01  0.21992239724E+02 -0.61247645552E+01  0.23086508671E+02  0.00000000000E+00 0.  1.
</event>
<event>
 7    1  0.7578565E-012  0.5930194E+02  0.7816164E-02  0.1266605E+00
        -11   -1    0    0    0    0  0.00000000000E+00  0.00000000000E+00  0.45593999997E+02  0.45594000000E+02  0.51100000000E-03 0. -1.
         11   -1    0    0    0    0 -0.00000000000E+00 -0.00000000000E+00 -0.45593999997E+02  0.45594000000E+02  0.51100000000E-03 0.  1.
    9900012    2    1    2    0    0 -0.37630951143E+01  0.48078045984E+01 -0.31296083550E+02  0.59301941675E+02  0.49999995710E+02 0.  0.
         12    1    1    2    0    0  0.37630951143E+01 -0.48078045984E+01  0.31296083550E+02  0.31886058325E+02  0.00000000000E+00 0. -1.
         11    1    3    3    0    0 -0.13214024470E+02 -0.72229768340E+01 -0.53553591876E+01  0.15983169565E+02  0.51100000000E-03 0. -1.
        -11    1    3    3    0    0  0.11132354853E+02  0.16098581980E+02 -0.30969283214E+02  0.36635913656E+02  0.51100000000E-03 0.  1.
        -12    1    3    3    0    0 -0.16814254972E+01 -0.40678005478E+01  0.50285588513E+01  0.66828584543E+01  0.00000000000E+00 0.  1.
</event>
<event>
 7    1  0.7578565E-012  0.5930193E+02  0.7816164E-02  0.1266605E+00
        -11   -1    0    0    0    0  0.00000000000E+00  0.00000000000E+00  0.45593999997E+02  0.45594000000E+02  0.51100000000E-03 0.  1.
         11   -1    0    0    0    0 -0.00000000000E+00 -0.00000000000E+00 -0.45593999997E+02  0.45594000000E+02  0.51100000000E-03 0. -1.
    9900012    2    1    2    0    0 -0.27828327864E+02  0.49842665971E+01  0.14746612930E+02  0.59301931912E+02  0.49999977903E+02 0.  0.
         12    1    1    2    0    0  0.27828327864E+02 -0.49842665971E+01 -0.14746612930E+02  0.31886068088E+02  0.00000000000E+00 0. -1.
         11    1    3    3    0    0  0.63855110912E+01 -0.90224534430E+01 -0.69966422506E+01  0.13081759097E+02  0.51100000000E-03 0. -1.
        -11    1    3    3    0    0 -0.25439312997E+02  0.97475517350E+01  0.23888943612E+02  0.36233341520E+02  0.51100000000E-03 0.  1.
         12    1    3    3    0    0 -0.87745259588E+01  0.42591683051E+01 -0.21456884316E+01  0.99868312942E+01  0.00000000000E+00 0. -1.
</event>
<event>
 7    1  0.7578565E-012  0.5930195E+02  0.7816164E-02  0.1266605E+00
        -11   -1    0    0    0    0  0.00000000000E+00  0.00000000000E+00  0.45593999997E+02  0.45594000000E+02  0.51100000000E-03 0. -1.
         11   -1    0    0    0    0 -0.00000000000E+00 -0.00000000000E+00 -0.45593999997E+02  0.45594000000E+02  0.51100000000E-03 0.  1.
    9900012    2    1    2    0    0 -0.27289135605E+02  0.13293156105E+02 -0.97629570331E+01  0.59301948954E+02  0.50000008983E+02 0.  0.
         12    1    1    2    0    0  0.27289135605E+02 -0.13293156105E+02  0.97629570331E+01  0.31886051046E+02  0.00000000000E+00 0. -1.
         11    1    3    3    0    0  0.91661574989E+01  0.13149609652E+02  0.77567019420E+01  0.17807220518E+02  0.51100000000E-03 0. -1.
        -11    1    3    3    0    0 -0.25884243745E+02  0.43308531683E+01 -0.12116560897E+02  0.28906079147E+02  0.51100000000E-03 0.  1.
         12    1    3    3    0    0 -0.10571049359E+02 -0.41873067149E+01 -0.54030980785E+01  0.12588649289E+02  0.00000000000E+00 0. -1.
</event>
<event>
 7    1  0.7578565E-012  0.5930197E+02  0.7816164E-02  0.1266605E+00
        -11   -1    0    0    0    0  0.00000000000E+00  0.00000000000E+00  0.45593999997E+02  0.45594000000E+02  0.51100000000E-03 0.  1.
         11   -1    0    0    0    0 -0.00000000000E+00 -0.00000000000E+00 -0.45593999997E+02  0.45594000000E+02  0.51100000000E-03 0. -1.
    9900012    2    1    2    0    0  0.22929344340E+02  0.21847369032E+02 -0.36954711378E+01  0.59301970576E+02  0.50000048418E+02 0.  0.
         12    1    1    2    0    0 -0.22929344340E+02 -0.21847369032E+02  0.36954711378E+01  0.31886029424E+02  0.00000000000E+00 0. -1.
         11    1    3    3    0    0  0.20039449123E+02  0.17842048100E+01  0.14169542616E+02  0.24607698921E+02  0.51100000000E-03 0. -1.
        -11    1    3    3    0    0  0.12033588352E+02  0.12745857986E+02 -0.13759949150E+02  0.22284531525E+02  0.51100000000E-03 0.  1.
         12    1    3    3    0    0 -0.91436931356E+01  0.73173062356E+01 -0.41050646040E+01  0.12409740131E+02  0.00000000000E+00 0. -1.
</event>
<event>
 7    1  0.7578565E-012  0.5930195E+02  0.7816164E-02  0.1266605E+00
        -11   -1    0    0    0    0  0.00000000000E+00  0.00000000000E+00  0.45593999997E+02  0.45594000000E+02  0.51100000000E-03 0.  1.
         11   -1    0    0    0    0 -0.00000000000E+00 -0.00000000000E+00 -0.45593999997E+02  0.45594000000E+02  0.51100000000E-03 0. -1.
    9900012    2    1    2    0    0  0.11137098984E+02 -0.12590731662E+02  0.27095358364E+02  0.59301953798E+02  0.50000017818E+02 0.  0.
         12    1    1    2    0    0 -0.11137098984E+02  0.12590731662E+02 -0.27095358364E+02  0.31886046202E+02  0.00000000000E+00 0. -1.
         11    1    3    3    0    0  0.11454892603E+02  0.15556389512E+01 -0.11335444662E+02  0.16190333012E+02  0.51100000000E-03 0. -1.
        -11    1    3    3    0    0 -0.10245336940E+01 -0.77655634945E+01  0.55248673688E+01  0.95852910953E+01  0.51100000000E-03 0.  1.
         12    1    3    3    0    0  0.70674007474E+00 -0.63808071191E+01  0.32905935657E+02  0.33526329690E+02  0.00000000000E+00 0. -1.
</event>
<event>
 7    1  0.7578565E-012  0.5930194E+02  0.7816164E-02  0.1266605E+00
        -11   -1    0    0    0    0  0.00000000000E+00  0.00000000000E+00  0.45593999997E+02  0.45594000000E+02  0.51100000000E-03 0. -1.
         11   -1    0    0    0    0 -0.00000000000E+00 -0.00000000000E+00 -0.45593999997E+02  0.45594000000E+02  0.51100000000E-03 0.  1.
    9900012    2    1    2    0    0  0.52023077009E+01 -0.26941373546E+02 -0.16242504254E+02  0.59301944139E+02  0.50000000202E+02 0.  0.
         12    1    1    2    0    0 -0.52023077009E+01  0.26941373546E+02  0.16242504254E+02  0.31886055861E+02  0.00000000000E+00 0. -1.
         11    1    3    3    0    0  0.12869017331E+02 -0.12726781567E+02 -0.11350927937E+01  0.18134801130E+02  0.51100000000E-03 0. -1.
        -11    1    3    3    0    0 -0.17503379886E+02  0.33768027723E+01 -0.44727618135E+01  0.18378702427E+02  0.51100000000E-03 0.  1.
        -12    1    3    3    0    0  0.98366702557E+01 -0.17591394751E+02 -0.10634649646E+02  0.22788440581E+02  0.00000000000E+00 0.  1.
</event>
<event>
 7    1  0.7578565E-012  0.5930192E+02  0.7816164E-02  0.1266605E+00
        -11   -1    0    0    0    0  0.00000000000E+00  0.00000000000E+00  0.45593999997E+02  0.45594000000E+02  0.51100000000E-03 0.  1.
         11   -1    0    0    0    0 -0.00000000000E+00 -0.00000000000E+00 -0.45593999997E+02  0.45594000000E+02  0.51100000000E-03 0. -1.
    9900012    2    1    2    0    0 -0.11321943427E+01 -0.22398470889E+02  0.22666026514E+02  0.59301919649E+02  0.49999955540E+02 0.  0.
         12    1    1    2    0    0  0.11321943427E+01  0.22398470889E+02 -0.22666026514E+02  0.31886080351E+02  0.00000000000E+00 0. -1.
         11    1    3    3    0    0  0.10166435672E+02 -0.20442889435E+02  0.24185902451E+02  0.33259976253E+02  0.51100000000E-03 0.  1.
        -11    1    3    3    0    0 -0.12346232562E+02 -0.95687263006E+01  0.45273681414E+01  0.16263057647E+02  0.51100000000E-03 0. -1.
        -12    1    3    3    0    0  0.10476025468E+01  0.76131448467E+01 -0.60472440782E+01  0.97788857491E+01  0.00000000000E+00 0.  1.
</event>
<event>
 7    1  0.7578565E-012  0.5930195E+02  0.7816164E-02  0.1266605E+00
        -11   -1    0    0    0    0  0.00000000000E+00  0.00000000000E+00  0.45593999997E+02  0.45594000000E+02  0.51100000000E-03 0.  1.
         11   -1    0    0    0    0 -0.00000000000E+00 -0.00000000000E+00 -0.45593999997E+02  0.45594000000E+02  0.51100000000E-03 0. -1.
    9900012    2    1    2    0    0  0.75553026335E+01 -0.18764275140E+02  0.24648311951E+02  0.59301954440E+02  0.50000018989E+02 0.  0.
         12    1    1    2    0    0 -0.75553026335E+01  0.18764275140E+02 -0.24648311951E+02  0.31886045560E+02  0.00000000000E+00 0. -1.
         11    1    3    3    0    0  0.50787507038E+01  0.87224303511E+01 -0.90318753285E+01  0.13544344656E+02  0.51100000000E-03 0. -1.
        -11    1    3    3    0    0 -0.15490055279E+01 -0.15372256297E+02  0.87669816331E+01  0.17764167557E+02  0.51100000000E-03 0.  1.
         12    1    3    3    0    0  0.40255574576E+01 -0.12114449194E+02  0.24913205647E+02  0.27993442227E+02  0.00000000000E+00 0. -1.
</event>
<event>
 7    1  0.7578565E-012  0.5930194E+02  0.7816164E-02  0.1266605E+00
        -11   -1    0    0    0    0  0.00000000000E+00  0.00000000000E+00  0.45593999997E+02  0.45594000000E+02  0.51100000000E-03 0.  1.
         11   -1    0    0    0    0 -0.00000000000E+00 -0.00000000000E+00 -0.45593999997E+02  0.45594000000E+02  0.51100000000E-03 0. -1.
    9900012    2    1    2    0    0 -0.27294899918E+02  0.97800547215E+01  0.13268740848E+02  0.59301944810E+02  0.50000001427E+02 0.  0.
         12    1    1    2    0    0  0.27294899918E+02 -0.97800547215E+01 -0.13268740848E+02  0.31886055190E+02  0.00000000000E+00 0. -1.
         11    1    3    3    0    0 -0.12755483442E+02 -0.16715129291E+02  0.44405095112E+01  0.21489905305E+02  0.51100000000E-03 0. -1.
        -11    1    3    3    0    0 -0.18446339776E+02  0.13357332279E+02  0.32140431524E+01  0.23000344571E+02  0.51100000000E-03 0.  1.
         12    1    3    3    0    0  0.39069233005E+01  0.13137851733E+02  0.56141881846E+01  0.14811694933E+02  0.00000000000E+00 0. -1.
</event>
<event>
 7    1  0.7578565E-012  0.5930195E+02  0.7816164E-02  0.1266605E+00
        -11   -1    0    0    0    0  0.00000000000E+00  0.00000000000E+00  0.45593999997E+02  0.45594000000E+02  0.51100000000E-03 0. -1.
         11   -1    0    0    0    0 -0.00000000000E+00 -0.00000000000E+00 -0.45593999997E+02  0.45594000000E+02  0.51100000000E-03 0.  1.
    9900012    2    1    2    0    0 -0.16057331173E+02 -0.27396135722E+02 -0.28869235612E+01  0.59301945610E+02  0.50000002885E+02 0.  0.
         12    1    1    2    0    0  0.16057331173E+02  0.27396135722E+02  0.28869235612E+01  0.31886054390E+02  0.00000000000E+00 0. -1.
         11    1    3    3    0    0  0.24409512828E+01  0.56775590646E+01 -0.47537193794E+01  0.77968434828E+01  0.51100000000E-03 0. -1.
        -11    1    3    3    0    0 -0.10398018567E+02 -0.29450944160E+02  0.15788082334E+02  0.34996291891E+02  0.51100000000E-03 0.  1.
        -12    1    3    3    0    0 -0.81002638889E+01 -0.36227506265E+01 -0.13921286515E+02  0.16508810236E+02  0.00000000000E+00 0.  1.
</event>
<event>
 7    1  0.7578565E-012  0.5930198E+02  0.7816164E-02  0.1266605E+00
        -11   -1    0    0    0    0  0.00000000000E+00  0.00000000000E+00  0.45593999997E+02  0.45594000000E+02  0.51100000000E-03 0.  1.
         11   -1    0    0    0    0 -0.00000000000E+00 -0.00000000000E+00 -0.45593999997E+02  0.45594000000E+02  0.51100000000E-03 0. -1.
    9900012    2    1    2    0    0  0.67536268523E+01 -0.28731249534E+02  0.12067403167E+02  0.59301978068E+02  0.50000062082E+02 0.  0.
         12    1    1    2    0    0 -0.67536268523E+01  0.28731249534E+02 -0.12067403167E+02  0.31886021932E+02  0.00000000000E+00 0. -1.
         11    1    3    3    0    0  0.36429999814E+01 -0.17138626045E+02 -0.11958731189E+02  0.21213561782E+02  0.51100000000E-03 0. -1.
        -11    1    3    3    0    0  0.70794970034E+01  0.66412343265E+01  0.13611216794E+02  0.16717969197E+02  0.51100000000E-03 0.  1.
        -12    1    3    3    0    0 -0.39688701324E+01 -0.18233857815E+02  0.10414917562E+02  0.21370447089E+02  0.00000000000E+00 0.  1.
</event>
<event>
 7    1  0.7578565E-012  0.5930197E+02  0.7816164E-02  0.1266605E+00
        -11   -1    0    0    0    0  0.00000000000E+00  0.00000000000E+00  0.45593999997E+02  0.45594000000E+02  0.51100000000E-03 0. -1.
         11   -1    0    0    0    0 -0.00000000000E+00 -0.00000000000E+00 -0.45593999997E+02  0.45594000000E+02  0.51100000000E-03 0.  1.
    9900012    2    1    2    0    0 -0.10213394196E+02  0.11630728009E+02 -0.27877082116E+02  0.59301969167E+02  0.50000045847E+02 0.  0.
         12    1    1    2    0    0  0.10213394196E+02 -0.11630728009E+02  0.27877082116E+02  0.31886030833E+02  0.00000000000E+00 0. -1.
         11    1    3    3    0    0  0.11324222158E+01 -0.20942938773E+01  0.97335961940E+01  0.10020545995E+02  0.51100000000E-03 0. -1.
        -11    1    3    3    0    0 -0.16071025648E+02  0.18865849991E+02 -0.27849726749E+02  0.37280094441E+02  0.51100000000E-03 0.  1.
        -12    1    3    3    0    0  0.47252092360E+01 -0.51408281047E+01 -0.97609515603E+01  0.12001328730E+02  0.00000000000E+00 0.  1.
</event>
<event>
 7    1  0.7578565E-012  0.5930197E+02  0.7816164E-02  0.1266605E+00
        -11   -1    0    0    0    0  0.00000000000E+00  0.00000000000E+00  0.45593999997E+02  0.45594000000E+02  0.51100000000E-03 0.  1.
         11   -1    0    0    0    0 -0.00000000000E+00 -0.00000000000E+00 -0.45593999997E+02  0.45594000000E+02  0.51100000000E-03 0. -1.
    9900012    2    1    2    0    0  0.29884560032E+02 -0.45813810782E+01  0.10131292057E+02  0.59301967640E+02  0.50000043064E+02 0.  0.
         12    1    1    2    0    0 -0.29884560032E+02  0.45813810782E+01 -0.10131292057E+02  0.31886032360E+02  0.00000000000E+00 0. -1.
         11    1    3    3    0    0  0.35687157681E+02 -0.76265598541E+01  0.40882279116E+01  0.36721264225E+02  0.51100000000E-03 0. -1.
        -11    1    3    3    0    0 -0.13419776473E+02  0.85673733943E-01  0.50921044712E+01  0.14353650016E+02  0.51100000000E-03 0.  1.
        -12    1    3    3    0    0  0.76171788240E+01  0.29595050419E+01  0.95095967401E+00  0.82270533991E+01  0.00000000000E+00 0.  1.
</event>
<event>
 7    1  0.7578565E-012  0.5930187E+02  0.7816164E-02  0.1266605E+00
        -11   -1    0    0    0    0  0.00000000000E+00  0.00000000000E+00  0.45593999997E+02  0.45594000000E+02  0.51100000000E-03 0. -1.
         11   -1    0    0    0    0 -0.00000000000E+00 -0.00000000000E+00 -0.45593999997E+02  0.45594000000E+02  0.51100000000E-03 0.  1.
    9900012    2    1    2    0    0 -0.39110274204E+00  0.22414010204E+02 -0.22675629475E+02  0.59301874697E+02  0.49999873557E+02 0.  0.
         12    1    1    2    0    0  0.39110274204E+00 -0.22414010204E+02  0.22675629475E+02  0.31886125303E+02  0.00000000000E+00 0. -1.
         11    1    3    3    0    0 -0.67743797994E+01 -0.16357685497E+01  0.13475850423E+02  0.15171239412E+02  0.51100000000E-03 0. -1.
        -11    1    3    3    0    0  0.33089659297E+01  0.57230795272E+01 -0.77043737758E+01  0.10151860437E+02  0.51100000000E-03 0.  1.
         12    1    3    3    0    0  0.30743111276E+01  0.18326699226E+02 -0.28447106122E+02  0.33978774848E+02  0.00000000000E+00 0. -1.
</event>
<event>
 7    1  0.7578565E-012  0.5930194E+02  0.7816164E-02  0.1266605E+00
        -11   -1    0    0    0    0  0.00000000000E+00  0.00000000000E+00  0.45593999997E+02  0.45594000000E+02  0.51100000000E-03 0.  1.
         11   -1    0    0    0    0 -0.00000000000E+00 -0.00000000000E+00 -0.45593999997E+02  0.45594000000E+02  0.51100000000E-03 0. -1.
    9900012    2    1    2    0    0  0.15507785175E+02  0.13181145976E+02  0.24545611428E+02  0.59301936420E+02  0.49999986125E+02 0.  0.
         12    1    1    2    0    0 -0.15507785175E+02 -0.13181145976E+02 -0.24545611428E+02  0.31886063580E+02  0.00000000000E+00 0. -1.
         11    1    3    3    0    0  0.27177893975E+02  0.63265327068E+01  0.18233600217E+02  0.33333573378E+02  0.51100000000E-03 0. -1.
        -11    1    3    3    0    0 -0.50533015740E+01  0.12121170833E+01  0.13640066410E+02  0.14596454931E+02  0.51100000000E-03 0.  1.
         12    1    3    3    0    0 -0.66168072255E+01  0.56424961858E+01 -0.73280551997E+01  0.11371908111E+02  0.00000000000E+00 0. -1.
</event>
<event>
 7    1  0.7578565E-012  0.5930194E+02  0.7816164E-02  0.1266605E+00
        -11   -1    0    0    0    0  0.00000000000E+00  0.00000000000E+00  0.45593999997E+02  0.45594000000E+02  0.51100000000E-03 0.  1.
         11   -1    0    0    0    0 -0.00000000000E+00 -0.00000000000E+00 -0.45593999997E+02  0.45594000000E+02  0.51100000000E-03 0. -1.
    9900012    2    1    2    0    0  0.13732833804E+02 -0.13579329877E+01  0.28745190806E+02  0.59301941906E+02  0.49999996131E+02 0.  0.
         12    1    1    2    0    0 -0.13732833804E+02  0.13579329877E+01 -0.28745190806E+02  0.31886058094E+02  0.00000000000E+00 0. -1.
         11    1    3    3    0    0  0.26834470309E+01 -0.14570986477E+02  0.12602078206E+02  0.19450627503E+02  0.51100000000E-03 0. -1.
        -11    1    3    3    0    0 -0.11323469814E+01  0.18943659073E+02  0.18126845580E+02  0.26243607978E+02  0.51100000000E-03 0.  1.
         12    1    3    3    0    0  0.12181733755E+02 -0.57306055835E+01 -0.19837329807E+01  0.13607706426E+02  0.00000000000E+00 0. -1.
</event>
<event>
 7    1  0.7578565E-012  0.5930194E+02  0.7816164E-02  0.1266605E+00
        -11   -1    0    0    0    0  0.00000000000E+00  0.00000000000E+00  0.45593999997E+02  0.45594000000E+02  0.51100000000E-03 0.  1.
         11   -1    0    0    0    0 -0.00000000000E+00 -0.00000000000E+00 -0.45593999997E+02  0.45594000000E+02  0.51100000000E-03 0. -1.
    9900012    2    1    2    0    0 -0.27233102167E+01  0.22235523182E+02 -0.22691097189E+02  0.59301940329E+02  0.49999993254E+02 0.  0.
         12    1    1    2    0    0  0.27233102167E+01 -0.22235523182E+02  0.22691097189E+02  0.31886059671E+02  0.00000000000E+00 0. -1.
         11    1    3    3    0    0 -0.32041720782E+01  0.26023183638E+02 -0.29974498791E+02  0.39823904673E+02  0.51100000000E-03 0. -1.
        -11    1    3    3    0    0 -0.69634637971E+01  0.25553519063E+01  0.61441541068E+01  0.96317330407E+01  0.51100000000E-03 0.  1.
         12    1    3    3    0    0  0.74443256585E+01 -0.63430123622E+01  0.11392474950E+01  0.98463026153E+01  0.00000000000E+00 0. -1.
</event>
<event>
 7    1  0.7578565E-012  0.5930193E+02  0.7816164E-02  0.1266605E+00
        -11   -1    0    0    0    0  0.00000000000E+00  0.00000000000E+00  0.45593999997E+02  0.45594000000E+02  0.51100000000E-03 0.  1.
         11   -1    0    0    0    0 -0.00000000000E+00 -0.00000000000E+00 -0.45593999997E+02  0.45594000000E+02  0.51100000000E-03 0. -1.
    9900012    2    1    2    0    0 -0.43094729818E+01  0.87023983802E+01  0.30371339131E+02  0.59301928815E+02  0.49999972256E+02 0.  0.
         12    1    1    2    0    0  0.43094729818E+01 -0.87023983802E+01 -0.30371339131E+02  0.31886071185E+02  0.00000000000E+00 0. -1.
         11    1    3    3    0    0 -0.14792146378E+01  0.11520019588E+02  0.40939290238E+02  0.42554957558E+02  0.51100000000E-03 0.  1.
        -11    1    3    3    0    0 -0.17953029609E+01  0.11542221525E+01 -0.12159008323E+02  0.12344910901E+02  0.51100000000E-03 0. -1.
        -12    1    3    3    0    0 -0.10349553830E+01 -0.39718433600E+01  0.15910572158E+01  0.44020603568E+01  0.00000000000E+00 0.  1.
</event>
<event>
 7    1  0.7578565E-012  0.5930193E+02  0.7816164E-02  0.1266605E+00
        -11   -1    0    0    0    0  0.00000000000E+00  0.00000000000E+00  0.45593999997E+02  0.45594000000E+02  0.51100000000E-03 0. -1.
         11   -1    0    0    0    0 -0.00000000000E+00 -0.00000000000E+00 -0.45593999997E+02  0.45594000000E+02  0.51100000000E-03 0.  1.
    9900012    2    1    2    0    0  0.61693110974E+01  0.94239244825E+01 -0.29830365270E+02  0.59301930249E+02  0.49999974870E+02 0.  0.
         12    1    1    2    0    0 -0.61693110974E+01 -0.94239244825E+01  0.29830365270E+02  0.31886069751E+02  0.00000000000E+00 0. -1.
         11    1    3    3    0    0  0.29299774131E+01  0.10420264617E+02 -0.36869517038E+01  0.11435046806E+02  0.51100000000E-03 0. -1.
        -11    1    3    3    0    0 -0.68321841975E+01 -0.11168042286E+02  0.46626191668E+01  0.13897623076E+02  0.51100000000E-03 0.  1.
        -12    1    3    3    0    0  0.10071517882E+02  0.10171702151E+02 -0.30806032733E+02  0.33969260366E+02  0.00000000000E+00 0.  1.
</event>
<event>
 7    1  0.7578565E-012  0.5930194E+02  0.7816164E-02  0.1266605E+00
        -11   -1    0    0    0    0  0.00000000000E+00  0.00000000000E+00  0.45593999997E+02  0.45594000000E+02  0.51100000000E-03 0.  1.
         11   -1    0    0    0    0 -0.00000000000E+00 -0.00000000000E+00 -0.45593999997E+02  0.45594000000E+02  0.51100000000E-03 0. -1.
    9900012    2    1    2    0    0 -0.27400706214E+02 -0.46964239355E+01  0.15616196837E+02  0.59301941880E+02  0.49999996083E+02 0.  0.
         12    1    1    2    0    0  0.27400706214E+02  0.46964239355E+01 -0.15616196837E+02  0.31886058120E+02  0.00000000000E+00 0. -1.
         11    1    3    3    0    0 -0.20896948836E+02  0.12456425703E+02  0.58515967202E+00  0.24334901357E+02  0.51100000000E-03 0. -1.
        -11    1    3    3    0    0 -0.14857520150E+02 -0.16118748968E+02  0.14976901905E+02  0.26549342068E+02  0.51100000000E-03 0.  1.
         12    1    3    3    0    0  0.83537627724E+01 -0.10341006709E+01  0.54135260006E-01  0.84176984551E+01  0.00000000000E+00 0. -1.
</event>
<event>
 7    1  0.7578565E-012  0.5930196E+02  0.7816164E-02  0.1266605E+00
        -11   -1    0    0    0    0  0.00000000000E+00  0.00000000000E+00  0.45593999997E+02  0.45594000000E+02  0.51100000000E-03 0. -1.
         11   -1    0    0    0    0 -0.00000000000E+00 -0.00000000000E+00 -0.45593999997E+02  0.45594000000E+02  0.51100000000E-03 0.  1.
    9900012    2    1    2    0    0 -0.17861830037E+02 -0.25954366089E+02 -0.49036398040E+01  0.59301956428E+02  0.50000022614E+02 0.  0.
         12    1    1    2    0    0  0.17861830037E+02  0.25954366089E+02  0.49036398040E+01  0.31886043572E+02  0.00000000000E+00 0. -1.
         11    1    3    3    0    0 -0.19472297619E+02 -0.22355850451E+02  0.13768604516E+02  0.32688360230E+02  0.51100000000E-03 0. -1.
        -11    1    3    3    0    0 -0.81125077963E+01 -0.11969683508E+01 -0.12162374432E+02  0.14668635522E+02  0.51100000000E-03 0.  1.
         12    1    3    3    0    0  0.97229753786E+01 -0.24015472878E+01 -0.65098698878E+01  0.11944960676E+02  0.00000000000E+00 0. -1.
</event>
<event>
 7    1  0.7578565E-012  0.5930195E+02  0.7816164E-02  0.1266605E+00
        -11   -1    0    0    0    0  0.00000000000E+00  0.00000000000E+00  0.45593999997E+02  0.45594000000E+02  0.51100000000E-03 0.  1.
         11   -1    0    0    0    0 -0.00000000000E+00 -0.00000000000E+00 -0.45593999997E+02  0.45594000000E+02  0.51100000000E-03 0. -1.
    9900012    2    1    2    0    0 -0.92242515339E+00 -0.25964062762E+00  0.31871647777E+02  0.59301949548E+02  0.50000010068E+02 0.  0.
         12    1    1    2    0    0  0.92242515339E+00  0.25964062762E+00 -0.31871647777E+02  0.31886050452E+02  0.00000000000E+00 0. -1.
         11    1    3    3    0    0  0.80871811314E+01  0.15872890995E+02  0.13252423221E+02  0.22203105384E+02  0.51100000000E-03 0. -1.
        -11    1    3    3    0    0  0.55668961723E+00 -0.18477228898E+02  0.31380901428E+01  0.18750080029E+02  0.51100000000E-03 0.  1.
        -12    1    3    3    0    0 -0.95662959020E+01  0.23446972760E+01  0.15481134412E+02  0.18348764135E+02  0.00000000000E+00 0.  1.
</event>
<event>
 7    1  0.7578565E-012  0.5930196E+02  0.7816164E-02  0.1266605E+00
        -11   -1    0    0    0    0  0.00000000000E+00  0.00000000000E+00  0.45593999997E+02  0.45594000000E+02  0.51100000000E-03 0. -1.
         11   -1    0    0    0    0 -0.00000000000E+00 -0.00000000000E+00 -0.45593999997E+02  0.45594000000E+02  0.51100000000E-03 0.  1.
    9900012    2    1    2    0    0  0.32736828126E+01 -0.30714599100E+02  0.79130280943E+01  0.59301959000E+02  0.50000027307E+02 0.  0.
         12    1    1    2    0    0 -0.32736828126E+01  0.30714599100E+02 -0.79130280943E+01  0.31886041000E+02  0.00000000000E+00 0. -1.
         11    1    3    3    0    0 -0.13832556037E+02 -0.25763352623E+02  0.16621737062E+02  0.33635875016E+02  0.51100000000E-03 0. -1.
        -11    1    3    3    0    0  0.72269497294E+01 -0.76399426388E+01 -0.10952979677E+02  0.15184376509E+02  0.51100000000E-03 0.  1.
         12    1    3    3    0    0  0.98792891201E+01  0.26886961620E+01  0.22442707093E+01  0.10481707475E+02  0.00000000000E+00 0. -1.
</event>
<event>
 7    1  0.7578565E-012  0.5930198E+02  0.7816164E-02  0.1266605E+00
        -11   -1    0    0    0    0  0.00000000000E+00  0.00000000000E+00  0.45593999997E+02  0.45594000000E+02  0.51100000000E-03 0.  1.
         11   -1    0    0    0    0 -0.00000000000E+00 -0.00000000000E+00 -0.45593999997E+02  0.45594000000E+02  0.51100000000E-03 0. -1.
    9900012    2    1    2    0    0 -0.27303348337E+02 -0.13715863458E+02  0.91170519770E+01  0.59301978336E+02  0.50000062571E+02 0.  0.
         12    1    1    2    0    0  0.27303348337E+02  0.13715863458E+02 -0.91170519770E+01  0.31886021664E+02  0.00000000000E+00 0. -1.
         11    1    3    3    0    0  0.15271147355E+01  0.92681784217E+01  0.96517802926E+01  0.13468038972E+02  0.51100000000E-03 0. -1.
        -11    1    3    3    0    0 -0.16155661197E+02 -0.14215864401E+02  0.13153180854E+02  0.25221069688E+02  0.51100000000E-03 0.  1.
         12    1    3    3    0    0 -0.12674801876E+02 -0.87681774785E+01 -0.13687909169E+02  0.20612869677E+02  0.00000000000E+00 0. -1.
</event>
<event>
 7    1  0.7578565E-012  0.5930195E+02  0.7816164E-02  0.1266605E+00
        -11   -1    0    0    0    0  0.00000000000E+00  0.00000000000E+00  0.45593999997E+02  0.45594000000E+02  0.51100000000E-03 0.  1.
         11   -1    0    0    0    0 -0.00000000000E+00 -0.00000000000E+00 -0.45593999997E+02  0.45594000000E+02  0.51100000000E-03 0. -1.
    9900012    2    1    2    0    0  0.18469564604E+02 -0.25112250960E+02 -0.67059855344E+01  0.59301949650E+02  0.50000010254E+02 0.  0.
         12    1    1    2    0    0 -0.18469564604E+02  0.25112250960E+02  0.67059855344E+01  0.31886050350E+02  0.00000000000E+00 0. -1.
         11    1    3    3    0    0  0.79819606423E+01 -0.15027190060E+02 -0.25833201793E+02  0.30933516643E+02  0.51100000000E-03 0. -1.
        -11    1    3    3    0    0  0.62868538547E+01 -0.10223580750E+02  0.20661240861E+02  0.23894204505E+02  0.51100000000E-03 0.  1.
        -12    1    3    3    0    0  0.42007501069E+01  0.13851985036E+00 -0.15340246023E+01  0.44742285022E+01  0.00000000000E+00 0.  1.
</event>
<event>
 7    1  0.7578565E-012  0.5930194E+02  0.7816164E-02  0.1266605E+00
        -11   -1    0    0    0    0  0.00000000000E+00  0.00000000000E+00  0.45593999997E+02  0.45594000000E+02  0.51100000000E-03 0. -1.
         11   -1    0    0    0    0 -0.00000000000E+00 -0.00000000000E+00 -0.45593999997E+02  0.45594000000E+02  0.51100000000E-03 0.  1.
    9900012    2    1    2    0    0  0.48995686568E+01 -0.31468328383E+02 -0.15681641658E+01  0.59301943438E+02  0.49999998924E+02 0.  0.
         12    1    1    2    0    0 -0.48995686568E+01  0.31468328383E+02  0.15681641658E+01  0.31886056562E+02  0.00000000000E+00 0. -1.
         11    1    3    3    0    0  0.14200464016E+01 -0.94490405841E+01  0.20676376672E+02  0.22777476864E+02  0.51100000000E-03 0. -1.
        -11    1    3    3    0    0  0.10226982949E+02 -0.13269770865E+02 -0.18254273062E+02  0.24776934522E+02  0.51100000000E-03 0.  1.
        -12    1    3    3    0    0 -0.67474606935E+01 -0.87495169341E+01 -0.39902677755E+01  0.11747532052E+02  0.00000000000E+00 0.  1.
</event>
<event>
 7    1  0.7578565E-012  0.5930193E+02  0.7816164E-02  0.1266605E+00
        -11   -1    0    0    0    0  0.00000000000E+00  0.00000000000E+00  0.45593999997E+02  0.45594000000E+02  0.51100000000E-03 0. -1.
         11   -1    0    0    0    0 -0.00000000000E+00 -0.00000000000E+00 -0.45593999997E+02  0.45594000000E+02  0.51100000000E-03 0.  1.
    9900012    2    1    2    0    0 -0.41699985983E+01 -0.28271475813E+02 -0.14144128765E+02  0.59301927625E+02  0.49999970086E+02 0.  0.
         12    1    1    2    0    0  0.41699985983E+01  0.28271475813E+02  0.14144128765E+02  0.31886072375E+02  0.00000000000E+00 0. -1.
         11    1    3    3    0    0 -0.15109205971E+02 -0.68181990139E+01 -0.24776557652E+02  0.29810296077E+02  0.51100000000E-03 0. -1.
        -11    1    3    3    0    0  0.65561284261E+01 -0.16464192563E+02  0.94529155674E+00  0.17746718939E+02  0.51100000000E-03 0.  1.
         12    1    3    3    0    0  0.43830789466E+01 -0.49890842362E+01  0.96871373298E+01  0.11744912610E+02  0.00000000000E+00 0. -1.
</event>
<event>
 7    1  0.7578565E-012  0.5930193E+02  0.7816164E-02  0.1266605E+00
        -11   -1    0    0    0    0  0.00000000000E+00  0.00000000000E+00  0.45593999997E+02  0.45594000000E+02  0.51100000000E-03 0. -1.
         11   -1    0    0    0    0 -0.00000000000E+00 -0.00000000000E+00 -0.45593999997E+02  0.45594000000E+02  0.51100000000E-03 0.  1.
    9900012    2    1    2    0    0 -0.31170984308E+02  0.65447319339E+01 -0.15024546105E+01  0.59301934883E+02  0.49999983322E+02 0.  0.
         12    1    1    2    0    0  0.31170984308E+02 -0.65447319339E+01  0.15024546105E+01  0.31886065117E+02  0.00000000000E+00 0. -1.
         11    1    3    3    0    0 -0.24245019168E+02 -0.58839261733E+01  0.92827383682E+01  0.26619744055E+02  0.51100000000E-03 0. -1.
        -11    1    3    3    0    0 -0.96809655025E+01 -0.51340802959E+01 -0.10082460348E+02  0.14890798517E+02  0.51100000000E-03 0.  1.
         12    1    3    3    0    0  0.27550003631E+01  0.17562738403E+02 -0.70273263088E+00  0.17791392311E+02  0.00000000000E+00 0. -1.
</event>
<event>
 7    1  0.7578565E-012  0.5930194E+02  0.7816164E-02  0.1266605E+00
        -11   -1    0    0    0    0  0.00000000000E+00  0.00000000000E+00  0.45593999997E+02  0.45594000000E+02  0.51100000000E-03 0.  1.
         11   -1    0    0    0    0 -0.00000000000E+00 -0.00000000000E+00 -0.45593999997E+02  0.45594000000E+02  0.51100000000E-03 0. -1.
    9900012    2    1    2    0    0 -0.12331727061E+02 -0.29231583847E+02  0.31880705617E+01  0.59301940658E+02  0.49999993854E+02 0.  0.
         12    1    1    2    0    0  0.12331727061E+02  0.29231583847E+02 -0.31880705617E+01  0.31886059342E+02  0.00000000000E+00 0. -1.
         11    1    3    3    0    0  0.40342428194E+01 -0.62759500135E+01  0.15683409757E+02  0.17367556120E+02  0.51100000000E-03 0.  1.
        -11    1    3    3    0    0 -0.11988755520E+02 -0.31272579831E+01 -0.17096358101E+02  0.21113868949E+02  0.51100000000E-03 0. -1.
        -12    1    3    3    0    0 -0.43772143604E+01 -0.19828375850E+02  0.46010189058E+01  0.20820515589E+02  0.00000000000E+00 0.  1.
</event>
<event>
 7    1  0.7581968E-012  0.5930190E+02  0.7816164E-02  0.1266605E+00
        -11   -1    0    0    0    0  0.00000000000E+00  0.00000000000E+00  0.45593999997E+02  0.45594000000E+02  0.51100000000E-03 0.  1.
         11   -1    0    0    0    0 -0.00000000000E+00 -0.00000000000E+00 -0.45593999997E+02  0.45594000000E+02  0.51100000000E-03 0. -1.
    9900012    2    1    2    0    0  0.18591052741E+02  0.20086253725E+02  0.16359663537E+02  0.59301899238E+02  0.49999918315E+02 0.  0.
         12    1    1    2    0    0 -0.18591052741E+02 -0.20086253725E+02 -0.16359663537E+02  0.31886100762E+02  0.00000000000E+00 0. -1.
         11    1    3    3    0    0  0.74928890621E+01  0.13681041696E+01 -0.12554907320E+02  0.14684712922E+02  0.51100000000E-03 0. -1.
        -11    1    3    3    0    0 -0.51209094966E+01  0.13428795101E+02  0.21848975858E+02  0.26152131811E+02  0.51100000000E-03 0.  1.
         12    1    3    3    0    0  0.16219073175E+02  0.52893544547E+01  0.70655949995E+01  0.18465054506E+02  0.00000000000E+00 0. -1.
</event>
<event>
 7    1  0.7578565E-012  0.5930193E+02  0.7816164E-02  0.1266605E+00
        -11   -1    0    0    0    0  0.00000000000E+00  0.00000000000E+00  0.45593999997E+02  0.45594000000E+02  0.51100000000E-03 0. -1.
         11   -1    0    0    0    0 -0.00000000000E+00 -0.00000000000E+00 -0.45593999997E+02  0.45594000000E+02  0.51100000000E-03 0.  1.
    9900012    2    1    2    0    0 -0.14373701625E+02 -0.27291136307E+02 -0.80815969854E+01  0.59301927348E+02  0.49999969580E+02 0.  0.
         12    1    1    2    0    0  0.14373701625E+02  0.27291136307E+02  0.80815969854E+01  0.31886072652E+02  0.00000000000E+00 0. -1.
         11    1    3    3    0    0  0.23567890831E+01 -0.40751567097E+01  0.19035569687E+02  0.19609035431E+02  0.51100000000E-03 0. -1.
        -11    1    3    3    0    0 -0.82550330905E+01 -0.14137327931E+02 -0.13117611330E+02  0.20978115731E+02  0.51100000000E-03 0.  1.
         12    1    3    3    0    0 -0.84754576174E+01 -0.90786516662E+01 -0.13999555342E+02  0.18714776186E+02  0.00000000000E+00 0. -1.
</event>
<event>
 7    1  0.7578565E-012  0.5930183E+02  0.7816164E-02  0.1266605E+00
        -11   -1    0    0    0    0  0.00000000000E+00  0.00000000000E+00  0.45593999997E+02  0.45594000000E+02  0.51100000000E-03 0. -1.
         11   -1    0    0    0    0 -0.00000000000E+00 -0.00000000000E+00 -0.45593999997E+02  0.45594000000E+02  0.51100000000E-03 0.  1.
    9900012    2    1    2    0    0 -0.24839023870E+02  0.19056135247E+02 -0.60510070384E+01  0.59301826138E+02  0.49999784997E+02 0.  0.
         12    1    1    2    0    0  0.24839023870E+02 -0.19056135247E+02  0.60510070384E+01  0.31886173862E+02  0.00000000000E+00 0. -1.
         11    1    3    3    0    0  0.71466693350E+01  0.72306149633E+01  0.15375815190E+01  0.10282063631E+02  0.51100000000E-03 0. -1.
        -11    1    3    3    0    0 -0.24312793928E+02 -0.10562557276E+01 -0.18421720680E+02  0.30521917008E+02  0.51100000000E-03 0.  1.
         12    1    3    3    0    0 -0.76728992772E+01  0.12881776011E+02  0.10833132123E+02  0.18497845499E+02  0.00000000000E+00 0. -1.
</event>
<event>
 7    1  0.7578565E-012  0.5930196E+02  0.7816164E-02  0.1266605E+00
        -11   -1    0    0    0    0  0.00000000000E+00  0.00000000000E+00  0.45593999997E+02  0.45594000000E+02  0.51100000000E-03 0.  1.
         11   -1    0    0    0    0 -0.00000000000E+00 -0.00000000000E+00 -0.45593999997E+02  0.45594000000E+02  0.51100000000E-03 0. -1.
    9900012    2    1    2    0    0  0.27740679429E+02  0.15635612800E+02 -0.16436751271E+01  0.59301963076E+02  0.50000034739E+02 0.  0.
         12    1    1    2    0    0 -0.27740679429E+02 -0.15635612800E+02  0.16436751271E+01  0.31886036924E+02  0.00000000000E+00 0. -1.
         11    1    3    3    0    0  0.91816861832E+01  0.11441469241E+02 -0.15590054904E+02  0.21407017347E+02  0.51100000000E-03 0. -1.
        -11    1    3    3    0    0  0.93323124564E+01  0.15424761928E+02  0.14814665400E+02  0.23334301950E+02  0.51100000000E-03 0.  1.
         12    1    3    3    0    0  0.92266807893E+01 -0.11230618368E+02 -0.86828562310E+00  0.14560643779E+02  0.00000000000E+00 0. -1.
</event>
<event>
 7    1  0.7578565E-012  0.5930194E+02  0.7816164E-02  0.1266605E+00
        -11   -1    0    0    0    0  0.00000000000E+00  0.00000000000E+00  0.45593999997E+02  0.45594000000E+02  0.51100000000E-03 0.  1.
         11   -1    0    0    0    0 -0.00000000000E+00 -0.00000000000E+00 -0.45593999997E+02  0.45594000000E+02  0.51100000000E-03 0. -1.
    9900012    2    1    2    0    0  0.15525093523E+01 -0.10188547507E+02  0.30174560618E+02  0.59301938874E+02  0.49999990602E+02 0.  0.
         12    1    1    2    0    0 -0.15525093523E+01  0.10188547507E+02 -0.30174560618E+02  0.31886061126E+02  0.00000000000E+00 0. -1.
         11    1    3    3    0    0 -0.11369024496E+02  0.13097527949E+02  0.55695144031E+01  0.18215911927E+02  0.51100000000E-03 0. -1.
        -11    1    3    3    0    0 -0.43550656140E+01 -0.10626726171E+02  0.87391170413E+01  0.14431426560E+02  0.51100000000E-03 0.  1.
         12    1    3    3    0    0  0.17276599463E+02 -0.12659349285E+02  0.15865929174E+02  0.26654600388E+02  0.00000000000E+00 0. -1.
</event>
<event>
 7    1  0.7578565E-012  0.5930195E+02  0.7816164E-02  0.1266605E+00
        -11   -1    0    0    0    0  0.00000000000E+00  0.00000000000E+00  0.45593999997E+02  0.45594000000E+02  0.51100000000E-03 0. -1.
         11   -1    0    0    0    0 -0.00000000000E+00 -0.00000000000E+00 -0.45593999997E+02  0.45594000000E+02  0.51100000000E-03 0.  1.
    9900012    2    1    2    0    0 -0.97404377732E+01  0.11105516885E+02 -0.28257947859E+02  0.59301948967E+02  0.50000009008E+02 0.  0.
         12    1    1    2    0    0  0.97404377732E+01 -0.11105516885E+02  0.28257947859E+02  0.31886051033E+02  0.00000000000E+00 0. -1.
         11    1    3    3    0    0 -0.81555691466E+01  0.10466522773E+02 -0.28344733559E+02  0.31296730306E+02  0.51100000000E-03 0.  1.
        -11    1    3    3    0    0  0.17042587244E+00 -0.10840765598E+02  0.84065742966E+01  0.13719392676E+02  0.51100000000E-03 0. -1.
         12    1    3    3    0    0 -0.17552944990E+01  0.11479759710E+02 -0.83197885965E+01  0.14285825985E+02  0.00000000000E+00 0. -1.
</event>
<event>
 7    1  0.7578565E-012  0.5930195E+02  0.7816164E-02  0.1266605E+00
        -11   -1    0    0    0    0  0.00000000000E+00  0.00000000000E+00  0.45593999997E+02  0.45594000000E+02  0.51100000000E-03 0.  1.
         11   -1    0    0    0    0 -0.00000000000E+00 -0.00000000000E+00 -0.45593999997E+02  0.45594000000E+02  0.51100000000E-03 0. -1.
    9900012    2    1    2    0    0 -0.31325944826E+02 -0.35129034831E+01  0.48025688780E+01  0.59301953241E+02  0.50000016802E+02 0.  0.
         12    1    1    2    0    0  0.31325944826E+02  0.35129034831E+01 -0.48025688780E+01  0.31886046759E+02  0.00000000000E+00 0. -1.
         11    1    3    3    0    0  0.32276917511E+00 -0.14596687583E+02 -0.82595177597E+01  0.16774596932E+02  0.51100000000E-03 0. -1.
        -11    1    3    3    0    0 -0.12121451232E+02  0.47674823089E+01  0.17215636222E+02  0.21587880821E+02  0.51100000000E-03 0.  1.
         12    1    3    3    0    0 -0.19527262769E+02  0.63163017913E+01 -0.41535495843E+01  0.20939475488E+02  0.00000000000E+00 0. -1.
</event>
<event>
 7    1  0.7578565E-012  0.5930195E+02  0.7816164E-02  0.1266605E+00
        -11   -1    0    0    0    0  0.00000000000E+00  0.00000000000E+00  0.45593999997E+02  0.45594000000E+02  0.51100000000E-03 0. -1.
         11   -1    0    0    0    0 -0.00000000000E+00 -0.00000000000E+00 -0.45593999997E+02  0.45594000000E+02  0.51100000000E-03 0.  1.
    9900012    2    1    2    0    0 -0.14692831553E+02  0.18839273365E+02 -0.21116883470E+02  0.59301948387E+02  0.50000007951E+02 0.  0.
         12    1    1    2    0    0  0.14692831553E+02 -0.18839273365E+02  0.21116883470E+02  0.31886051613E+02  0.00000000000E+00 0. -1.
         11    1    3    3    0    0  0.15513288994E+01 -0.17731515181E+00  0.11394979414E+02  0.11501461565E+02  0.51100000000E-03 0. -1.
        -11    1    3    3    0    0 -0.22745565518E+02  0.13350891418E+02 -0.25499218077E+02  0.36685380947E+02  0.51100000000E-03 0.  1.
         12    1    3    3    0    0  0.65014050654E+01  0.56656970994E+01 -0.70126448062E+01  0.11115105876E+02  0.00000000000E+00 0. -1.
</event>
<event>
 7    1  0.7578565E-012  0.5930196E+02  0.7816164E-02  0.1266605E+00
        -11   -1    0    0    0    0  0.00000000000E+00  0.00000000000E+00  0.45593999997E+02  0.45594000000E+02  0.51100000000E-03 0. -1.
         11   -1    0    0    0    0 -0.00000000000E+00 -0.00000000000E+00 -0.45593999997E+02  0.45594000000E+02  0.51100000000E-03 0.  1.
    9900012    2    1    2    0    0 -0.25780453225E+02  0.81127197270E+01 -0.16919568872E+02  0.59301956020E+02  0.50000021871E+02 0.  0.
         12    1    1    2    0    0  0.25780453225E+02 -0.81127197270E+01  0.16919568872E+02  0.31886043980E+02  0.00000000000E+00 0. -1.
         11    1    3    3    0    0 -0.71647730514E+01  0.38438125804E+01  0.70684766711E+01  0.10773682320E+02  0.51100000000E-03 0. -1.
        -11    1    3    3    0    0 -0.13280317745E+02 -0.79161145925E+01 -0.30138928161E+02  0.33873097003E+02  0.51100000000E-03 0.  1.
        -12    1    3    3    0    0 -0.53353624286E+01  0.12185021739E+02  0.61508826175E+01  0.14655176696E+02  0.00000000000E+00 0.  1.
</event>
<event>
 7    1  0.7578565E-012  0.5930190E+02  0.7816164E-02  0.1266605E+00
        -11   -1    0    0    0    0  0.00000000000E+00  0.00000000000E+00  0.45593999997E+02  0.45594000000E+02  0.51100000000E-03 0. -1.
         11   -1    0    0    0    0 -0.00000000000E+00 -0.00000000000E+00 -0.45593999997E+02  0.45594000000E+02  0.51100000000E-03 0.  1.
    9900012    2    1    2    0    0 -0.29477583514E+02 -0.10848355554E+02 -0.54871329347E+01  0.59301899958E+02  0.49999919628E+02 0.  0.
         12    1    1    2    0    0  0.29477583514E+02  0.10848355554E+02  0.54871329347E+01  0.31886100042E+02  0.00000000000E+00 0. -1.
         11    1    3    3    0    0 -0.82888235126E+01 -0.98107900314E+01  0.19688629457E+02  0.23507410032E+02  0.51100000000E-03 0. -1.
        -11    1    3    3    0    0 -0.11848831116E+02 -0.59586943212E+01 -0.75837531812E+01  0.15277897415E+02  0.51100000000E-03 0.  1.
         12    1    3    3    0    0 -0.93399288846E+01  0.49211287990E+01 -0.17592009210E+02  0.20516592512E+02  0.00000000000E+00 0. -1.
</event>
<event>
 7    1  0.7578565E-012  0.5930194E+02  0.7816164E-02  0.1266605E+00
        -11   -1    0    0    0    0  0.00000000000E+00  0.00000000000E+00  0.45593999997E+02  0.45594000000E+02  0.51100000000E-03 0.  1.
         11   -1    0    0    0    0 -0.00000000000E+00 -0.00000000000E+00 -0.45593999997E+02  0.45594000000E+02  0.51100000000E-03 0. -1.
    9900012    2    1    2    0    0 -0.28326120087E+01 -0.18450865498E+00  0.31759459346E+02  0.59301937336E+02  0.49999987796E+02 0.  0.
         12    1    1    2    0    0  0.28326120087E+01  0.18450865498E+00 -0.31759459346E+02  0.31886062664E+02  0.00000000000E+00 0. -1.
         11    1    3    3    0    0 -0.65491053178E+01  0.14704008557E+02  0.61940173162E+01  0.17247159154E+02  0.51100000000E-03 0.  1.
        -11    1    3    3    0    0  0.12458026739E+02 -0.12626880825E+02  0.27591031556E+02  0.32800999560E+02  0.51100000000E-03 0. -1.
         12    1    3    3    0    0 -0.87415334298E+01 -0.22616363870E+01 -0.20255895254E+01  0.92537786215E+01  0.00000000000E+00 0. -1.
</event>
<event>
 7    1  0.7578565E-012  0.5930197E+02  0.7816164E-02  0.1266605E+00
        -11   -1    0    0    0    0  0.00000000000E+00  0.00000000000E+00  0.45593999997E+02  0.45594000000E+02  0.51100000000E-03 0. -1.
         11   -1    0    0    0    0 -0.00000000000E+00 -0.00000000000E+00 -0.45593999997E+02  0.45594000000E+02  0.51100000000E-03 0.  1.
    9900012    2    1    2    0    0 -0.19535395836E+02  0.24327638150E+02 -0.65767158738E+01  0.59301970769E+02  0.50000048770E+02 0.  0.
         12    1    1    2    0    0  0.19535395836E+02 -0.24327638150E+02  0.65767158738E+01  0.31886029231E+02  0.00000000000E+00 0. -1.
         11    1    3    3    0    0 -0.11874570696E+01 -0.37305264686E+01  0.46913861485E+01  0.61103180180E+01  0.51100000000E-03 0. -1.
        -11    1    3    3    0    0  0.21368687406E+01  0.30558685954E+02 -0.23909127039E+01  0.30726470007E+02  0.51100000000E-03 0.  1.
        -12    1    3    3    0    0 -0.20484807507E+02 -0.25005213357E+01 -0.88771893184E+01  0.22465182744E+02  0.00000000000E+00 0.  1.
</event>
<event>
 7    1  0.7578565E-012  0.5930191E+02  0.7816164E-02  0.1266605E+00
        -11   -1    0    0    0    0  0.00000000000E+00  0.00000000000E+00  0.45593999997E+02  0.45594000000E+02  0.51100000000E-03 0.  1.
         11   -1    0    0    0    0 -0.00000000000E+00 -0.00000000000E+00 -0.45593999997E+02  0.45594000000E+02  0.51100000000E-03 0. -1.
    9900012    2    1    2    0    0  0.61113536923E+01  0.27010362048E+02 -0.15805525171E+02  0.59301906983E+02  0.49999932440E+02 0.  0.
         12    1    1    2    0    0 -0.61113536923E+01 -0.27010362048E+02  0.15805525171E+02  0.31886093017E+02  0.00000000000E+00 0. -1.
         11    1    3    3    0    0 -0.54022933230E+01 -0.50228022788E+01 -0.15687207457E+02  0.17334987566E+02  0.51100000000E-03 0. -1.
        -11    1    3    3    0    0  0.32356041335E+01  0.10110083683E+02  0.11635795195E+02  0.15750385908E+02  0.51100000000E-03 0.  1.
        -12    1    3    3    0    0  0.82780428818E+01  0.21923080645E+02 -0.11754112910E+02  0.26216533508E+02  0.00000000000E+00 0.  1.
</event>
<event>
 7    1  0.7578565E-012  0.5930178E+02  0.7816164E-02  0.1266605E+00
        -11   -1    0    0    0    0  0.00000000000E+00  0.00000000000E+00  0.45593999997E+02  0.45594000000E+02  0.51100000000E-03 0.  1.
         11   -1    0    0    0    0 -0.00000000000E+00 -0.00000000000E+00 -0.45593999997E+02  0.45594000000E+02  0.51100000000E-03 0. -1.
    9900012    2    1    2    0    0 -0.14996842167E+01  0.16702049330E+02  0.27120539216E+02  0.59301778024E+02  0.49999697247E+02 0.  0.
         12    1    1    2    0    0  0.14996842167E+01 -0.16702049330E+02 -0.27120539216E+02  0.31886221976E+02  0.00000000000E+00 0. -1.
         11    1    3    3    0    0 -0.57201852047E+01 -0.10170170261E+01 -0.61109890771E+01  0.84320240849E+01  0.51100000000E-03 0. -1.
        -11    1    3    3    0    0  0.18696786339E+02  0.96939335190E+01  0.23951610056E+02  0.31893914639E+02  0.51100000000E-03 0.  1.
        -12    1    3    3    0    0 -0.14476285351E+02  0.80251328375E+01  0.92799182367E+01  0.18975839299E+02  0.00000000000E+00 0.  1.
</event>
<event>
 7    1  0.7578565E-012  0.5930194E+02  0.7816164E-02  0.1266605E+00
        -11   -1    0    0    0    0  0.00000000000E+00  0.00000000000E+00  0.45593999997E+02  0.45594000000E+02  0.51100000000E-03 0.  1.
         11   -1    0    0    0    0 -0.00000000000E+00 -0.00000000000E+00 -0.45593999997E+02  0.45594000000E+02  0.51100000000E-03 0. -1.
    9900012    2    1    2    0    0  0.14540263938E+02  0.27329561886E+02  0.76417747363E+01  0.59301938008E+02  0.49999989021E+02 0.  0.
         12    1    1    2    0    0 -0.14540263938E+02 -0.27329561886E+02 -0.76417747363E+01  0.31886061992E+02  0.00000000000E+00 0. -1.
         11    1    3    3    0    0  0.66368772905E+01  0.19770562759E+02 -0.16757804667E+02  0.26753454161E+02  0.51100000000E-03 0.  1.
        -11    1    3    3    0    0  0.99612406625E+01  0.12717417299E-01  0.22339728598E+02  0.24459966300E+02  0.51100000000E-03 0. -1.
         12    1    3    3    0    0 -0.20578540147E+01  0.75462817090E+01  0.20598508052E+01  0.80885175475E+01  0.00000000000E+00 0. -1.
</event>
<event>
 7    1  0.7578565E-012  0.5930195E+02  0.7816164E-02  0.1266605E+00
        -11   -1    0    0    0    0  0.00000000000E+00  0.00000000000E+00  0.45593999997E+02  0.45594000000E+02  0.51100000000E-03 0. -1.
         11   -1    0    0    0    0 -0.00000000000E+00 -0.00000000000E+00 -0.45593999997E+02  0.45594000000E+02  0.51100000000E-03 0.  1.
    9900012    2    1    2    0    0 -0.29404962922E+02 -0.44275912420E+01 -0.11509338240E+02  0.59301948577E+02  0.50000008296E+02 0.  0.
         12    1    1    2    0    0  0.29404962922E+02  0.44275912420E+01  0.11509338240E+02  0.31886051423E+02  0.00000000000E+00 0. -1.
         11    1    3    3    0    0 -0.31990091686E+02 -0.10062710721E+02  0.73470247529E+01  0.34330786273E+02  0.51100000000E-03 0.  1.
        -11    1    3    3    0    0 -0.48842827170E+01  0.56989258734E+01 -0.14491043898E+02  0.16319446293E+02  0.51100000000E-03 0. -1.
         12    1    3    3    0    0  0.74694114814E+01 -0.63806394001E-01 -0.43653190949E+01  0.86517160109E+01  0.00000000000E+00 0. -1.
</event>
<event>
 7    1  0.7578565E-012  0.5930196E+02  0.7816164E-02  0.1266605E+00
        -11   -1    0    0    0    0  0.00000000000E+00  0.00000000000E+00  0.45593999997E+02  0.45594000000E+02  0.51100000000E-03 0. -1.
         11   -1    0    0    0    0 -0.00000000000E+00 -0.00000000000E+00 -0.45593999997E+02  0.45594000000E+02  0.51100000000E-03 0.  1.
    9900012    2    1    2    0    0 -0.71583883487E+01 -0.31001351348E+02 -0.20959869035E+01  0.59301961201E+02  0.50000031320E+02 0.  0.
         12    1    1    2    0    0  0.71583883487E+01  0.31001351348E+02  0.20959869035E+01  0.31886038799E+02  0.00000000000E+00 0. -1.
         11    1    3    3    0    0 -0.25959356126E+01 -0.39438321277E+02  0.10960519064E+02  0.41015278193E+02  0.51100000000E-03 0. -1.
        -11    1    3    3    0    0 -0.26502171735E+01  0.98089553941E+01 -0.11950955853E+02  0.15686446476E+02  0.51100000000E-03 0.  1.
        -12    1    3    3    0    0 -0.19122355627E+01 -0.13719854656E+01 -0.11055501143E+01  0.26002365316E+01  0.00000000000E+00 0.  1.
</event>
<event>
 7    1  0.7578565E-012  0.5930194E+02  0.7816164E-02  0.1266605E+00
        -11   -1    0    0    0    0  0.00000000000E+00  0.00000000000E+00  0.45593999997E+02  0.45594000000E+02  0.51100000000E-03 0. -1.
         11   -1    0    0    0    0 -0.00000000000E+00 -0.00000000000E+00 -0.45593999997E+02  0.45594000000E+02  0.51100000000E-03 0.  1.
    9900012    2    1    2    0    0  0.28611462647E+02  0.35239329427E+01 -0.13626701298E+02  0.59301938995E+02  0.49999990821E+02 0.  0.
         12    1    1    2    0    0 -0.28611462647E+02 -0.35239329427E+01  0.13626701298E+02  0.31886061005E+02  0.00000000000E+00 0. -1.
         11    1    3    3    0    0  0.11354376221E+02 -0.45182708310E-01  0.83625320626E+01  0.14101625566E+02  0.51100000000E-03 0. -1.
        -11    1    3    3    0    0  0.16475343314E+02  0.14648362573E+02 -0.25351001793E+02  0.33595903851E+02  0.51100000000E-03 0.  1.
        -12    1    3    3    0    0  0.78174311203E+00 -0.11079246922E+02  0.33617684324E+01  0.11604409578E+02  0.00000000000E+00 0.  1.
</event>
<event>
 7    1  0.7578565E-012  0.5930196E+02  0.7816164E-02  0.1266605E+00
        -11   -1    0    0    0    0  0.00000000000E+00  0.00000000000E+00  0.45593999997E+02  0.45594000000E+02  0.51100000000E-03 0.  1.
         11   -1    0    0    0    0 -0.00000000000E+00 -0.00000000000E+00 -0.45593999997E+02  0.45594000000E+02  0.51100000000E-03 0. -1.
    9900012    2    1    2    0    0 -0.28262189731E+01  0.27981014270E+02  0.15026469747E+02  0.59301961264E+02  0.50000031434E+02 0.  0.
         12    1    1    2    0    0  0.28262189731E+01 -0.27981014270E+02 -0.15026469747E+02  0.31886038736E+02  0.00000000000E+00 0. -1.
         11    1    3    3    0    0 -0.71782765453E+01  0.61009174927E+01 -0.16485672345E+02  0.18987528574E+02  0.51100000000E-03 0. -1.
        -11    1    3    3    0    0  0.57624452302E+01  0.59286642597E+01  0.60878368583E+01  0.10267258291E+02  0.51100000000E-03 0.  1.
         12    1    3    3    0    0 -0.14103876580E+01  0.15951432517E+02  0.25424305234E+02  0.30047174399E+02  0.00000000000E+00 0. -1.
</event>
<event>
 7    1  0.7578565E-012  0.5930191E+02  0.7816164E-02  0.1266605E+00
        -11   -1    0    0    0    0  0.00000000000E+00  0.00000000000E+00  0.45593999997E+02  0.45594000000E+02  0.51100000000E-03 0. -1.
         11   -1    0    0    0    0 -0.00000000000E+00 -0.00000000000E+00 -0.45593999997E+02  0.45594000000E+02  0.51100000000E-03 0.  1.
    9900012    2    1    2    0    0 -0.26490585722E+02 -0.17004099735E+02 -0.50825601932E+01  0.59301906514E+02  0.49999931584E+02 0.  0.
         12    1    1    2    0    0  0.26490585722E+02  0.17004099735E+02  0.50825601932E+01  0.31886093486E+02  0.00000000000E+00 0. -1.
         11    1    3    3    0    0 -0.13798717065E+02  0.87318717712E+01 -0.12457025226E+02  0.20538443344E+02  0.51100000000E-03 0. -1.
        -11    1    3    3    0    0  0.45455475503E+01 -0.18495548293E+02  0.12390898086E+01  0.19086190113E+02  0.51100000000E-03 0.  1.
         12    1    3    3    0    0 -0.17237416208E+02 -0.72404232125E+01  0.61353752241E+01  0.19677273057E+02  0.00000000000E+00 0. -1.
</event>
<event>
 7    1  0.7578565E-012  0.5930228E+02  0.7816164E-02  0.1266604E+00
        -11   -1    0    0    0    0  0.00000000000E+00  0.00000000000E+00  0.45593999997E+02  0.45594000000E+02  0.51100000000E-03 0.  1.
         11   -1    0    0    0    0 -0.00000000000E+00 -0.00000000000E+00 -0.45593999997E+02  0.45594000000E+02  0.51100000000E-03 0. -1.
    9900012    2    1    2    0    0  0.17479049172E+02 -0.65081635621E+01  0.25861664152E+02  0.59302281793E+02  0.50000615999E+02 0.  0.
         12    1    1    2    0    0 -0.17479049172E+02  0.65081635621E+01 -0.25861664152E+02  0.31885718207E+02  0.00000000000E+00 0. -1.
         11    1    3    3    0    0  0.56818619336E+01  0.17225847155E+02  0.27766165694E+01  0.18350012673E+02  0.51100000000E-03 0. -1.
        -11    1    3    3    0    0  0.12327829049E+02 -0.21735025038E+02  0.26836435597E+02  0.36668528172E+02  0.51100000000E-03 0.  1.
         12    1    3    3    0    0 -0.53064181067E+00 -0.19989856793E+01 -0.37513880146E+01  0.42837409485E+01  0.00000000000E+00 0. -1.
</event>
<event>
 7    1  0.7578565E-012  0.5930194E+02  0.7816164E-02  0.1266605E+00
        -11   -1    0    0    0    0  0.00000000000E+00  0.00000000000E+00  0.45593999997E+02  0.45594000000E+02  0.51100000000E-03 0.  1.
         11   -1    0    0    0    0 -0.00000000000E+00 -0.00000000000E+00 -0.45593999997E+02  0.45594000000E+02  0.51100000000E-03 0. -1.
    9900012    2    1    2    0    0  0.16129434275E+02 -0.26489996218E+02  0.74055483660E+01  0.59301941977E+02  0.49999996260E+02 0.  0.
         12    1    1    2    0    0 -0.16129434275E+02  0.26489996218E+02 -0.74055483660E+01  0.31886058023E+02  0.00000000000E+00 0. -1.
         11    1    3    3    0    0 -0.90896001994E+01  0.77607993917E+01  0.50141304343E+01  0.12961186028E+02  0.51100000000E-03 0. -1.
        -11    1    3    3    0    0  0.93480453723E+01 -0.22766821552E+02 -0.55044988276E+01  0.25219310527E+02  0.51100000000E-03 0.  1.
        -12    1    3    3    0    0  0.15870989102E+02 -0.11483974058E+02  0.78959167593E+01  0.21121445422E+02  0.00000000000E+00 0.  1.
</event>
<event>
 7    1  0.7578565E-012  0.5930194E+02  0.7816164E-02  0.1266605E+00
        -11   -1    0    0    0    0  0.00000000000E+00  0.00000000000E+00  0.45593999997E+02  0.45594000000E+02  0.51100000000E-03 0.  1.
         11   -1    0    0    0    0 -0.00000000000E+00 -0.00000000000E+00 -0.45593999997E+02  0.45594000000E+02  0.51100000000E-03 0. -1.
    9900012    2    1    2    0    0  0.12576425138E+02 -0.29097325009E+02  0.34496423340E+01  0.59301939971E+02  0.49999992601E+02 0.  0.
         12    1    1    2    0    0 -0.12576425138E+02  0.29097325009E+02 -0.34496423340E+01  0.31886060029E+02  0.00000000000E+00 0. -1.
         11    1    3    3    0    0  0.19341755693E+02 -0.10173786284E+02 -0.58418775630E+01  0.22621604151E+02  0.51100000000E-03 0. -1.
        -11    1    3    3    0    0 -0.45748724006E+01  0.61955273933E+01  0.84765601669E+01  0.11452776506E+02  0.51100000000E-03 0.  1.
         12    1    3    3    0    0 -0.21904581544E+01 -0.25119066119E+02  0.81495973004E+00  0.25227559314E+02  0.00000000000E+00 0. -1.
</event>
<event>
 7    1  0.7578565E-012  0.5930193E+02  0.7816164E-02  0.1266605E+00
        -11   -1    0    0    0    0  0.00000000000E+00  0.00000000000E+00  0.45593999997E+02  0.45594000000E+02  0.51100000000E-03 0. -1.
         11   -1    0    0    0    0 -0.00000000000E+00 -0.00000000000E+00 -0.45593999997E+02  0.45594000000E+02  0.51100000000E-03 0.  1.
    9900012    2    1    2    0    0  0.65552533379E+01  0.25383112626E+02 -0.18150700948E+02  0.59301926272E+02  0.49999967618E+02 0.  0.
         12    1    1    2    0    0 -0.65552533379E+01 -0.25383112626E+02  0.18150700948E+02  0.31886073728E+02  0.00000000000E+00 0. -1.
         11    1    3    3    0    0  0.27799054772E+01  0.90970787182E+01  0.49601853653E+01  0.10727914746E+02  0.51100000000E-03 0. -1.
        -11    1    3    3    0    0 -0.85657756936E+01 -0.10139069537E+02 -0.46822794917E+01  0.14074693098E+02  0.51100000000E-03 0.  1.
        -12    1    3    3    0    0  0.12341123554E+02  0.26425103445E+02 -0.18428606821E+02  0.34499318428E+02  0.00000000000E+00 0.  1.
</event>
<event>
 7    1  0.7578565E-012  0.5930192E+02  0.7816164E-02  0.1266605E+00
        -11   -1    0    0    0    0  0.00000000000E+00  0.00000000000E+00  0.45593999997E+02  0.45594000000E+02  0.51100000000E-03 0. -1.
         11   -1    0    0    0    0 -0.00000000000E+00 -0.00000000000E+00 -0.45593999997E+02  0.45594000000E+02  0.51100000000E-03 0.  1.
    9900012    2    1    2    0    0  0.14732158945E+02  0.21382111667E+02 -0.18506514370E+02  0.59301917132E+02  0.49999950949E+02 0.  0.
         12    1    1    2    0    0 -0.14732158945E+02 -0.21382111667E+02  0.18506514370E+02  0.31886082868E+02  0.00000000000E+00 0. -1.
         11    1    3    3    0    0 -0.22845836024E+01  0.77170503192E+01  0.10675971288E+01  0.81186176013E+01  0.51100000000E-03 0. -1.
        -11    1    3    3    0    0  0.11205357542E+02 -0.11600107649E+02  0.34696903897E+01  0.16497311501E+02  0.51100000000E-03 0.  1.
        -12    1    3    3    0    0  0.58113850051E+01  0.25265168997E+02 -0.23043801888E+02  0.34685988030E+02  0.00000000000E+00 0.  1.
</event>
<event>
 7    1  0.7578565E-012  0.5930193E+02  0.7816164E-02  0.1266605E+00
        -11   -1    0    0    0    0  0.00000000000E+00  0.00000000000E+00  0.45593999997E+02  0.45594000000E+02  0.51100000000E-03 0.  1.
         11   -1    0    0    0    0 -0.00000000000E+00 -0.00000000000E+00 -0.45593999997E+02  0.45594000000E+02  0.51100000000E-03 0. -1.
    9900012    2    1    2    0    0  0.31717638342E+02  0.28494095045E+01 -0.16105001553E+01  0.59301930513E+02  0.49999975353E+02 0.  0.
         12    1    1    2    0    0 -0.31717638342E+02 -0.28494095045E+01  0.16105001553E+01  0.31886069487E+02  0.00000000000E+00 0. -1.
         11    1    3    3    0    0  0.29018797338E+01 -0.68688557630E+01  0.15320543723E+02  0.17038812920E+02  0.51100000000E-03 0. -1.
        -11    1    3    3    0    0  0.13830381127E+02 -0.73515763029E+01 -0.41650388817E+01  0.16207179440E+02  0.51100000000E-03 0.  1.
         12    1    3    3    0    0  0.14985377482E+02  0.17069841570E+02 -0.12766004997E+02  0.26055938154E+02  0.00000000000E+00 0. -1.
</event>
<event>
 7    1  0.7578565E-012  0.5930197E+02  0.7816164E-02  0.1266605E+00
        -11   -1    0    0    0    0  0.00000000000E+00  0.00000000000E+00  0.45593999997E+02  0.45594000000E+02  0.51100000000E-03 0.  1.
         11   -1    0    0    0    0 -0.00000000000E+00 -0.00000000000E+00 -0.45593999997E+02  0.45594000000E+02  0.51100000000E-03 0. -1.
    9900012    2    1    2    0    0 -0.12180263679E+02  0.27638979015E+02  0.10219925325E+02  0.59301970803E+02  0.50000048832E+02 0.  0.
         12    1    1    2    0    0  0.12180263679E+02 -0.27638979015E+02 -0.10219925325E+02  0.31886029197E+02  0.00000000000E+00 0. -1.
         11    1    3    3    0    0 -0.14901328493E+01 -0.66884264145E+01  0.84303119296E+00  0.69040745698E+01  0.51100000000E-03 0. -1.
        -11    1    3    3    0    0 -0.10979008021E+02  0.39465305647E+02  0.16028379257E+02  0.43988156461E+02  0.51100000000E-03 0.  1.
        -12    1    3    3    0    0  0.28887719165E+00 -0.51379002179E+01 -0.66514851247E+01  0.84097397728E+01  0.00000000000E+00 0.  1.
</event>
<event>
 7    1  0.7578565E-012  0.5930197E+02  0.7816164E-02  0.1266605E+00
        -11   -1    0    0    0    0  0.00000000000E+00  0.00000000000E+00  0.45593999997E+02  0.45594000000E+02  0.51100000000E-03 0. -1.
         11   -1    0    0    0    0 -0.00000000000E+00 -0.00000000000E+00 -0.45593999997E+02  0.45594000000E+02  0.51100000000E-03 0.  1.
    9900012    2    1    2    0    0 -0.43701904966E+01  0.28519243532E+02 -0.13574717513E+02  0.59301972148E+02  0.50000051284E+02 0.  0.
         12    1    1    2    0    0  0.43701904966E+01 -0.28519243532E+02  0.13574717513E+02  0.31886027852E+02  0.00000000000E+00 0. -1.
         11    1    3    3    0    0 -0.99790753369E+01 -0.14213704292E+01  0.14689321291E+01  0.10186265279E+02  0.51100000000E-03 0. -1.
        -11    1    3    3    0    0  0.81532740036E+01  0.13328268092E+02  0.10294386709E+02  0.18710772439E+02  0.51100000000E-03 0.  1.
        -12    1    3    3    0    0 -0.25443891633E+01  0.16612345870E+02 -0.25338036351E+02  0.30404934429E+02  0.00000000000E+00 0.  1.
</event>
<event>
 7    1  0.7578565E-012  0.5930199E+02  0.7816164E-02  0.1266605E+00
        -11   -1    0    0    0    0  0.00000000000E+00  0.00000000000E+00  0.45593999997E+02  0.45594000000E+02  0.51100000000E-03 0.  1.
         11   -1    0    0    0    0 -0.00000000000E+00 -0.00000000000E+00 -0.45593999997E+02  0.45594000000E+02  0.51100000000E-03 0. -1.
    9900012    2    1    2    0    0  0.10094822313E+02  0.29415276912E+02  0.70394248214E+01  0.59301992800E+02  0.50000088949E+02 0.  0.
         12    1    1    2    0    0 -0.10094822313E+02 -0.29415276912E+02 -0.70394248214E+01  0.31886007200E+02  0.00000000000E+00 0. -1.
         11    1    3    3    0    0 -0.86269642874E+01  0.29969524226E+01  0.17264106322E+02  0.19530888459E+02  0.51100000000E-03 0.  1.
        -11    1    3    3    0    0  0.20094156282E+02  0.21166299740E+02 -0.11638028589E+01  0.29208591180E+02  0.51100000000E-03 0. -1.
         12    1    3    3    0    0 -0.13723696816E+01  0.52520247491E+01 -0.90608786419E+01  0.10562513161E+02  0.00000000000E+00 0. -1.
</event>
<event>
 7    1  0.7578565E-012  0.5930201E+02  0.7816164E-02  0.1266605E+00
        -11   -1    0    0    0    0  0.00000000000E+00  0.00000000000E+00  0.45593999997E+02  0.45594000000E+02  0.51100000000E-03 0. -1.
         11   -1    0    0    0    0 -0.00000000000E+00 -0.00000000000E+00 -0.45593999997E+02  0.45594000000E+02  0.51100000000E-03 0.  1.
    9900012    2    1    2    0    0  0.23820302976E+02 -0.15715137694E+02 -0.14224770014E+02  0.59302008270E+02  0.50000117163E+02 0.  0.
         12    1    1    2    0    0 -0.23820302976E+02  0.15715137694E+02  0.14224770014E+02  0.31885991730E+02  0.00000000000E+00 0. -1.
         11    1    3    3    0    0  0.16230483235E+02 -0.44960730511E+01  0.17315503848E+01  0.16930491012E+02  0.51100000000E-03 0. -1.
        -11    1    3    3    0    0 -0.12326628313E+02 -0.36920730005E+01 -0.16681630501E+02  0.21067841964E+02  0.51100000000E-03 0.  1.
        -12    1    3    3    0    0  0.19916448054E+02 -0.75269916429E+01  0.72531010144E+00  0.21303675294E+02  0.00000000000E+00 0.  1.
</event>
<event>
 7    1  0.7578565E-012  0.5930195E+02  0.7816164E-02  0.1266605E+00
        -11   -1    0    0    0    0  0.00000000000E+00  0.00000000000E+00  0.45593999997E+02  0.45594000000E+02  0.51100000000E-03 0.  1.
         11   -1    0    0    0    0 -0.00000000000E+00 -0.00000000000E+00 -0.45593999997E+02  0.45594000000E+02  0.51100000000E-03 0. -1.
    9900012    2    1    2    0    0  0.14593483583E+01  0.57956304400E+01  0.31320939284E+02  0.59301948701E+02  0.50000008523E+02 0.  0.
         12    1    1    2    0    0 -0.14593483583E+01 -0.57956304400E+01 -0.31320939284E+02  0.31886051299E+02  0.00000000000E+00 0. -1.
         11    1    3    3    0    0 -0.55205130462E+00  0.13538432667E+02 -0.92761936222E+01  0.16420770021E+02  0.51100000000E-03 0. -1.
        -11    1    3    3    0    0  0.19223351741E+01 -0.10689001530E+02  0.31827272924E+02  0.33629234726E+02  0.51100000000E-03 0.  1.
        -12    1    3    3    0    0  0.89064488785E-01  0.29461993028E+01  0.87698599823E+01  0.92519439538E+01  0.00000000000E+00 0.  1.
</event>
<event>
 7    1  0.7578565E-012  0.5930194E+02  0.7816164E-02  0.1266605E+00
        -11   -1    0    0    0    0  0.00000000000E+00  0.00000000000E+00  0.45593999997E+02  0.45594000000E+02  0.51100000000E-03 0.  1.
         11   -1    0    0    0    0 -0.00000000000E+00 -0.00000000000E+00 -0.45593999997E+02  0.45594000000E+02  0.51100000000E-03 0. -1.
    9900012    2    1    2    0    0 -0.19615318189E+01 -0.19489175338E+02  0.25160390724E+02  0.59301939976E+02  0.49999992611E+02 0.  0.
         12    1    1    2    0    0  0.19615318189E+01  0.19489175338E+02 -0.25160390724E+02  0.31886060024E+02  0.00000000000E+00 0. -1.
         11    1    3    3    0    0 -0.12475882506E+02 -0.18939327958E+02 -0.74233693062E+01  0.23863197605E+02  0.51100000000E-03 0. -1.
        -11    1    3    3    0    0 -0.50009990039E+00 -0.23449172763E+01  0.95148117174E+01  0.98122565815E+01  0.51100000000E-03 0.  1.
         12    1    3    3    0    0  0.11014450588E+02  0.17950698959E+01  0.23068948313E+02  0.25626485790E+02  0.00000000000E+00 0. -1.
</event>
<event>
 7    1  0.7578565E-012  0.5930193E+02  0.7816164E-02  0.1266605E+00
        -11   -1    0    0    0    0  0.00000000000E+00  0.00000000000E+00  0.45593999997E+02  0.45594000000E+02  0.51100000000E-03 0. -1.
         11   -1    0    0    0    0 -0.00000000000E+00 -0.00000000000E+00 -0.45593999997E+02  0.45594000000E+02  0.51100000000E-03 0.  1.
    9900012    2    1    2    0    0 -0.28869418108E+02 -0.10134735206E+02 -0.89758078682E+01  0.59301932722E+02  0.49999979380E+02 0.  0.
         12    1    1    2    0    0  0.28869418108E+02  0.10134735206E+02  0.89758078682E+01  0.31886067278E+02  0.00000000000E+00 0. -1.
         11    1    3    3    0    0 -0.24608772448E+02 -0.60975060676E+01  0.13237250467E+01  0.25387467576E+02  0.51100000000E-03 0. -1.
        -11    1    3    3    0    0 -0.12431543374E+01 -0.10849607771E+01 -0.21697342838E+02  0.21759992166E+02  0.51100000000E-03 0.  1.
         12    1    3    3    0    0 -0.30174913222E+01 -0.29522683614E+01  0.11397809923E+02  0.12154472979E+02  0.00000000000E+00 0. -1.
</event>
<event>
 7    1  0.7578565E-012  0.5930196E+02  0.7816164E-02  0.1266605E+00
        -11   -1    0    0    0    0  0.00000000000E+00  0.00000000000E+00  0.45593999997E+02  0.45594000000E+02  0.51100000000E-03 0.  1.
         11   -1    0    0    0    0 -0.00000000000E+00 -0.00000000000E+00 -0.45593999997E+02  0.45594000000E+02  0.51100000000E-03 0. -1.
    9900012    2    1    2    0    0 -0.87610453575E+01 -0.44940243003E+01  0.30327662717E+02  0.59301963933E+02  0.50000036303E+02 0.  0.
         12    1    1    2    0    0  0.87610453575E+01  0.44940243003E+01 -0.30327662717E+02  0.31886036067E+02  0.00000000000E+00 0. -1.
         11    1    3    3    0    0 -0.19461437928E+02 -0.11226362932E+02  0.90144284582E+01  0.24208236441E+02  0.51100000000E-03 0. -1.
        -11    1    3    3    0    0  0.23923640749E+00 -0.18704562572E+01  0.21466054641E+02  0.21548720212E+02  0.51100000000E-03 0.  1.
         12    1    3    3    0    0  0.10461156163E+02  0.86027948887E+01 -0.15282038186E+00  0.13545007280E+02  0.00000000000E+00 0. -1.
</event>
<event>
 7    1  0.7578565E-012  0.5930192E+02  0.7816164E-02  0.1266605E+00
        -11   -1    0    0    0    0  0.00000000000E+00  0.00000000000E+00  0.45593999997E+02  0.45594000000E+02  0.51100000000E-03 0.  1.
         11   -1    0    0    0    0 -0.00000000000E+00 -0.00000000000E+00 -0.45593999997E+02  0.45594000000E+02  0.51100000000E-03 0. -1.
    9900012    2    1    2    0    0 -0.19238415611E+01  0.31630546422E+02 -0.35396911920E+01  0.59301920795E+02  0.49999957629E+02 0.  0.
         12    1    1    2    0    0  0.19238415611E+01 -0.31630546422E+02  0.35396911920E+01  0.31886079205E+02  0.00000000000E+00 0. -1.
         11    1    3    3    0    0 -0.47855858099E+01 -0.75774681961E+01  0.71049184648E+01  0.11436770631E+02  0.51100000000E-03 0. -1.
        -11    1    3    3    0    0 -0.16762300953E+01  0.32136279589E+02  0.24863754860E+01  0.32275877625E+02  0.51100000000E-03 0.  1.
         12    1    3    3    0    0  0.45379743441E+01  0.70717350292E+01 -0.13130985143E+02  0.15589272539E+02  0.00000000000E+00 0. -1.
</event>
<event>
 7    1  0.7578565E-012  0.5930194E+02  0.7816164E-02  0.1266605E+00
        -11   -1    0    0    0    0  0.00000000000E+00  0.00000000000E+00  0.45593999997E+02  0.45594000000E+02  0.51100000000E-03 0.  1.
         11   -1    0    0    0    0 -0.00000000000E+00 -0.00000000000E+00 -0.45593999997E+02  0.45594000000E+02  0.51100000000E-03 0. -1.
    9900012    2    1    2    0    0 -0.20505827576E+02 -0.69593499928E+01  0.23405109818E+02  0.59301942192E+02  0.49999996653E+02 0.  0.
         12    1    1    2    0    0  0.20505827576E+02  0.69593499928E+01 -0.23405109818E+02  0.31886057808E+02  0.00000000000E+00 0. -1.
         11    1    3    3    0    0 -0.13779467585E+02  0.23350564475E+01 -0.45233473173E+01  0.14689686407E+02  0.51100000000E-03 0. -1.
        -11    1    3    3    0    0  0.10381802209E+02 -0.13593792977E+02  0.14868771187E+02  0.22663922465E+02  0.51100000000E-03 0.  1.
        -12    1    3    3    0    0 -0.17108162201E+02  0.42993865371E+01  0.13059685948E+02  0.21948333321E+02  0.00000000000E+00 0.  1.
</event>
<event>
 7    1  0.7578565E-012  0.5930192E+02  0.7816164E-02  0.1266605E+00
        -11   -1    0    0    0    0  0.00000000000E+00  0.00000000000E+00  0.45593999997E+02  0.45594000000E+02  0.51100000000E-03 0.  1.
         11   -1    0    0    0    0 -0.00000000000E+00 -0.00000000000E+00 -0.45593999997E+02  0.45594000000E+02  0.51100000000E-03 0. -1.
    9900012    2    1    2    0    0 -0.27446896471E+02  0.15601987325E+02  0.44685312599E+01  0.59301923007E+02  0.49999961663E+02 0.  0.
         12    1    1    2    0    0  0.27446896471E+02 -0.15601987325E+02 -0.44685312599E+01  0.31886076993E+02  0.00000000000E+00 0. -1.
         11    1    3    3    0    0 -0.20704467194E+02  0.25351271815E+02 -0.95688770343E+01  0.34101691342E+02  0.51100000000E-03 0. -1.
        -11    1    3    3    0    0 -0.89351599268E+01  0.46616722369E+00  0.11273740764E+02  0.14392762968E+02  0.51100000000E-03 0.  1.
         12    1    3    3    0    0  0.21927306496E+01 -0.10215451714E+02  0.27636675306E+01  0.10807468697E+02  0.00000000000E+00 0. -1.
</event>
<event>
 7    1  0.7578565E-012  0.5930185E+02  0.7816164E-02  0.1266605E+00
        -11   -1    0    0    0    0  0.00000000000E+00  0.00000000000E+00  0.45593999997E+02  0.45594000000E+02  0.51100000000E-03 0. -1.
         11   -1    0    0    0    0 -0.00000000000E+00 -0.00000000000E+00 -0.45593999997E+02  0.45594000000E+02  0.51100000000E-03 0.  1.
    9900012    2    1    2    0    0 -0.85648757618E+01 -0.19750326821E+02 -0.23522198446E+02  0.59301853696E+02  0.49999835257E+02 0.  0.
         12    1    1    2    0    0  0.85648757618E+01  0.19750326821E+02  0.23522198446E+02  0.31886146304E+02  0.00000000000E+00 0. -1.
         11    1    3    3    0    0  0.10899633000E+01 -0.18155614409E+02 -0.39583887174E+01  0.18614059097E+02  0.51100000000E-03 0. -1.
        -11    1    3    3    0    0  0.25294576272E+01  0.13958887607E+02 -0.21440163957E+01  0.14347317020E+02  0.51100000000E-03 0.  1.
        -12    1    3    3    0    0 -0.12184296689E+02 -0.15553600019E+02 -0.17419793333E+02  0.26340477580E+02  0.00000000000E+00 0.  1.
</event>
<event>
 7    1  0.7578565E-012  0.5930193E+02  0.7816164E-02  0.1266605E+00
        -11   -1    0    0    0    0  0.00000000000E+00  0.00000000000E+00  0.45593999997E+02  0.45594000000E+02  0.51100000000E-03 0.  1.
         11   -1    0    0    0    0 -0.00000000000E+00 -0.00000000000E+00 -0.45593999997E+02  0.45594000000E+02  0.51100000000E-03 0. -1.
    9900012    2    1    2    0    0  0.10584063313E+02 -0.29939294919E+02  0.28874971840E+01  0.59301930684E+02  0.49999975663E+02 0.  0.
         12    1    1    2    0    0 -0.10584063313E+02  0.29939294919E+02 -0.28874971840E+01  0.31886069316E+02  0.00000000000E+00 0. -1.
         11    1    3    3    0    0  0.24243677864E+02 -0.70544582462E+01 -0.12506433886E+02  0.28176802273E+02  0.51100000000E-03 0. -1.
        -11    1    3    3    0    0 -0.49893509807E+01 -0.82670984382E+01  0.82063833696E+01  0.12672145362E+02  0.51100000000E-03 0.  1.
         12    1    3    3    0    0 -0.86702635702E+01 -0.14617738235E+02  0.71875477002E+01  0.18452983049E+02  0.00000000000E+00 0. -1.
</event>
<event>
 7    1  0.7578565E-012  0.5930197E+02  0.7816164E-02  0.1266605E+00
        -11   -1    0    0    0    0  0.00000000000E+00  0.00000000000E+00  0.45593999997E+02  0.45594000000E+02  0.51100000000E-03 0.  1.
         11   -1    0    0    0    0 -0.00000000000E+00 -0.00000000000E+00 -0.45593999997E+02  0.45594000000E+02  0.51100000000E-03 0. -1.
    9900012    2    1    2    0    0  0.12156169916E+02 -0.28387942719E+02  0.79417388167E+01  0.59301968979E+02  0.50000045506E+02 0.  0.
         12    1    1    2    0    0 -0.12156169916E+02  0.28387942719E+02 -0.79417388167E+01  0.31886031021E+02  0.00000000000E+00 0. -1.
         11    1    3    3    0    0 -0.53443232316E+00 -0.38010407546E+02 -0.20899711901E+01  0.38071573116E+02  0.51100000000E-03 0. -1.
        -11    1    3    3    0    0  0.94544488348E+01  0.56906009286E+01  0.12852931720E+01  0.11109523865E+02  0.51100000000E-03 0.  1.
         12    1    3    3    0    0  0.32361534039E+01  0.39318638981E+01  0.87464168348E+01  0.10120871999E+02  0.00000000000E+00 0. -1.
</event>
<event>
 7    1  0.7578565E-012  0.5930194E+02  0.7816164E-02  0.1266605E+00
        -11   -1    0    0    0    0  0.00000000000E+00  0.00000000000E+00  0.45593999997E+02  0.45594000000E+02  0.51100000000E-03 0.  1.
         11   -1    0    0    0    0 -0.00000000000E+00 -0.00000000000E+00 -0.45593999997E+02  0.45594000000E+02  0.51100000000E-03 0. -1.
    9900012    2    1    2    0    0  0.25154320726E+02  0.44685105747E+01  0.19079129222E+02  0.59301943332E+02  0.49999998732E+02 0.  0.
         12    1    1    2    0    0 -0.25154320726E+02 -0.44685105747E+01 -0.19079129222E+02  0.31886056668E+02  0.00000000000E+00 0. -1.
         11    1    3    3    0    0  0.11283000708E+02 -0.57085060287E+01  0.27611008301E+00  0.12647900343E+02  0.51100000000E-03 0. -1.
        -11    1    3    3    0    0 -0.12215109586E+02 -0.24193398447E+01  0.65331962833E+00  0.12469520211E+02  0.51100000000E-03 0.  1.
        -12    1    3    3    0    0  0.26086429604E+02  0.12596356448E+02  0.18149699511E+02  0.34184522779E+02  0.00000000000E+00 0.  1.
</event>
<event>
 7    1  0.7578565E-012  0.5930208E+02  0.7816164E-02  0.1266604E+00
        -11   -1    0    0    0    0  0.00000000000E+00  0.00000000000E+00  0.45593999997E+02  0.45594000000E+02  0.51100000000E-03 0.  1.
         11   -1    0    0    0    0 -0.00000000000E+00 -0.00000000000E+00 -0.45593999997E+02  0.45594000000E+02  0.51100000000E-03 0. -1.
    9900012    2    1    2    0    0  0.75273842761E+01 -0.29738877278E+02  0.86976897177E+01  0.59302076112E+02  0.50000240889E+02 0.  0.
         12    1    1    2    0    0 -0.75273842761E+01  0.29738877278E+02 -0.86976897177E+01  0.31885923888E+02  0.00000000000E+00 0. -1.
         11    1    3    3    0    0  0.13052917437E+01  0.19364929050E+01  0.18598380467E+02  0.18744427107E+02  0.51100000000E-03 0. -1.
        -11    1    3    3    0    0 -0.13251952033E+01 -0.23681525167E+02 -0.15385512893E+02  0.28271625065E+02  0.51100000000E-03 0.  1.
        -12    1    3    3    0    0  0.75472877357E+01 -0.79938450160E+01  0.54848221433E+01  0.12286023940E+02  0.00000000000E+00 0.  1.
</event>
<event>
 7    1  0.7578565E-012  0.5930195E+02  0.7816164E-02  0.1266605E+00
        -11   -1    0    0    0    0  0.00000000000E+00  0.00000000000E+00  0.45593999997E+02  0.45594000000E+02  0.51100000000E-03 0. -1.
         11   -1    0    0    0    0 -0.00000000000E+00 -0.00000000000E+00 -0.45593999997E+02  0.45594000000E+02  0.51100000000E-03 0.  1.
    9900012    2    1    2    0    0 -0.26272510790E+00  0.61560786247E+01 -0.31285042391E+02  0.59301949665E+02  0.50000010282E+02 0.  0.
         12    1    1    2    0    0  0.26272510790E+00 -0.61560786247E+01  0.31285042391E+02  0.31886050335E+02  0.00000000000E+00 0. -1.
         11    1    3    3    0    0  0.43132512589E+01  0.46371003721E+01 -0.43421493715E+02  0.43880895080E+02  0.51100000000E-03 0.  1.
        -11    1    3    3    0    0 -0.55916691522E+01 -0.19143140806E+01  0.80735812677E+01  0.10005702227E+02  0.51100000000E-03 0. -1.
        -12    1    3    3    0    0  0.10156927855E+01  0.34332923332E+01  0.40628700560E+01  0.54153523590E+01  0.00000000000E+00 0.  1.
</event>
<event>
 7    1  0.7578565E-012  0.5930196E+02  0.7816164E-02  0.1266605E+00
        -11   -1    0    0    0    0  0.00000000000E+00  0.00000000000E+00  0.45593999997E+02  0.45594000000E+02  0.51100000000E-03 0.  1.
         11   -1    0    0    0    0 -0.00000000000E+00 -0.00000000000E+00 -0.45593999997E+02  0.45594000000E+02  0.51100000000E-03 0. -1.
    9900012    2    1    2    0    0  0.11755557401E+02  0.24863580196E+02  0.16134710619E+02  0.59301958591E+02  0.50000026561E+02 0.  0.
         12    1    1    2    0    0 -0.11755557401E+02 -0.24863580196E+02 -0.16134710619E+02  0.31886041409E+02  0.00000000000E+00 0. -1.
         11    1    3    3    0    0  0.34668811830E+01 -0.39594662853E+01  0.23408229080E+02  0.23992536909E+02  0.51100000000E-03 0.  1.
        -11    1    3    3    0    0 -0.94075776704E+00  0.23979180736E+02 -0.36465566589E+01  0.24273102597E+02  0.51100000000E-03 0. -1.
         12    1    3    3    0    0  0.92294339847E+01  0.48438657445E+01 -0.36269618024E+01  0.11036319085E+02  0.00000000000E+00 0. -1.
</event>
<event>
 7    1  0.7578565E-012  0.5930194E+02  0.7816164E-02  0.1266605E+00
        -11   -1    0    0    0    0  0.00000000000E+00  0.00000000000E+00  0.45593999997E+02  0.45594000000E+02  0.51100000000E-03 0.  1.
         11   -1    0    0    0    0 -0.00000000000E+00 -0.00000000000E+00 -0.45593999997E+02  0.45594000000E+02  0.51100000000E-03 0. -1.
    9900012    2    1    2    0    0  0.79261038072E+01 -0.19846585964E+02  0.23664549207E+02  0.59301937447E+02  0.49999987998E+02 0.  0.
         12    1    1    2    0    0 -0.79261038072E+01  0.19846585964E+02 -0.23664549207E+02  0.31886062553E+02  0.00000000000E+00 0. -1.
         11    1    3    3    0    0  0.10762449213E+02  0.99464734520E+01  0.63959499872E+01  0.15989709931E+02  0.51100000000E-03 0. -1.
        -11    1    3    3    0    0 -0.14137070100E+02 -0.13433480239E+02  0.11362553406E+02  0.22570395711E+02  0.51100000000E-03 0.  1.
         12    1    3    3    0    0  0.11300724695E+02 -0.16359579177E+02  0.59060458136E+01  0.20741831805E+02  0.00000000000E+00 0. -1.
</event>
<event>
 7    1  0.7578565E-012  0.5930193E+02  0.7816164E-02  0.1266605E+00
        -11   -1    0    0    0    0  0.00000000000E+00  0.00000000000E+00  0.45593999997E+02  0.45594000000E+02  0.51100000000E-03 0. -1.
         11   -1    0    0    0    0 -0.00000000000E+00 -0.00000000000E+00 -0.45593999997E+02  0.45594000000E+02  0.51100000000E-03 0.  1.
    9900012    2    1    2    0    0  0.19173194249E+01 -0.30533544541E+02 -0.89859885929E+01  0.59301930205E+02  0.49999974790E+02 0.  0.
         12    1    1    2    0    0 -0.19173194249E+01  0.30533544541E+02  0.89859885929E+01  0.31886069795E+02  0.00000000000E+00 0. -1.
         11    1    3    3    0    0  0.78334647786E+01 -0.62849237180E+01  0.16255072733E+02  0.19107350062E+02  0.51100000000E-03 0. -1.
        -11    1    3    3    0    0 -0.76027503478E+01 -0.23335411307E+02 -0.12940266667E+02  0.27745156972E+02  0.51100000000E-03 0.  1.
         12    1    3    3    0    0  0.16866049941E+01 -0.91320951541E+00 -0.12300794659E+02  0.12449423170E+02  0.00000000000E+00 0. -1.
</event>
<event>
 7    1  0.7578565E-012  0.5930194E+02  0.7816164E-02  0.1266605E+00
        -11   -1    0    0    0    0  0.00000000000E+00  0.00000000000E+00  0.45593999997E+02  0.45594000000E+02  0.51100000000E-03 0. -1.
         11   -1    0    0    0    0 -0.00000000000E+00 -0.00000000000E+00 -0.45593999997E+02  0.45594000000E+02  0.51100000000E-03 0.  1.
    9900012    2    1    2    0    0 -0.29004246142E+02 -0.39824960406E+01 -0.12633843203E+02  0.59301944066E+02  0.50000000069E+02 0.  0.
         12    1    1    2    0    0  0.29004246142E+02  0.39824960406E+01  0.12633843203E+02  0.31886055934E+02  0.00000000000E+00 0. -1.
         11    1    3    3    0    0 -0.30517049732E+02  0.79675904812E+01 -0.72788294337E+01  0.32369031197E+02  0.51100000000E-03 0. -1.
        -11    1    3    3    0    0  0.81837292881E+01 -0.15231822327E+01 -0.10609670665E+02  0.13485496693E+02  0.51100000000E-03 0.  1.
         12    1    3    3    0    0 -0.66709256977E+01 -0.10426904289E+02  0.52546568957E+01  0.13447416176E+02  0.00000000000E+00 0. -1.
</event>
<event>
 7    1  0.7578565E-012  0.5930195E+02  0.7816164E-02  0.1266605E+00
        -11   -1    0    0    0    0  0.00000000000E+00  0.00000000000E+00  0.45593999997E+02  0.45594000000E+02  0.51100000000E-03 0. -1.
         11   -1    0    0    0    0 -0.00000000000E+00 -0.00000000000E+00 -0.45593999997E+02  0.45594000000E+02  0.51100000000E-03 0.  1.
    9900012    2    1    2    0    0  0.27059847880E+02  0.12468957902E+02 -0.11358248742E+02  0.59301951437E+02  0.50000013513E+02 0.  0.
         12    1    1    2    0    0 -0.27059847880E+02 -0.12468957902E+02  0.11358248742E+02  0.31886048563E+02  0.00000000000E+00 0. -1.
         11    1    3    3    0    0  0.56745932928E+01 -0.10341625704E+02 -0.42070524229E+01  0.12523957905E+02  0.51100000000E-03 0. -1.
        -11    1    3    3    0    0  0.42439940409E+01  0.15342654597E+02 -0.18888443005E+02  0.24701858532E+02  0.51100000000E-03 0.  1.
        -12    1    3    3    0    0  0.17141260547E+02  0.74679290087E+01  0.11737246686E+02  0.22076135001E+02  0.00000000000E+00 0.  1.
</event>
<event>
 7    1  0.7578565E-012  0.5930192E+02  0.7816164E-02  0.1266605E+00
        -11   -1    0    0    0    0  0.00000000000E+00  0.00000000000E+00  0.45593999997E+02  0.45594000000E+02  0.51100000000E-03 0.  1.
         11   -1    0    0    0    0 -0.00000000000E+00 -0.00000000000E+00 -0.45593999997E+02  0.45594000000E+02  0.51100000000E-03 0. -1.
    9900012    2    1    2    0    0  0.18729443434E+02  0.11466912806E+02 -0.23117962762E+02  0.59301916156E+02  0.49999949169E+02 0.  0.
         12    1    1    2    0    0 -0.18729443434E+02 -0.11466912806E+02  0.23117962762E+02  0.31886083844E+02  0.00000000000E+00 0. -1.
         11    1    3    3    0    0 -0.56803466998E+01  0.42049773897E+01 -0.88034757518E+01  0.11289347149E+02  0.51100000000E-03 0. -1.
        -11    1    3    3    0    0  0.32796586644E+02  0.13405746602E+02 -0.11256161732E+02  0.37175681764E+02  0.51100000000E-03 0.  1.
        -12    1    3    3    0    0 -0.83867965102E+01 -0.61438111865E+01 -0.30583252787E+01  0.10836887243E+02  0.00000000000E+00 0.  1.
</event>
<event>
 7    1  0.7578565E-012  0.5930206E+02  0.7816164E-02  0.1266604E+00
        -11   -1    0    0    0    0  0.00000000000E+00  0.00000000000E+00  0.45593999997E+02  0.45594000000E+02  0.51100000000E-03 0.  1.
         11   -1    0    0    0    0 -0.00000000000E+00 -0.00000000000E+00 -0.45593999997E+02  0.45594000000E+02  0.51100000000E-03 0. -1.
    9900012    2    1    2    0    0 -0.26184916697E+02 -0.13980127631E+02  0.11645570588E+02  0.59302060382E+02  0.50000212202E+02 0.  0.
         12    1    1    2    0    0  0.26184916697E+02  0.13980127631E+02 -0.11645570588E+02  0.31885939618E+02  0.00000000000E+00 0. -1.
         11    1    3    3    0    0 -0.17851338139E+02  0.19226414867E+01  0.86559271064E+01  0.19932182468E+02  0.51100000000E-03 0. -1.
        -11    1    3    3    0    0 -0.27505775253E+01 -0.25952594637E+02  0.72874858570E+01  0.27096315164E+02  0.51100000000E-03 0.  1.
        -12    1    3    3    0    0 -0.55830010327E+01  0.10049825518E+02 -0.42978423756E+01  0.12273562750E+02  0.00000000000E+00 0.  1.
</event>
<event>
 7    1  0.7578565E-012  0.5930196E+02  0.7816164E-02  0.1266605E+00
        -11   -1    0    0    0    0  0.00000000000E+00  0.00000000000E+00  0.45593999997E+02  0.45594000000E+02  0.51100000000E-03 0. -1.
         11   -1    0    0    0    0 -0.00000000000E+00 -0.00000000000E+00 -0.45593999997E+02  0.45594000000E+02  0.51100000000E-03 0.  1.
    9900012    2    1    2    0    0  0.17508191783E+02  0.99921879395E+01 -0.24705045335E+02  0.59301955022E+02  0.50000020050E+02 0.  0.
         12    1    1    2    0    0 -0.17508191783E+02 -0.99921879395E+01  0.24705045335E+02  0.31886044978E+02  0.00000000000E+00 0. -1.
         11    1    3    3    0    0 -0.40146812565E+01  0.67419083836E+01  0.84482529501E+01  0.11530133235E+02  0.51100000000E-03 0. -1.
        -11    1    3    3    0    0  0.66663913642E+01  0.99910968036E+01 -0.28312062625E+02  0.30754441622E+02  0.51100000000E-03 0.  1.
        -12    1    3    3    0    0  0.14856481676E+02 -0.67408172477E+01 -0.48412356605E+01  0.17017380164E+02  0.00000000000E+00 0.  1.
</event>
<event>
 7    1  0.7578565E-012  0.5930195E+02  0.7816164E-02  0.1266605E+00
        -11   -1    0    0    0    0  0.00000000000E+00  0.00000000000E+00  0.45593999997E+02  0.45594000000E+02  0.51100000000E-03 0. -1.
         11   -1    0    0    0    0 -0.00000000000E+00 -0.00000000000E+00 -0.45593999997E+02  0.45594000000E+02  0.51100000000E-03 0.  1.
    9900012    2    1    2    0    0  0.22781155615E+02  0.13320974699E+01 -0.22270257018E+02  0.59301954738E+02  0.50000019532E+02 0.  0.
         12    1    1    2    0    0 -0.22781155615E+02 -0.13320974699E+01  0.22270257018E+02  0.31886045262E+02  0.00000000000E+00 0. -1.
         11    1    3    3    0    0  0.17831670750E+02  0.15386719252E+02 -0.36033861771E+01  0.23826539893E+02  0.51100000000E-03 0. -1.
        -11    1    3    3    0    0  0.20563809574E+01  0.12411038069E+01 -0.19726760204E+02  0.19872445992E+02  0.51100000000E-03 0.  1.
         12    1    3    3    0    0  0.28931039079E+01 -0.15295725589E+02  0.10598893637E+01  0.15602968852E+02  0.00000000000E+00 0. -1.
</event>
<event>
 7    1  0.7578565E-012  0.5930193E+02  0.7816164E-02  0.1266605E+00
        -11   -1    0    0    0    0  0.00000000000E+00  0.00000000000E+00  0.45593999997E+02  0.45594000000E+02  0.51100000000E-03 0.  1.
         11   -1    0    0    0    0 -0.00000000000E+00 -0.00000000000E+00 -0.45593999997E+02  0.45594000000E+02  0.51100000000E-03 0. -1.
    9900012    2    1    2    0    0 -0.17399268924E+02 -0.11567782967E+02  0.24086785193E+02  0.59301931211E+02  0.49999976626E+02 0.  0.
         12    1    1    2    0    0  0.17399268924E+02  0.11567782967E+02 -0.24086785193E+02  0.31886068789E+02  0.00000000000E+00 0. -1.
         11    1    3    3    0    0 -0.15770372343E+02  0.68837549268E+01  0.13139762094E+02  0.21650498236E+02  0.51100000000E-03 0. -1.
        -11    1    3    3    0    0  0.10242617730E+02 -0.20499755123E+02  0.11401800572E+02  0.25595941761E+02  0.51100000000E-03 0.  1.
        -12    1    3    3    0    0 -0.11871514311E+02  0.20482172292E+01 -0.45477747310E+00  0.12055491214E+02  0.00000000000E+00 0.  1.
</event>
<event>
 7    1  0.7578565E-012  0.5930194E+02  0.7816164E-02  0.1266605E+00
        -11   -1    0    0    0    0  0.00000000000E+00  0.00000000000E+00  0.45593999997E+02  0.45594000000E+02  0.51100000000E-03 0. -1.
         11   -1    0    0    0    0 -0.00000000000E+00 -0.00000000000E+00 -0.45593999997E+02  0.45594000000E+02  0.51100000000E-03 0.  1.
    9900012    2    1    2    0    0  0.99652460223E+00  0.20394276808E+02 -0.24490839904E+02  0.59301939926E+02  0.49999992520E+02 0.  0.
         12    1    1    2    0    0 -0.99652460223E+00 -0.20394276808E+02  0.24490839904E+02  0.31886060074E+02  0.00000000000E+00 0. -1.
         11    1    3    3    0    0  0.37516442176E+01  0.23115293985E+02 -0.10472815431E+02  0.25652904585E+02  0.51100000000E-03 0. -1.
        -11    1    3    3    0    0  0.59565503138E+01 -0.12782548803E+02 -0.14637611680E+02  0.20325691169E+02  0.51100000000E-03 0.  1.
        -12    1    3    3    0    0 -0.87116699292E+01  0.10061531626E+02  0.61958720718E+00  0.13323344172E+02  0.00000000000E+00 0.  1.
</event>
<event>
 7    1  0.7578565E-012  0.5930195E+02  0.7816164E-02  0.1266605E+00
        -11   -1    0    0    0    0  0.00000000000E+00  0.00000000000E+00  0.45593999997E+02  0.45594000000E+02  0.51100000000E-03 0. -1.
         11   -1    0    0    0    0 -0.00000000000E+00 -0.00000000000E+00 -0.45593999997E+02  0.45594000000E+02  0.51100000000E-03 0.  1.
    9900012    2    1    2    0    0  0.16162778932E+02 -0.19514909746E+01 -0.27416720426E+02  0.59301948210E+02  0.50000007628E+02 0.  0.
         12    1    1    2    0    0 -0.16162778932E+02  0.19514909746E+01  0.27416720426E+02  0.31886051790E+02  0.00000000000E+00 0. -1.
         11    1    3    3    0    0 -0.14964690746E+02 -0.10619762085E+01 -0.60501170850E+01  0.16176330845E+02  0.51100000000E-03 0. -1.
        -11    1    3    3    0    0  0.21012594762E+02 -0.63658191792E+01 -0.40332566135E+01  0.22323081140E+02  0.51100000000E-03 0.  1.
        -12    1    3    3    0    0  0.10114874917E+02  0.54763044130E+01 -0.17333346727E+02  0.20802536225E+02  0.00000000000E+00 0.  1.
</event>
<event>
 7    1  0.7578565E-012  0.5930192E+02  0.7816164E-02  0.1266605E+00
        -11   -1    0    0    0    0  0.00000000000E+00  0.00000000000E+00  0.45593999997E+02  0.45594000000E+02  0.51100000000E-03 0.  1.
         11   -1    0    0    0    0 -0.00000000000E+00 -0.00000000000E+00 -0.45593999997E+02  0.45594000000E+02  0.51100000000E-03 0. -1.
    9900012    2    1    2    0    0 -0.18255237874E+02 -0.19050603551E+01  0.26073730453E+02  0.59301915504E+02  0.49999947979E+02 0.  0.
         12    1    1    2    0    0  0.18255237874E+02  0.19050603551E+01 -0.26073730453E+02  0.31886084496E+02  0.00000000000E+00 0. -1.
         11    1    3    3    0    0  0.10824851400E+02  0.11633838782E+02  0.55882824853E+00  0.15900814504E+02  0.51100000000E-03 0. -1.
        -11    1    3    3    0    0 -0.68331800215E+01 -0.23689882868E+00  0.12841566100E+02  0.14548343219E+02  0.51100000000E-03 0.  1.
         12    1    3    3    0    0 -0.22246909253E+02 -0.13302000308E+02  0.12673336104E+02  0.28852757780E+02  0.00000000000E+00 0. -1.
</event>
<event>
 7    1  0.7578565E-012  0.5930193E+02  0.7816164E-02  0.1266605E+00
        -11   -1    0    0    0    0  0.00000000000E+00  0.00000000000E+00  0.45593999997E+02  0.45594000000E+02  0.51100000000E-03 0. -1.
         11   -1    0    0    0    0 -0.00000000000E+00 -0.00000000000E+00 -0.45593999997E+02  0.45594000000E+02  0.51100000000E-03 0.  1.
    9900012    2    1    2    0    0 -0.29471151027E+02  0.37429670736E+00 -0.12166871317E+02  0.59301927829E+02  0.49999970457E+02 0.  0.
         12    1    1    2    0    0  0.29471151027E+02 -0.37429670736E+00  0.12166871317E+02  0.31886072171E+02  0.00000000000E+00 0. -1.
         11    1    3    3    0    0  0.72224772884E+01 -0.11521711901E+02 -0.29227483792E+00  0.13601450222E+02  0.51100000000E-03 0. -1.
        -11    1    3    3    0    0 -0.21509270613E+02  0.53102939119E+01  0.42886657642E+01  0.22566359876E+02  0.51100000000E-03 0.  1.
         12    1    3    3    0    0 -0.15184357702E+02  0.65857146961E+01 -0.16163262243E+02  0.23134117731E+02  0.00000000000E+00 0. -1.
</event>
<event>
 7    1  0.7578565E-012  0.5930192E+02  0.7816164E-02  0.1266605E+00
        -11   -1    0    0    0    0  0.00000000000E+00  0.00000000000E+00  0.45593999997E+02  0.45594000000E+02  0.51100000000E-03 0. -1.
         11   -1    0    0    0    0 -0.00000000000E+00 -0.00000000000E+00 -0.45593999997E+02  0.45594000000E+02  0.51100000000E-03 0.  1.
    9900012    2    1    2    0    0 -0.31626119348E+02  0.34576462509E+01  0.21343046016E+01  0.59301921552E+02  0.49999959010E+02 0.  0.
         12    1    1    2    0    0  0.31626119348E+02 -0.34576462509E+01 -0.21343046016E+01  0.31886078448E+02  0.00000000000E+00 0. -1.
         11    1    3    3    0    0 -0.15306419563E+02  0.20068479455E+02 -0.58044364445E+00  0.25246133616E+02  0.51100000000E-03 0. -1.
        -11    1    3    3    0    0 -0.10091508295E+02 -0.22776323615E+02  0.38894779911E+01  0.25213637111E+02  0.51100000000E-03 0.  1.
        -12    1    3    3    0    0 -0.62281914899E+01  0.61654904102E+01 -0.11747297450E+01  0.88421508247E+01  0.00000000000E+00 0.  1.
</event>
<event>
 7    1  0.7578565E-012  0.5930196E+02  0.7816164E-02  0.1266605E+00
        -11   -1    0    0    0    0  0.00000000000E+00  0.00000000000E+00  0.45593999997E+02  0.45594000000E+02  0.51100000000E-03 0.  1.
         11   -1    0    0    0    0 -0.00000000000E+00 -0.00000000000E+00 -0.45593999997E+02  0.45594000000E+02  0.51100000000E-03 0. -1.
    9900012    2    1    2    0    0  0.23189954534E+02  0.20751291787E+02  0.69519573258E+01  0.59301955831E+02  0.50000021526E+02 0.  0.
         12    1    1    2    0    0 -0.23189954534E+02 -0.20751291787E+02 -0.69519573258E+01  0.31886044169E+02  0.00000000000E+00 0. -1.
         11    1    3    3    0    0  0.18661720797E+02  0.75126712748E+01 -0.14718610402E+02  0.24926643281E+02  0.51100000000E-03 0. -1.
        -11    1    3    3    0    0 -0.70329326437E+01 -0.83600455530E+00  0.11521930927E+02  0.13524641871E+02  0.51100000000E-03 0.  1.
         12    1    3    3    0    0  0.11561166381E+02  0.14074625067E+02  0.10148636801E+02  0.20850670679E+02  0.00000000000E+00 0. -1.
</event>
<event>
 7    1  0.7578565E-012  0.5930196E+02  0.7816164E-02  0.1266605E+00
        -11   -1    0    0    0    0  0.00000000000E+00  0.00000000000E+00  0.45593999997E+02  0.45594000000E+02  0.51100000000E-03 0. -1.
         11   -1    0    0    0    0 -0.00000000000E+00 -0.00000000000E+00 -0.45593999997E+02  0.45594000000E+02  0.51100000000E-03 0.  1.
    9900012    2    1    2    0    0  0.97276142666E+01 -0.30012760449E+02 -0.46181417833E+01  0.59301960694E+02  0.50000030395E+02 0.  0.
         12    1    1    2    0    0 -0.97276142666E+01  0.30012760449E+02  0.46181417833E+01  0.31886039306E+02  0.00000000000E+00 0. -1.
         11    1    3    3    0    0 -0.11739670925E+02 -0.37117104160E+01  0.10694884776E+02  0.16308808304E+02  0.51100000000E-03 0. -1.
        -11    1    3    3    0    0  0.20457909359E+02 -0.18085910134E+02 -0.19656998756E+02  0.33645561387E+02  0.51100000000E-03 0.  1.
        -12    1    3    3    0    0  0.10093758332E+01 -0.82151398986E+01  0.43439721959E+01  0.93475910033E+01  0.00000000000E+00 0.  1.
</event>
<event>
 7    1  0.7578565E-012  0.5930193E+02  0.7816164E-02  0.1266605E+00
        -11   -1    0    0    0    0  0.00000000000E+00  0.00000000000E+00  0.45593999997E+02  0.45594000000E+02  0.51100000000E-03 0.  1.
         11   -1    0    0    0    0 -0.00000000000E+00 -0.00000000000E+00 -0.45593999997E+02  0.45594000000E+02  0.51100000000E-03 0. -1.
    9900012    2    1    2    0    0  0.17787416437E+02 -0.17766199879E+02  0.19613551658E+02  0.59301930154E+02  0.49999974697E+02 0.  0.
         12    1    1    2    0    0 -0.17787416437E+02  0.17766199879E+02 -0.19613551658E+02  0.31886069846E+02  0.00000000000E+00 0. -1.
         11    1    3    3    0    0  0.85709773496E+00 -0.23180515447E+01 -0.31359065080E+01  0.39927295650E+01  0.51100000000E-03 0. -1.
        -11    1    3    3    0    0  0.30797804348E+02 -0.18422913153E+02  0.13329312977E+02  0.38282882159E+02  0.51100000000E-03 0.  1.
        -12    1    3    3    0    0 -0.13867485647E+02  0.29747648193E+01  0.94201451885E+01  0.17026318429E+02  0.00000000000E+00 0.  1.
</event>
<event>
 7    1  0.7578565E-012  0.5930199E+02  0.7816164E-02  0.1266605E+00
        -11   -1    0    0    0    0  0.00000000000E+00  0.00000000000E+00  0.45593999997E+02  0.45594000000E+02  0.51100000000E-03 0. -1.
         11   -1    0    0    0    0 -0.00000000000E+00 -0.00000000000E+00 -0.45593999997E+02  0.45594000000E+02  0.51100000000E-03 0.  1.
    9900012    2    1    2    0    0  0.77888463921E+01  0.30016516881E+02 -0.74202707100E+01  0.59301986903E+02  0.50000078194E+02 0.  0.
         12    1    1    2    0    0 -0.77888463921E+01 -0.30016516881E+02  0.74202707100E+01  0.31886013097E+02  0.00000000000E+00 0. -1.
         11    1    3    3    0    0  0.31505651129E+00  0.23288846872E+02  0.17284220764E+02  0.29003688333E+02  0.51100000000E-03 0. -1.
        -11    1    3    3    0    0 -0.39466893784E+01  0.17408605182E+01 -0.10784086101E+02  0.11614795121E+02  0.51100000000E-03 0.  1.
         12    1    3    3    0    0  0.11420479259E+02  0.49868094907E+01 -0.13920405372E+02  0.18683503449E+02  0.00000000000E+00 0. -1.
</event>
<event>
 7    1  0.7578565E-012  0.5930183E+02  0.7816164E-02  0.1266605E+00
        -11   -1    0    0    0    0  0.00000000000E+00  0.00000000000E+00  0.45593999997E+02  0.45594000000E+02  0.51100000000E-03 0. -1.
         11   -1    0    0    0    0 -0.00000000000E+00 -0.00000000000E+00 -0.45593999997E+02  0.45594000000E+02  0.51100000000E-03 0.  1.
    9900012    2    1    2    0    0  0.21059286719E+02 -0.10825046386E+02 -0.21355391602E+02  0.59301828438E+02  0.49999789192E+02 0.  0.
         12    1    1    2    0    0 -0.21059286719E+02  0.10825046386E+02  0.21355391602E+02  0.31886171562E+02  0.00000000000E+00 0. -1.
         11    1    3    3    0    0  0.18291357983E+02 -0.14526732706E+02  0.27790584090E+01  0.23522816708E+02  0.51100000000E-03 0. -1.
        -11    1    3    3    0    0  0.11612886759E+02 -0.39113538230E+01 -0.19888588105E+02  0.23360517218E+02  0.51100000000E-03 0.  1.
         12    1    3    3    0    0 -0.88449580228E+01  0.76130401427E+01 -0.42458619066E+01  0.12418494513E+02  0.00000000000E+00 0. -1.
</event>
<event>
 7    1  0.7578565E-012  0.5930195E+02  0.7816164E-02  0.1266605E+00
        -11   -1    0    0    0    0  0.00000000000E+00  0.00000000000E+00  0.45593999997E+02  0.45594000000E+02  0.51100000000E-03 0. -1.
         11   -1    0    0    0    0 -0.00000000000E+00 -0.00000000000E+00 -0.45593999997E+02  0.45594000000E+02  0.51100000000E-03 0.  1.
    9900012    2    1    2    0    0 -0.89120288419E+01  0.22771767649E+01 -0.30530486631E+02  0.59301946528E+02  0.50000004560E+02 0.  0.
         12    1    1    2    0    0  0.89120288419E+01 -0.22771767649E+01  0.30530486631E+02  0.31886053472E+02  0.00000000000E+00 0. -1.
         11    1    3    3    0    0 -0.54306847180E+01  0.16238748381E+02  0.14286424249E+01  0.17182267165E+02  0.51100000000E-03 0. -1.
        -11    1    3    3    0    0  0.23955157671E+01 -0.16036867020E+02 -0.32014849231E+02  0.35886908075E+02  0.51100000000E-03 0.  1.
         12    1    3    3    0    0 -0.58768598910E+01  0.20752954038E+01  0.55720175597E-01  0.62327712881E+01  0.00000000000E+00 0. -1.
</event>
<event>
 7    1  0.7578565E-012  0.5930195E+02  0.7816164E-02  0.1266605E+00
        -11   -1    0    0    0    0  0.00000000000E+00  0.00000000000E+00  0.45593999997E+02  0.45594000000E+02  0.51100000000E-03 0. -1.
         11   -1    0    0    0    0 -0.00000000000E+00 -0.00000000000E+00 -0.45593999997E+02  0.45594000000E+02  0.51100000000E-03 0.  1.
    9900012    2    1    2    0    0 -0.16739536673E+02 -0.93143730032E+01 -0.25490209812E+02  0.59301946172E+02  0.50000003911E+02 0.  0.
         12    1    1    2    0    0  0.16739536673E+02  0.93143730032E+01  0.25490209812E+02  0.31886053828E+02  0.00000000000E+00 0. -1.
         11    1    3    3    0    0 -0.16905053373E+02  0.15508463499E+02 -0.88084409448E+01  0.24574008663E+02  0.51100000000E-03 0. -1.
        -11    1    3    3    0    0  0.62008526046E+00 -0.26853862116E+02 -0.17935186070E+02  0.32298379462E+02  0.51100000000E-03 0.  1.
        -12    1    3    3    0    0 -0.45456856030E+00  0.20310256138E+01  0.12534172025E+01  0.24295580470E+01  0.00000000000E+00 0.  1.
</event>
<event>
 7    1  0.7578565E-012  0.5930194E+02  0.7816164E-02  0.1266605E+00
        -11   -1    0    0    0    0  0.00000000000E+00  0.00000000000E+00  0.45593999997E+02  0.45594000000E+02  0.51100000000E-03 0.  1.
         11   -1    0    0    0    0 -0.00000000000E+00 -0.00000000000E+00 -0.45593999997E+02  0.45594000000E+02  0.51100000000E-03 0. -1.
    9900012    2    1    2    0    0  0.20027066039E+02  0.20289557884E+01  0.24728948544E+02  0.59301938283E+02  0.49999989524E+02 0.  0.
         12    1    1    2    0    0 -0.20027066039E+02 -0.20289557884E+01 -0.24728948544E+02  0.31886061717E+02  0.00000000000E+00 0. -1.
         11    1    3    3    0    0  0.27423650124E+01 -0.11745414889E+02  0.10874063708E+02  0.16239476549E+02  0.51100000000E-03 0. -1.
        -11    1    3    3    0    0  0.32345779783E+01  0.19800511800E+02  0.18285387150E+02  0.27145499548E+02  0.51100000000E-03 0.  1.
         12    1    3    3    0    0  0.14050123048E+02 -0.60261411223E+01 -0.44305023141E+01  0.15916962187E+02  0.00000000000E+00 0. -1.
</event>
<event>
 7    1  0.7578565E-012  0.5930194E+02  0.7816164E-02  0.1266605E+00
        -11   -1    0    0    0    0  0.00000000000E+00  0.00000000000E+00  0.45593999997E+02  0.45594000000E+02  0.51100000000E-03 0.  1.
         11   -1    0    0    0    0 -0.00000000000E+00 -0.00000000000E+00 -0.45593999997E+02  0.45594000000E+02  0.51100000000E-03 0. -1.
    9900012    2    1    2    0    0  0.32205028538E+01 -0.25403233941E+02  0.19000660270E+02  0.59301936837E+02  0.49999986887E+02 0.  0.
         12    1    1    2    0    0 -0.32205028538E+01  0.25403233941E+02 -0.19000660270E+02  0.31886063163E+02  0.00000000000E+00 0. -1.
         11    1    3    3    0    0  0.19277484396E+02 -0.75883453088E+01  0.76421455428E+01  0.22081820077E+02  0.51100000000E-03 0. -1.
        -11    1    3    3    0    0 -0.14379476481E+02 -0.23829898446E+02  0.13065604512E+02  0.30746437604E+02  0.51100000000E-03 0.  1.
         12    1    3    3    0    0 -0.16775050610E+01  0.60150098136E+01 -0.17070897847E+01  0.64736791565E+01  0.00000000000E+00 0. -1.
</event>
<event>
 7    1  0.7578565E-012  0.5930192E+02  0.7816164E-02  0.1266605E+00
        -11   -1    0    0    0    0  0.00000000000E+00  0.00000000000E+00  0.45593999997E+02  0.45594000000E+02  0.51100000000E-03 0.  1.
         11   -1    0    0    0    0 -0.00000000000E+00 -0.00000000000E+00 -0.45593999997E+02  0.45594000000E+02  0.51100000000E-03 0. -1.
    9900012    2    1    2    0    0  0.65097683819E+01  0.20112625890E+02  0.23871052131E+02  0.59301922561E+02  0.49999960850E+02 0.  0.
         12    1    1    2    0    0 -0.65097683819E+01 -0.20112625890E+02 -0.23871052131E+02  0.31886077439E+02  0.00000000000E+00 0. -1.
         11    1    3    3    0    0  0.11477319420E+02 -0.88370402966E+01 -0.55576164789E+01  0.15514807232E+02  0.51100000000E-03 0. -1.
        -11    1    3    3    0    0 -0.69184887686E+01  0.25739911784E+02  0.19082838884E+02  0.32780532113E+02  0.51100000000E-03 0.  1.
        -12    1    3    3    0    0  0.19509377309E+01  0.32097544025E+01  0.10345829726E+02  0.11006583215E+02  0.00000000000E+00 0.  1.
</event>
<event>
 7    1  0.7578565E-012  0.5930196E+02  0.7816164E-02  0.1266605E+00
        -11   -1    0    0    0    0  0.00000000000E+00  0.00000000000E+00  0.45593999997E+02  0.45594000000E+02  0.51100000000E-03 0. -1.
         11   -1    0    0    0    0 -0.00000000000E+00 -0.00000000000E+00 -0.45593999997E+02  0.45594000000E+02  0.51100000000E-03 0.  1.
    9900012    2    1    2    0    0  0.25005847150E+02  0.16963031091E+02 -0.10182462307E+02  0.59301963022E+02  0.50000034641E+02 0.  0.
         12    1    1    2    0    0 -0.25005847150E+02 -0.16963031091E+02  0.10182462307E+02  0.31886036978E+02  0.00000000000E+00 0. -1.
         11    1    3    3    0    0  0.23248006761E+02 -0.11371490573E+02 -0.56441628447E+01  0.26488435036E+02  0.51100000000E-03 0.  1.
        -11    1    3    3    0    0  0.35494490863E+01  0.29518254619E+02 -0.24720035361E+01  0.29833483643E+02  0.51100000000E-03 0. -1.
         12    1    3    3    0    0 -0.17916086967E+01 -0.11837329539E+01 -0.20662959263E+01  0.29800443425E+01  0.00000000000E+00 0. -1.
</event>
<event>
 7    1  0.7578565E-012  0.5930194E+02  0.7816164E-02  0.1266605E+00
        -11   -1    0    0    0    0  0.00000000000E+00  0.00000000000E+00  0.45593999997E+02  0.45594000000E+02  0.51100000000E-03 0. -1.
         11   -1    0    0    0    0 -0.00000000000E+00 -0.00000000000E+00 -0.45593999997E+02  0.45594000000E+02  0.51100000000E-03 0.  1.
    9900012    2    1    2    0    0 -0.22869021142E+02  0.26199699092E+01 -0.22064999603E+02  0.59301943835E+02  0.49999999648E+02 0.  0.
         12    1    1    2    0    0  0.22869021142E+02 -0.26199699092E+01  0.22064999603E+02  0.31886056165E+02  0.00000000000E+00 0. -1.
         11    1    3    3    0    0  0.35441040310E+01 -0.10733406187E+02 -0.14173260937E+01  0.11391904813E+02  0.51100000000E-03 0. -1.
        -11    1    3    3    0    0 -0.31652308888E+02  0.66741795345E+01 -0.22262810604E+02  0.39268894390E+02  0.51100000000E-03 0.  1.
        -12    1    3    3    0    0  0.52391837150E+01  0.66791965617E+01  0.16151370941E+01  0.86411446314E+01  0.00000000000E+00 0.  1.
</event>
<event>
 7    1  0.7578565E-012  0.5930195E+02  0.7816164E-02  0.1266605E+00
        -11   -1    0    0    0    0  0.00000000000E+00  0.00000000000E+00  0.45593999997E+02  0.45594000000E+02  0.51100000000E-03 0.  1.
         11   -1    0    0    0    0 -0.00000000000E+00 -0.00000000000E+00 -0.45593999997E+02  0.45594000000E+02  0.51100000000E-03 0. -1.
    9900012    2    1    2    0    0 -0.97094919220E+01 -0.21181690672E+02  0.21766538678E+02  0.59301945695E+02  0.50000003041E+02 0.  0.
         12    1    1    2    0    0  0.97094919220E+01  0.21181690672E+02 -0.21766538678E+02  0.31886054305E+02  0.00000000000E+00 0. -1.
         11    1    3    3    0    0 -0.79230467642E+01  0.12079896836E+02 -0.13332539578E+01  0.14507795973E+02  0.51100000000E-03 0. -1.
        -11    1    3    3    0    0 -0.80409066526E+01 -0.17957035147E+02  0.19841850909E+02  0.27942983714E+02  0.51100000000E-03 0.  1.
        -12    1    3    3    0    0  0.62544614947E+01 -0.15304552362E+02  0.32579417265E+01  0.16851166009E+02  0.00000000000E+00 0.  1.
</event>
<event>
 7    1  0.7721906E-012  0.5930194E+02  0.7816164E-02  0.1266605E+00
        -11   -1    0    0    0    0  0.00000000000E+00  0.00000000000E+00  0.45593999997E+02  0.45594000000E+02  0.51100000000E-03 0. -1.
         11   -1    0    0    0    0 -0.00000000000E+00 -0.00000000000E+00 -0.45593999997E+02  0.45594000000E+02  0.51100000000E-03 0.  1.
    9900012    2    1    2    0    0  0.61110373588E+01  0.24167195277E+02 -0.19882724215E+02  0.59301939921E+02  0.49999992511E+02 0.  0.
         12    1    1    2    0    0 -0.61110373588E+01 -0.24167195277E+02  0.19882724215E+02  0.31886060079E+02  0.00000000000E+00 0. -1.
         11    1    3    3    0    0  0.12699692950E+02 -0.90112030966E+01  0.25794475531E+01  0.15784091112E+02  0.51100000000E-03 0. -1.
        -11    1    3    3    0    0 -0.40977944387E+01  0.91932706172E+01 -0.15388064082E+02  0.18387513708E+02  0.51100000000E-03 0.  1.
         12    1    3    3    0    0 -0.24908611529E+01  0.23985127756E+02 -0.70741076858E+01  0.25130335101E+02  0.00000000000E+00 0. -1.
</event>
<event>
 7    1  0.7578565E-012  0.5930194E+02  0.7816164E-02  0.1266605E+00
        -11   -1    0    0    0    0  0.00000000000E+00  0.00000000000E+00  0.45593999997E+02  0.45594000000E+02  0.51100000000E-03 0.  1.
         11   -1    0    0    0    0 -0.00000000000E+00 -0.00000000000E+00 -0.45593999997E+02  0.45594000000E+02  0.51100000000E-03 0. -1.
    9900012    2    1    2    0    0  0.13469651936E+02 -0.10718408880E+02  0.26840363508E+02  0.59301938383E+02  0.49999989706E+02 0.  0.
         12    1    1    2    0    0 -0.13469651936E+02  0.10718408880E+02 -0.26840363508E+02  0.31886061617E+02  0.00000000000E+00 0. -1.
         11    1    3    3    0    0 -0.88390396576E+01  0.58180472002E+01  0.11319193770E+02  0.15495239371E+02  0.51100000000E-03 0. -1.
        -11    1    3    3    0    0  0.19880205557E+02  0.35602934612E+01  0.42550338193E+01  0.20639854059E+02  0.51100000000E-03 0.  1.
        -12    1    3    3    0    0  0.24284860366E+01 -0.20096749542E+02  0.11266135918E+02  0.23166844953E+02  0.00000000000E+00 0.  1.
</event>
<event>
 7    1  0.7578565E-012  0.5930187E+02  0.7816164E-02  0.1266605E+00
        -11   -1    0    0    0    0  0.00000000000E+00  0.00000000000E+00  0.45593999997E+02  0.45594000000E+02  0.51100000000E-03 0.  1.
         11   -1    0    0    0    0 -0.00000000000E+00 -0.00000000000E+00 -0.45593999997E+02  0.45594000000E+02  0.51100000000E-03 0. -1.
    9900012    2    1    2    0    0 -0.12296730541E+02  0.12290366653E+02  0.26729432120E+02  0.59301870791E+02  0.49999866434E+02 0.  0.
         12    1    1    2    0    0  0.12296730541E+02 -0.12290366653E+02 -0.26729432120E+02  0.31886129209E+02  0.00000000000E+00 0. -1.
         11    1    3    3    0    0  0.93113986977E+01 -0.90851817291E+01 -0.11197370935E+00  0.13009812110E+02  0.51100000000E-03 0. -1.
        -11    1    3    3    0    0 -0.23414036465E+02  0.14335852813E+02  0.12399184974E+02  0.30124301946E+02  0.51100000000E-03 0.  1.
        -12    1    3    3    0    0  0.18059072259E+01  0.70396955686E+01  0.14442220856E+02  0.16167756735E+02  0.00000000000E+00 0.  1.
</event>
<event>
 7    1  0.7578565E-012  0.5930193E+02  0.7816164E-02  0.1266605E+00
        -11   -1    0    0    0    0  0.00000000000E+00  0.00000000000E+00  0.45593999997E+02  0.45594000000E+02  0.51100000000E-03 0.  1.
         11   -1    0    0    0    0 -0.00000000000E+00 -0.00000000000E+00 -0.45593999997E+02  0.45594000000E+02  0.51100000000E-03 0. -1.
    9900012    2    1    2    0    0  0.31657885907E+02  0.33333700509E+01  0.18406959180E+01  0.59301933177E+02  0.49999980211E+02 0.  0.
         12    1    1    2    0    0 -0.31657885907E+02 -0.33333700509E+01 -0.18406959180E+01  0.31886066823E+02  0.00000000000E+00 0. -1.
         11    1    3    3    0    0 -0.14784258624E+01 -0.29950623678E+01 -0.32869086443E+01  0.46861402364E+01  0.51100000000E-03 0.  1.
        -11    1    3    3    0    0  0.28743173157E+02 -0.16145119506E+01 -0.15054001597E+02  0.32486914540E+02  0.51100000000E-03 0. -1.
        -12    1    3    3    0    0  0.43931386117E+01  0.79429443693E+01  0.20181606159E+02  0.22128878401E+02  0.00000000000E+00 0.  1.
</event>
<event>
 7    1  0.7578565E-012  0.5930196E+02  0.7816164E-02  0.1266605E+00
        -11   -1    0    0    0    0  0.00000000000E+00  0.00000000000E+00  0.45593999997E+02  0.45594000000E+02  0.51100000000E-03 0. -1.
         11   -1    0    0    0    0 -0.00000000000E+00 -0.00000000000E+00 -0.45593999997E+02  0.45594000000E+02  0.51100000000E-03 0.  1.
    9900012    2    1    2    0    0 -0.27399749988E+02 -0.13850421498E+02  0.86104022793E+01  0.59301960696E+02  0.50000030400E+02 0.  0.
         12    1    1    2    0    0  0.27399749988E+02  0.13850421498E+02 -0.86104022793E+01  0.31886039304E+02  0.00000000000E+00 0. -1.
         11    1    3    3    0    0 -0.91078963222E+01  0.78626812505E+01  0.52525412684E+01  0.13128774577E+02  0.51100000000E-03 0. -1.
        -11    1    3    3    0    0  0.16667327021E+01 -0.19739564728E+02  0.13227781256E+02  0.23820214331E+02  0.51100000000E-03 0.  1.
        -12    1    3    3    0    0 -0.19958586368E+02 -0.19735380204E+01 -0.98699202452E+01  0.22352971788E+02  0.00000000000E+00 0.  1.
</event>
<event>
 7    1  0.7578565E-012  0.5930195E+02  0.7816164E-02  0.1266605E+00
        -11   -1    0    0    0    0  0.00000000000E+00  0.00000000000E+00  0.45593999997E+02  0.45594000000E+02  0.51100000000E-03 0.  1.
         11   -1    0    0    0    0 -0.00000000000E+00 -0.00000000000E+00 -0.45593999997E+02  0.45594000000E+02  0.51100000000E-03 0. -1.
    9900012    2    1    2    0    0  0.36529056521E+01  0.79427749887E+01  0.30664132855E+02  0.59301946027E+02  0.50000003647E+02 0.  0.
         12    1    1    2    0    0 -0.36529056521E+01 -0.79427749887E+01 -0.30664132855E+02  0.31886053973E+02  0.00000000000E+00 0. -1.
         11    1    3    3    0    0 -0.51940192597E+01 -0.13258345112E+01 -0.12410714918E+02  0.13518931846E+02  0.51100000000E-03 0. -1.
        -11    1    3    3    0    0  0.20427314827E+01  0.53709058277E+01  0.29932538423E+02  0.30479111504E+02  0.51100000000E-03 0.  1.
         12    1    3    3    0    0  0.68041934291E+01  0.38977036722E+01  0.13142309349E+02  0.15303902678E+02  0.00000000000E+00 0. -1.
</event>
<event>
 7    1  0.7578565E-012  0.5930195E+02  0.7816164E-02  0.1266605E+00
        -11   -1    0    0    0    0  0.00000000000E+00  0.00000000000E+00  0.45593999997E+02  0.45594000000E+02  0.51100000000E-03 0.  1.
         11   -1    0    0    0    0 -0.00000000000E+00 -0.00000000000E+00 -0.45593999997E+02  0.45594000000E+02  0.51100000000E-03 0. -1.
    9900012    2    1    2    0    0  0.21403372789E+02 -0.20859341007E+02 -0.11113235414E+02  0.59301945440E+02  0.50000002576E+02 0.  0.
         12    1    1    2    0    0 -0.21403372789E+02  0.20859341007E+02  0.11113235414E+02  0.31886054560E+02  0.00000000000E+00 0. -1.
         11    1    3    3    0    0  0.11071356389E+02 -0.21351406514E+01 -0.25197534439E+02  0.27605244066E+02  0.51100000000E-03 0. -1.
        -11    1    3    3    0    0  0.12224411959E+01 -0.64721302708E+01  0.15019808813E+02  0.16400533216E+02  0.51100000000E-03 0.  1.
         12    1    3    3    0    0  0.91095752043E+01 -0.12252070085E+02 -0.93550978890E+00  0.15296168159E+02  0.00000000000E+00 0. -1.
</event>
<event>
 7    1  0.7578565E-012  0.5930194E+02  0.7816164E-02  0.1266605E+00
        -11   -1    0    0    0    0  0.00000000000E+00  0.00000000000E+00  0.45593999997E+02  0.45594000000E+02  0.51100000000E-03 0. -1.
         11   -1    0    0    0    0 -0.00000000000E+00 -0.00000000000E+00 -0.45593999997E+02  0.45594000000E+02  0.51100000000E-03 0.  1.
    9900012    2    1    2    0    0  0.29963130420E+02  0.10681265906E+02 -0.22005526688E+01  0.59301936305E+02  0.49999985915E+02 0.  0.
         12    1    1    2    0    0 -0.29963130420E+02 -0.10681265906E+02  0.22005526688E+01  0.31886063695E+02  0.00000000000E+00 0. -1.
         11    1    3    3    0    0  0.88316447048E+01 -0.85332169062E+01  0.14375642735E+02  0.18906952247E+02  0.51100000000E-03 0. -1.
        -11    1    3    3    0    0  0.47774179678E+01  0.54157262920E+01 -0.17547278958E+02  0.18975268451E+02  0.51100000000E-03 0.  1.
         12    1    3    3    0    0  0.16354067748E+02  0.13798756520E+02  0.97108355427E+00  0.21419715606E+02  0.00000000000E+00 0. -1.
</event>
<event>
 7    1  0.7578565E-012  0.5930194E+02  0.7816164E-02  0.1266605E+00
        -11   -1    0    0    0    0  0.00000000000E+00  0.00000000000E+00  0.45593999997E+02  0.45594000000E+02  0.51100000000E-03 0.  1.
         11   -1    0    0    0    0 -0.00000000000E+00 -0.00000000000E+00 -0.45593999997E+02  0.45594000000E+02  0.51100000000E-03 0. -1.
    9900012    2    1    2    0    0 -0.50876157414E+01  0.93188551610E+01  0.30066523871E+02  0.59301941085E+02  0.49999994633E+02 0.  0.
         12    1    1    2    0    0  0.50876157414E+01 -0.93188551610E+01 -0.30066523871E+02  0.31886058915E+02  0.00000000000E+00 0. -1.
         11    1    3    3    0    0  0.84771387138E+01  0.11230448796E+02  0.80775548554E+01  0.16224418437E+02  0.51100000000E-03 0. -1.
        -11    1    3    3    0    0 -0.22268003980E+02 -0.89641271757E+01  0.20890332391E+02  0.31821778155E+02  0.51100000000E-03 0.  1.
        -12    1    3    3    0    0  0.87032495248E+01  0.70525335410E+01  0.10986366244E+01  0.11255744492E+02  0.00000000000E+00 0.  1.
</event>
<event>
 7    1  0.7578565E-012  0.5930193E+02  0.7816164E-02  0.1266605E+00
        -11   -1    0    0    0    0  0.00000000000E+00  0.00000000000E+00  0.45593999997E+02  0.45594000000E+02  0.51100000000E-03 0.  1.
         11   -1    0    0    0    0 -0.00000000000E+00 -0.00000000000E+00 -0.45593999997E+02  0.45594000000E+02  0.51100000000E-03 0. -1.
    9900012    2    1    2    0    0  0.20870502556E+02 -0.19453533472E+02 -0.14237397532E+02  0.59301932040E+02  0.49999978136E+02 0.  0.
         12    1    1    2    0    0 -0.20870502556E+02  0.19453533472E+02  0.14237397532E+02  0.31886067960E+02  0.00000000000E+00 0. -1.
         11    1    3    3    0    0 -0.62488158590E+01 -0.79574695824E+01  0.13930813477E+01  0.10213211919E+02  0.51100000000E-03 0. -1.
        -11    1    3    3    0    0  0.28476369204E+02  0.46119438045E+01 -0.15864475297E+02  0.32921956281E+02  0.51100000000E-03 0.  1.
        -12    1    3    3    0    0 -0.13570507888E+01 -0.16108007694E+02  0.23399641710E+00  0.16166763839E+02  0.00000000000E+00 0.  1.
</event>
<event>
 7    1  0.7578565E-012  0.5930194E+02  0.7816164E-02  0.1266605E+00
        -11   -1    0    0    0    0  0.00000000000E+00  0.00000000000E+00  0.45593999997E+02  0.45594000000E+02  0.51100000000E-03 0. -1.
         11   -1    0    0    0    0 -0.00000000000E+00 -0.00000000000E+00 -0.45593999997E+02  0.45594000000E+02  0.51100000000E-03 0.  1.
    9900012    2    1    2    0    0  0.12255297838E+02  0.66740437393E+01 -0.28670286978E+02  0.59301944422E+02  0.50000000719E+02 0.  0.
         12    1    1    2    0    0 -0.12255297838E+02 -0.66740437393E+01  0.28670286978E+02  0.31886055578E+02  0.00000000000E+00 0. -1.
         11    1    3    3    0    0  0.20628753902E+02 -0.11052912996E+02 -0.11552083008E+02  0.26099099512E+02  0.51100000000E-03 0. -1.
        -11    1    3    3    0    0 -0.11609954874E+02  0.17506055862E+01 -0.99716148736E+01  0.15404180457E+02  0.51100000000E-03 0.  1.
        -12    1    3    3    0    0  0.32364988101E+01  0.15976351149E+02 -0.71465890968E+01  0.17798664453E+02  0.00000000000E+00 0.  1.
</event>
<event>
 7    1  0.7578565E-012  0.5930195E+02  0.7816164E-02  0.1266605E+00
        -11   -1    0    0    0    0  0.00000000000E+00  0.00000000000E+00  0.45593999997E+02  0.45594000000E+02  0.51100000000E-03 0. -1.
         11   -1    0    0    0    0 -0.00000000000E+00 -0.00000000000E+00 -0.45593999997E+02  0.45594000000E+02  0.51100000000E-03 0.  1.
    9900012    2    1    2    0    0 -0.17269544175E+02  0.26567597171E+02 -0.35560925956E+01  0.59301950228E+02  0.50000011309E+02 0.  0.
         12    1    1    2    0    0  0.17269544175E+02 -0.26567597171E+02  0.35560925956E+01  0.31886049772E+02  0.00000000000E+00 0. -1.
         11    1    3    3    0    0 -0.26764800866E+02  0.11015150033E+02 -0.12408003718E+02  0.31490421594E+02  0.51100000000E-03 0. -1.
        -11    1    3    3    0    0  0.81798671586E+01  0.67254696402E+01 -0.46993101640E+01  0.11585580904E+02  0.51100000000E-03 0.  1.
         12    1    3    3    0    0  0.13153895318E+01  0.88269774984E+01  0.13551221287E+02  0.16225947730E+02  0.00000000000E+00 0. -1.
</event>
<event>
 7    1  0.7578565E-012  0.5930177E+02  0.7816164E-02  0.1266605E+00
        -11   -1    0    0    0    0  0.00000000000E+00  0.00000000000E+00  0.45593999997E+02  0.45594000000E+02  0.51100000000E-03 0.  1.
         11   -1    0    0    0    0 -0.00000000000E+00 -0.00000000000E+00 -0.45593999997E+02  0.45594000000E+02  0.51100000000E-03 0. -1.
    9900012    2    1    2    0    0 -0.34550874639E+01 -0.31280224270E+02  0.51324149101E+01  0.59301768762E+02  0.49999680357E+02 0.  0.
         12    1    1    2    0    0  0.34550874639E+01  0.31280224270E+02 -0.51324149101E+01  0.31886231238E+02  0.00000000000E+00 0. -1.
         11    1    3    3    0    0  0.51508797025E+01 -0.35934876317E+02 -0.11310481581E+00  0.36302337261E+02  0.51100000000E-03 0. -1.
        -11    1    3    3    0    0 -0.12023895742E+02 -0.35519303934E+01 -0.26467044081E+00  0.12540348043E+02  0.51100000000E-03 0.  1.
         12    1    3    3    0    0  0.34179285758E+01  0.82065824411E+01  0.55101901667E+01  0.10459083458E+02  0.00000000000E+00 0. -1.
</event>
<event>
 7    1  0.7578565E-012  0.5930195E+02  0.7816164E-02  0.1266605E+00
        -11   -1    0    0    0    0  0.00000000000E+00  0.00000000000E+00  0.45593999997E+02  0.45594000000E+02  0.51100000000E-03 0.  1.
         11   -1    0    0    0    0 -0.00000000000E+00 -0.00000000000E+00 -0.45593999997E+02  0.45594000000E+02  0.51100000000E-03 0. -1.
    9900012    2    1    2    0    0 -0.39156904744E+01 -0.24038958085E+02 -0.20579504090E+02  0.59301950914E+02  0.50000012559E+02 0.  0.
         12    1    1    2    0    0  0.39156904744E+01  0.24038958085E+02  0.20579504090E+02  0.31886049086E+02  0.00000000000E+00 0. -1.
         11    1    3    3    0    0 -0.20031575520E+02  0.56050817034E+01 -0.39648227388E+01  0.21175475870E+02  0.51100000000E-03 0. -1.
        -11    1    3    3    0    0  0.12351679037E+02 -0.20503640069E+02 -0.87193326113E+01  0.25475281992E+02  0.51100000000E-03 0.  1.
         12    1    3    3    0    0  0.37642060084E+01 -0.91403997199E+01 -0.78953487399E+01  0.12651193052E+02  0.00000000000E+00 0. -1.
</event>
<event>
 7    1  0.7578565E-012  0.5930193E+02  0.7816164E-02  0.1266605E+00
        -11   -1    0    0    0    0  0.00000000000E+00  0.00000000000E+00  0.45593999997E+02  0.45594000000E+02  0.51100000000E-03 0. -1.
         11   -1    0    0    0    0 -0.00000000000E+00 -0.00000000000E+00 -0.45593999997E+02  0.45594000000E+02  0.51100000000E-03 0.  1.
    9900012    2    1    2    0    0 -0.10964100770E+02 -0.29935348016E+02 -0.62056665559E+00  0.59301926715E+02  0.49999968426E+02 0.  0.
         12    1    1    2    0    0  0.10964100770E+02  0.29935348016E+02  0.62056665559E+00  0.31886073285E+02  0.00000000000E+00 0. -1.
         11    1    3    3    0    0 -0.42399437421E+01 -0.64030564387E+00  0.16470211524E+02  0.17019253279E+02  0.51100000000E-03 0. -1.
        -11    1    3    3    0    0  0.56910209570E+01 -0.23042790505E+02 -0.15367241240E+02  0.28275608170E+02  0.51100000000E-03 0.  1.
         12    1    3    3    0    0 -0.12415177985E+02 -0.62522518674E+01 -0.17235369399E+01  0.14007065267E+02  0.00000000000E+00 0. -1.
</event>
<event>
 7    1  0.7578565E-012  0.5930195E+02  0.7816164E-02  0.1266605E+00
        -11   -1    0    0    0    0  0.00000000000E+00  0.00000000000E+00  0.45593999997E+02  0.45594000000E+02  0.51100000000E-03 0.  1.
         11   -1    0    0    0    0 -0.00000000000E+00 -0.00000000000E+00 -0.45593999997E+02  0.45594000000E+02  0.51100000000E-03 0. -1.
    9900012    2    1    2    0    0  0.16480599521E+02 -0.13847452963E+02 -0.23523559683E+02  0.59301953297E+02  0.50000016906E+02 0.  0.
         12    1    1    2    0    0 -0.16480599521E+02  0.13847452963E+02  0.23523559683E+02  0.31886046703E+02  0.00000000000E+00 0. -1.
         11    1    3    3    0    0  0.55862140793E+01  0.53767067718E+01 -0.31104347839E+02  0.32056126063E+02  0.51100000000E-03 0. -1.
        -11    1    3    3    0    0  0.65664045829E+01 -0.59528434233E+01  0.96856614103E+01  0.13128825202E+02  0.51100000000E-03 0.  1.
         12    1    3    3    0    0  0.43279808588E+01 -0.13271316312E+02 -0.21048732549E+01  0.14117002032E+02  0.00000000000E+00 0. -1.
</event>
<event>
 7    1  0.7578565E-012  0.5930193E+02  0.7816164E-02  0.1266605E+00
        -11   -1    0    0    0    0  0.00000000000E+00  0.00000000000E+00  0.45593999997E+02  0.45594000000E+02  0.51100000000E-03 0.  1.
         11   -1    0    0    0    0 -0.00000000000E+00 -0.00000000000E+00 -0.45593999997E+02  0.45594000000E+02  0.51100000000E-03 0. -1.
    9900012    2    1    2    0    0  0.21860707105E+02  0.22883043476E+02 -0.38983570681E+01  0.59301931229E+02  0.49999976658E+02 0.  0.
         12    1    1    2    0    0 -0.21860707105E+02 -0.22883043476E+02  0.38983570681E+01  0.31886068771E+02  0.00000000000E+00 0. -1.
         11    1    3    3    0    0  0.40217362327E+01 -0.13977413186E+02 -0.34498190874E+01  0.14948033105E+02  0.51100000000E-03 0. -1.
        -11    1    3    3    0    0  0.65890648756E+01  0.22237874811E+02 -0.78345097450E+01  0.24480980276E+02  0.51100000000E-03 0.  1.
        -12    1    3    3    0    0  0.11249905996E+02  0.14622581851E+02  0.73859717644E+01  0.19872917849E+02  0.00000000000E+00 0.  1.
</event>
<event>
 7    1  0.7578565E-012  0.5930195E+02  0.7816164E-02  0.1266605E+00
        -11   -1    0    0    0    0  0.00000000000E+00  0.00000000000E+00  0.45593999997E+02  0.45594000000E+02  0.51100000000E-03 0.  1.
         11   -1    0    0    0    0 -0.00000000000E+00 -0.00000000000E+00 -0.45593999997E+02  0.45594000000E+02  0.51100000000E-03 0. -1.
    9900012    2    1    2    0    0 -0.41163759831E+01  0.29355310467E+02  0.11749096581E+02  0.59301951729E+02  0.50000014046E+02 0.  0.
         12    1    1    2    0    0  0.41163759831E+01 -0.29355310467E+02 -0.11749096581E+02  0.31886048271E+02  0.00000000000E+00 0. -1.
         11    1    3    3    0    0 -0.23041156120E+01 -0.68359197009E+01  0.19174444058E+01  0.74642709102E+01  0.51100000000E-03 0. -1.
        -11    1    3    3    0    0  0.44148083070E+01  0.33432317599E+02 -0.63191653942E+01  0.34309506612E+02  0.51100000000E-03 0.  1.
        -12    1    3    3    0    0 -0.62270686781E+01  0.27589125695E+01  0.16150817569E+02  0.17528174207E+02  0.00000000000E+00 0.  1.
</event>
<event>
 7    1  0.7578565E-012  0.5930195E+02  0.7816164E-02  0.1266605E+00
        -11   -1    0    0    0    0  0.00000000000E+00  0.00000000000E+00  0.45593999997E+02  0.45594000000E+02  0.51100000000E-03 0.  1.
         11   -1    0    0    0    0 -0.00000000000E+00 -0.00000000000E+00 -0.45593999997E+02  0.45594000000E+02  0.51100000000E-03 0. -1.
    9900012    2    1    2    0    0  0.74873763034E+00 -0.16012032883E+02  0.27564001273E+02  0.59301953345E+02  0.50000016993E+02 0.  0.
         12    1    1    2    0    0 -0.74873763034E+00  0.16012032883E+02 -0.27564001273E+02  0.31886046655E+02  0.00000000000E+00 0. -1.
         11    1    3    3    0    0  0.12322766007E+02  0.10767651710E+02  0.14225413729E+02  0.21683064392E+02  0.51100000000E-03 0. -1.
        -11    1    3    3    0    0 -0.10507027806E+02 -0.28131845523E+02  0.16318221696E+02  0.34177225245E+02  0.51100000000E-03 0.  1.
         12    1    3    3    0    0 -0.10670005710E+01  0.13521609299E+01 -0.29796341523E+01  0.34416637082E+01  0.00000000000E+00 0. -1.
</event>
<event>
 7    1  0.7578565E-012  0.5930196E+02  0.7816164E-02  0.1266605E+00
        -11   -1    0    0    0    0  0.00000000000E+00  0.00000000000E+00  0.45593999997E+02  0.45594000000E+02  0.51100000000E-03 0.  1.
         11   -1    0    0    0    0 -0.00000000000E+00 -0.00000000000E+00 -0.45593999997E+02  0.45594000000E+02  0.51100000000E-03 0. -1.
    9900012    2    1    2    0    0  0.66119931004E+01  0.82557635772E+01  0.30080613507E+02  0.59301962398E+02  0.50000033503E+02 0.  0.
         12    1    1    2    0    0 -0.66119931004E+01 -0.82557635772E+01 -0.30080613507E+02  0.31886037602E+02  0.00000000000E+00 0. -1.
         11    1    3    3    0    0  0.15686815560E+02 -0.60621757270E+01  0.22275332102E+02  0.27910868448E+02  0.51100000000E-03 0. -1.
        -11    1    3    3    0    0 -0.47129201482E+01  0.21128884922E+02  0.85358558480E+01  0.23270200465E+02  0.51100000000E-03 0.  1.
         12    1    3    3    0    0 -0.43619023119E+01 -0.68109456175E+01 -0.73057444347E+00  0.81208934854E+01  0.00000000000E+00 0. -1.
</event>
<event>
 7    1  0.7578565E-012  0.5930195E+02  0.7816164E-02  0.1266605E+00
        -11   -1    0    0    0    0  0.00000000000E+00  0.00000000000E+00  0.45593999997E+02  0.45594000000E+02  0.51100000000E-03 0.  1.
         11   -1    0    0    0    0 -0.00000000000E+00 -0.00000000000E+00 -0.45593999997E+02  0.45594000000E+02  0.51100000000E-03 0. -1.
    9900012    2    1    2    0    0  0.63675347328E+01  0.28077691155E+02  0.13704662257E+02  0.59301952789E+02  0.50000015978E+02 0.  0.
         12    1    1    2    0    0 -0.63675347328E+01 -0.28077691155E+02 -0.13704662257E+02  0.31886047211E+02  0.00000000000E+00 0. -1.
         11    1    3    3    0    0 -0.30279535057E+01  0.10652700024E+02 -0.12840748976E+02  0.16956808507E+02  0.51100000000E-03 0. -1.
        -11    1    3    3    0    0 -0.17421627392E+01  0.18436995277E+02  0.24914434244E+02  0.31043307810E+02  0.51100000000E-03 0.  1.
         12    1    3    3    0    0  0.11137650978E+02 -0.10120041451E+01  0.16309769893E+01  0.11301836472E+02  0.00000000000E+00 0. -1.
</event>
<event>
 7    1  0.7578565E-012  0.5930195E+02  0.7816164E-02  0.1266605E+00
        -11   -1    0    0    0    0  0.00000000000E+00  0.00000000000E+00  0.45593999997E+02  0.45594000000E+02  0.51100000000E-03 0. -1.
         11   -1    0    0    0    0 -0.00000000000E+00 -0.00000000000E+00 -0.45593999997E+02  0.45594000000E+02  0.51100000000E-03 0.  1.
    9900012    2    1    2    0    0  0.13697756895E+02 -0.22933586703E+02 -0.17410979295E+02  0.59301950652E+02  0.50000012081E+02 0.  0.
         12    1    1    2    0    0 -0.13697756895E+02  0.22933586703E+02  0.17410979295E+02  0.31886049348E+02  0.00000000000E+00 0. -1.
         11    1    3    3    0    0  0.64464141604E+01 -0.99212400093E-01  0.15688361988E+02  0.16961450432E+02  0.51100000000E-03 0. -1.
        -11    1    3    3    0    0  0.81679068376E+01 -0.13456024543E+02 -0.26548075479E+02  0.30863888454E+02  0.51100000000E-03 0.  1.
         12    1    3    3    0    0 -0.91656410258E+00 -0.93783497601E+01 -0.65512658045E+01  0.11476611766E+02  0.00000000000E+00 0. -1.
</event>
<event>
 7    1  0.7578565E-012  0.5930200E+02  0.7816164E-02  0.1266605E+00
        -11   -1    0    0    0    0  0.00000000000E+00  0.00000000000E+00  0.45593999997E+02  0.45594000000E+02  0.51100000000E-03 0.  1.
         11   -1    0    0    0    0 -0.00000000000E+00 -0.00000000000E+00 -0.45593999997E+02  0.45594000000E+02  0.51100000000E-03 0. -1.
    9900012    2    1    2    0    0  0.89141018535E+01 -0.22498010547E+02  0.20762834328E+02  0.59302000255E+02  0.50000102544E+02 0.  0.
         12    1    1    2    0    0 -0.89141018535E+01  0.22498010547E+02 -0.20762834328E+02  0.31885999745E+02  0.00000000000E+00 0. -1.
         11    1    3    3    0    0  0.73147300625E+01  0.36617262375E+01  0.48332707770E+01  0.95012642101E+01  0.51100000000E-03 0. -1.
        -11    1    3    3    0    0 -0.17882492085E+02 -0.19025951002E+02  0.59577328869E+01  0.26781801958E+02  0.51100000000E-03 0.  1.
        -12    1    3    3    0    0  0.19481863876E+02 -0.71337857818E+01  0.99718306645E+01  0.23018934086E+02  0.00000000000E+00 0.  1.
</event>
<event>
 7    1  0.7578565E-012  0.5930192E+02  0.7816164E-02  0.1266605E+00
        -11   -1    0    0    0    0  0.00000000000E+00  0.00000000000E+00  0.45593999997E+02  0.45594000000E+02  0.51100000000E-03 0.  1.
         11   -1    0    0    0    0 -0.00000000000E+00 -0.00000000000E+00 -0.45593999997E+02  0.45594000000E+02  0.51100000000E-03 0. -1.
    9900012    2    1    2    0    0  0.17557230646E+02 -0.18633883671E+02  0.19006418396E+02  0.59301922962E+02  0.49999961582E+02 0.  0.
         12    1    1    2    0    0 -0.17557230646E+02  0.18633883671E+02 -0.19006418396E+02  0.31886077038E+02  0.00000000000E+00 0. -1.
         11    1    3    3    0    0  0.20074727706E+02 -0.23972231010E+02  0.17006638952E+02  0.35593374675E+02  0.51100000000E-03 0. -1.
        -11    1    3    3    0    0 -0.79208637805E+01  0.12542382739E+01  0.10262635701E+02  0.13024395896E+02  0.51100000000E-03 0.  1.
         12    1    3    3    0    0  0.54033667209E+01  0.40841090659E+01 -0.82628562571E+01  0.10684152391E+02  0.00000000000E+00 0. -1.
</event>
<event>
 7    1  0.7578565E-012  0.5930194E+02  0.7816164E-02  0.1266605E+00
        -11   -1    0    0    0    0  0.00000000000E+00  0.00000000000E+00  0.45593999997E+02  0.45594000000E+02  0.51100000000E-03 0.  1.
         11   -1    0    0    0    0 -0.00000000000E+00 -0.00000000000E+00 -0.45593999997E+02  0.45594000000E+02  0.51100000000E-03 0. -1.
    9900012    2    1    2    0    0 -0.16126632649E+02 -0.86596070840E+01  0.26108687600E+02  0.59301942802E+02  0.49999997764E+02 0.  0.
         12    1    1    2    0    0  0.16126632649E+02  0.86596070840E+01 -0.26108687600E+02  0.31886057198E+02  0.00000000000E+00 0. -1.
         11    1    3    3    0    0  0.11726292116E+02 -0.87684733731E+01  0.22639753415E+01  0.14816127587E+02  0.51100000000E-03 0. -1.
        -11    1    3    3    0    0 -0.78351374866E+01  0.11015813411E+02  0.14569441908E+02  0.19874761943E+02  0.51100000000E-03 0.  1.
         12    1    3    3    0    0 -0.20017787278E+02 -0.10906947122E+02  0.92752703512E+01  0.24611053271E+02  0.00000000000E+00 0. -1.
</event>
<event>
 7    1  0.7578565E-012  0.5930194E+02  0.7816164E-02  0.1266605E+00
        -11   -1    0    0    0    0  0.00000000000E+00  0.00000000000E+00  0.45593999997E+02  0.45594000000E+02  0.51100000000E-03 0. -1.
         11   -1    0    0    0    0 -0.00000000000E+00 -0.00000000000E+00 -0.45593999997E+02  0.45594000000E+02  0.51100000000E-03 0.  1.
    9900012    2    1    2    0    0 -0.22927725443E+02 -0.98668828438E+01 -0.19841501045E+02  0.59301935101E+02  0.49999983719E+02 0.  0.
         12    1    1    2    0    0  0.22927725443E+02  0.98668828438E+01  0.19841501045E+02  0.31886064899E+02  0.00000000000E+00 0. -1.
         11    1    3    3    0    0 -0.76642749316E+01 -0.92360763550E+01 -0.32827749258E+02  0.34952930324E+02  0.51100000000E-03 0. -1.
        -11    1    3    3    0    0 -0.64649197049E+01  0.28335464740E+01 -0.13387567444E+01  0.71844583855E+01  0.51100000000E-03 0.  1.
         12    1    3    3    0    0 -0.87985308065E+01 -0.34643529628E+01  0.14325004957E+02  0.17164546391E+02  0.00000000000E+00 0. -1.
</event>
<event>
 7    1  0.7578565E-012  0.5930184E+02  0.7816164E-02  0.1266605E+00
        -11   -1    0    0    0    0  0.00000000000E+00  0.00000000000E+00  0.45593999997E+02  0.45594000000E+02  0.51100000000E-03 0. -1.
         11   -1    0    0    0    0 -0.00000000000E+00 -0.00000000000E+00 -0.45593999997E+02  0.45594000000E+02  0.51100000000E-03 0.  1.
    9900012    2    1    2    0    0  0.71661663523E+01 -0.20017343057E+02 -0.23762980961E+02  0.59301839563E+02  0.49999809481E+02 0.  0.
         12    1    1    2    0    0 -0.71661663523E+01  0.20017343057E+02  0.23762980961E+02  0.31886160437E+02  0.00000000000E+00 0. -1.
         11    1    3    3    0    0  0.20154088979E+01  0.92911995877E+01 -0.12791270986E+02  0.15937530439E+02  0.51100000000E-03 0.  1.
        -11    1    3    3    0    0  0.71053888054E+01 -0.35114761365E+02 -0.92918497009E+01  0.37011774977E+02  0.51100000000E-03 0. -1.
         12    1    3    3    0    0 -0.19546313510E+01  0.58062187203E+01 -0.16798602736E+01  0.63525341467E+01  0.00000000000E+00 0. -1.
</event>
<event>
 7    1  0.7578565E-012  0.5930203E+02  0.7816164E-02  0.1266604E+00
        -11   -1    0    0    0    0  0.00000000000E+00  0.00000000000E+00  0.45593999997E+02  0.45594000000E+02  0.51100000000E-03 0. -1.
         11   -1    0    0    0    0 -0.00000000000E+00 -0.00000000000E+00 -0.45593999997E+02  0.45594000000E+02  0.51100000000E-03 0.  1.
    9900012    2    1    2    0    0  0.26834733656E+02  0.80184961186E+01 -0.15241906608E+02  0.59302032437E+02  0.50000161237E+02 0.  0.
         12    1    1    2    0    0 -0.26834733656E+02 -0.80184961186E+01  0.15241906608E+02  0.31885967563E+02  0.00000000000E+00 0. -1.
         11    1    3    3    0    0 -0.13342074435E+02  0.29912402259E+00  0.34776217545E+01  0.13791094182E+02  0.51100000000E-03 0. -1.
        -11    1    3    3    0    0  0.19730128775E+02  0.42774038843E+01 -0.55121911109E+01  0.20927456047E+02  0.51100000000E-03 0.  1.
         12    1    3    3    0    0  0.20446679316E+02  0.34419682117E+01 -0.13207337251E+02  0.24583482208E+02  0.00000000000E+00 0. -1.
</event>
<event>
 7    1  0.7578565E-012  0.5930202E+02  0.7816164E-02  0.1266604E+00
        -11   -1    0    0    0    0  0.00000000000E+00  0.00000000000E+00  0.45593999997E+02  0.45594000000E+02  0.51100000000E-03 0. -1.
         11   -1    0    0    0    0 -0.00000000000E+00 -0.00000000000E+00 -0.45593999997E+02  0.45594000000E+02  0.51100000000E-03 0.  1.
    9900012    2    1    2    0    0 -0.12797691127E+02 -0.28139541144E+02  0.78166993650E+01  0.59302024040E+02  0.50000145923E+02 0.  0.
         12    1    1    2    0    0  0.12797691127E+02  0.28139541144E+02 -0.78166993650E+01  0.31885975960E+02  0.00000000000E+00 0. -1.
         11    1    3    3    0    0  0.88861715021E+01 -0.44979716012E+01  0.30745888497E+00  0.99644530065E+01  0.51100000000E-03 0. -1.
        -11    1    3    3    0    0 -0.28903429090E+02 -0.19437239337E+02  0.15180279246E+02  0.37995465051E+02  0.51100000000E-03 0.  1.
        -12    1    3    3    0    0  0.72195664607E+01 -0.42043302053E+01 -0.76710387663E+01  0.11342105982E+02  0.00000000000E+00 0.  1.
</event>
<event>
 7    1  0.7578565E-012  0.5930183E+02  0.7816164E-02  0.1266605E+00
        -11   -1    0    0    0    0  0.00000000000E+00  0.00000000000E+00  0.45593999997E+02  0.45594000000E+02  0.51100000000E-03 0. -1.
         11   -1    0    0    0    0 -0.00000000000E+00 -0.00000000000E+00 -0.45593999997E+02  0.45594000000E+02  0.51100000000E-03 0.  1.
    9900012    2    1    2    0    0  0.10077977087E+02 -0.26960301372E+02 -0.13722393678E+02  0.59301834341E+02  0.49999799956E+02 0.  0.
         12    1    1    2    0    0 -0.10077977087E+02  0.26960301372E+02  0.13722393678E+02  0.31886165659E+02  0.00000000000E+00 0. -1.
         11    1    3    3    0    0 -0.61494038205E+01 -0.14002383032E+01 -0.18281183644E+02  0.19338498141E+02  0.51100000000E-03 0. -1.
        -11    1    3    3    0    0  0.10474547089E+02 -0.30404819867E+02  0.42248799905E+01  0.32434839587E+02  0.51100000000E-03 0.  1.
        -12    1    3    3    0    0  0.57528338177E+01  0.48447567983E+01  0.33390997568E+00  0.75284966122E+01  0.00000000000E+00 0.  1.
</event>
<event>
 7    1  0.7578565E-012  0.5930195E+02  0.7816164E-02  0.1266605E+00
        -11   -1    0    0    0    0  0.00000000000E+00  0.00000000000E+00  0.45593999997E+02  0.45594000000E+02  0.51100000000E-03 0. -1.
         11   -1    0    0    0    0 -0.00000000000E+00 -0.00000000000E+00 -0.45593999997E+02  0.45594000000E+02  0.51100000000E-03 0.  1.
    9900012    2    1    2    0    0 -0.28408401344E+02  0.14408559975E+02 -0.14409062731E+01  0.59301951666E+02  0.50000013930E+02 0.  0.
         12    1    1    2    0    0  0.28408401344E+02 -0.14408559975E+02  0.14409062731E+01  0.31886048334E+02  0.00000000000E+00 0. -1.
         11    1    3    3    0    0 -0.36961115706E+02  0.11088475427E+02  0.29927951131E+01  0.38704459489E+02  0.51100000000E-03 0. -1.
        -11    1    3    3    0    0  0.10614921706E+02 -0.23588493776E+01  0.27447259345E+01  0.11214912123E+02  0.51100000000E-03 0.  1.
        -12    1    3    3    0    0 -0.20622073446E+01  0.56789339258E+01 -0.71784273206E+01  0.93825800536E+01  0.00000000000E+00 0.  1.
</event>
<event>
 7    1  0.7578565E-012  0.5930194E+02  0.7816164E-02  0.1266605E+00
        -11   -1    0    0    0    0  0.00000000000E+00  0.00000000000E+00  0.45593999997E+02  0.45594000000E+02  0.51100000000E-03 0.  1.
         11   -1    0    0    0    0 -0.00000000000E+00 -0.00000000000E+00 -0.45593999997E+02  0.45594000000E+02  0.51100000000E-03 0. -1.
    9900012    2    1    2    0    0 -0.12587975103E+02  0.29085217040E+02  0.35091453114E+01  0.59301936143E+02  0.49999985620E+02 0.  0.
         12    1    1    2    0    0  0.12587975103E+02 -0.29085217040E+02 -0.35091453114E+01  0.31886063857E+02  0.00000000000E+00 0. -1.
         11    1    3    3    0    0 -0.26601520414E+02  0.15287929126E+02 -0.25834709677E+01  0.30790193046E+02  0.51100000000E-03 0. -1.
        -11    1    3    3    0    0  0.84613858171E+01  0.17063463438E+02  0.94345475325E+01  0.21254823496E+02  0.51100000000E-03 0.  1.
         12    1    3    3    0    0  0.55521594934E+01 -0.32661755243E+01 -0.33419312534E+01  0.72569196012E+01  0.00000000000E+00 0. -1.
</event>
<event>
 7    1  0.7578565E-012  0.5930193E+02  0.7816164E-02  0.1266605E+00
        -11   -1    0    0    0    0  0.00000000000E+00  0.00000000000E+00  0.45593999997E+02  0.45594000000E+02  0.51100000000E-03 0.  1.
         11   -1    0    0    0    0 -0.00000000000E+00 -0.00000000000E+00 -0.45593999997E+02  0.45594000000E+02  0.51100000000E-03 0. -1.
    9900012    2    1    2    0    0 -0.19310101132E+02 -0.23657094488E+02  0.91751440831E+01  0.59301931031E+02  0.49999976298E+02 0.  0.
         12    1    1    2    0    0  0.19310101132E+02  0.23657094488E+02 -0.91751440831E+01  0.31886068969E+02  0.00000000000E+00 0. -1.
         11    1    3    3    0    0 -0.22134474558E+02 -0.85556249072E+01 -0.49791972939E+00  0.23735661058E+02  0.51100000000E-03 0. -1.
        -11    1    3    3    0    0  0.10550087374E+02 -0.21578059308E+02  0.54110354348E+01  0.24621053832E+02  0.51100000000E-03 0.  1.
        -12    1    3    3    0    0 -0.77257139473E+01  0.64765897268E+01  0.42620283777E+01  0.10945216141E+02  0.00000000000E+00 0.  1.
</event>
<event>
 7    1  0.7578565E-012  0.5930193E+02  0.7816164E-02  0.1266605E+00
        -11   -1    0    0    0    0  0.00000000000E+00  0.00000000000E+00  0.45593999997E+02  0.45594000000E+02  0.51100000000E-03 0.  1.
         11   -1    0    0    0    0 -0.00000000000E+00 -0.00000000000E+00 -0.45593999997E+02  0.45594000000E+02  0.51100000000E-03 0. -1.
    9900012    2    1    2    0    0  0.20976280722E+02 -0.23715727712E+02 -0.37790408155E+01  0.59301933398E+02  0.49999980614E+02 0.  0.
         12    1    1    2    0    0 -0.20976280722E+02  0.23715727712E+02  0.37790408155E+01  0.31886066602E+02  0.00000000000E+00 0. -1.
         11    1    3    3    0    0  0.13547781541E+02 -0.82164880388E+01  0.16105741499E+02  0.22593095624E+02  0.51100000000E-03 0. -1.
        -11    1    3    3    0    0  0.45588185403E+01 -0.20416466886E+02 -0.60936009975E+01  0.21788687890E+02  0.51100000000E-03 0.  1.
         12    1    3    3    0    0  0.28696806407E+01  0.49172272131E+01 -0.13791181317E+02  0.14920149884E+02  0.00000000000E+00 0. -1.
</event>
<event>
 7    1  0.7578565E-012  0.5930199E+02  0.7816164E-02  0.1266605E+00
        -11   -1    0    0    0    0  0.00000000000E+00  0.00000000000E+00  0.45593999997E+02  0.45594000000E+02  0.51100000000E-03 0.  1.
         11   -1    0    0    0    0 -0.00000000000E+00 -0.00000000000E+00 -0.45593999997E+02  0.45594000000E+02  0.51100000000E-03 0. -1.
    9900012    2    1    2    0    0  0.18819545128E+02 -0.85634682772E+01  0.24273639204E+02  0.59301986954E+02  0.50000078287E+02 0.  0.
         12    1    1    2    0    0 -0.18819545128E+02  0.85634682772E+01 -0.24273639204E+02  0.31886013046E+02  0.00000000000E+00 0. -1.
         11    1    3    3    0    0 -0.38689886125E+01 -0.40725335588E+01  0.21392018181E+02  0.22117256715E+02  0.51100000000E-03 0. -1.
        -11    1    3    3    0    0  0.15977052440E+02  0.11436784395E+02  0.31453537354E+01  0.19898730923E+02  0.51100000000E-03 0.  1.
         12    1    3    3    0    0  0.67114813010E+01 -0.15927719114E+02 -0.26373271224E+00  0.17285999316E+02  0.00000000000E+00 0. -1.
</event>
<event>
 7    1  0.7578565E-012  0.5930203E+02  0.7816164E-02  0.1266604E+00
        -11   -1    0    0    0    0  0.00000000000E+00  0.00000000000E+00  0.45593999997E+02  0.45594000000E+02  0.51100000000E-03 0.  1.
         11   -1    0    0    0    0 -0.00000000000E+00 -0.00000000000E+00 -0.45593999997E+02  0.45594000000E+02  0.51100000000E-03 0. -1.
    9900012    2    1    2    0    0 -0.25012996742E+02  0.48313213945E+01  0.19176109284E+02  0.59302033813E+02  0.50000163746E+02 0.  0.
         12    1    1    2    0    0  0.25012996742E+02 -0.48313213945E+01 -0.19176109284E+02  0.31885966187E+02  0.00000000000E+00 0. -1.
         11    1    3    3    0    0 -0.15915411325E+02  0.96900086104E+01  0.39247550534E+01  0.19042066248E+02  0.51100000000E-03 0. -1.
        -11    1    3    3    0    0  0.67037043219E+01 -0.15816869628E+02  0.11487634766E+02  0.20665884187E+02  0.51100000000E-03 0.  1.
        -12    1    3    3    0    0 -0.15801289739E+02  0.10958182412E+02  0.37637194646E+01  0.19594083377E+02  0.00000000000E+00 0.  1.
</event>
<event>
 7    1  0.7578565E-012  0.5930197E+02  0.7816164E-02  0.1266605E+00
        -11   -1    0    0    0    0  0.00000000000E+00  0.00000000000E+00  0.45593999997E+02  0.45594000000E+02  0.51100000000E-03 0.  1.
         11   -1    0    0    0    0 -0.00000000000E+00 -0.00000000000E+00 -0.45593999997E+02  0.45594000000E+02  0.51100000000E-03 0. -1.
    9900012    2    1    2    0    0 -0.90676068011E+01  0.27835256629E+02  0.12637095830E+02  0.59301965507E+02  0.50000039172E+02 0.  0.
         12    1    1    2    0    0  0.90676068011E+01 -0.27835256629E+02 -0.12637095830E+02  0.31886034493E+02  0.00000000000E+00 0. -1.
         11    1    3    3    0    0 -0.16747584200E+02 -0.74505505883E+01  0.10250960072E+02  0.21001772860E+02  0.51100000000E-03 0. -1.
        -11    1    3    3    0    0 -0.10564314269E+01  0.15930342192E+02 -0.33291751013E+01  0.16308747862E+02  0.51100000000E-03 0.  1.
         12    1    3    3    0    0  0.87364088254E+01  0.19355465025E+02  0.57153108594E+01  0.21991444784E+02  0.00000000000E+00 0. -1.
</event>
<event>
 7    1  0.7578565E-012  0.5930213E+02  0.7816164E-02  0.1266604E+00
        -11   -1    0    0    0    0  0.00000000000E+00  0.00000000000E+00  0.45593999997E+02  0.45594000000E+02  0.51100000000E-03 0.  1.
         11   -1    0    0    0    0 -0.00000000000E+00 -0.00000000000E+00 -0.45593999997E+02  0.45594000000E+02  0.51100000000E-03 0. -1.
    9900012    2    1    2    0    0 -0.80877457073E+01  0.24833126521E+02  0.18292419199E+02  0.59302134737E+02  0.50000347807E+02 0.  0.
         12    1    1    2    0    0  0.80877457073E+01 -0.24833126521E+02 -0.18292419199E+02  0.31885865263E+02  0.00000000000E+00 0. -1.
         11    1    3    3    0    0 -0.31677341520E+00 -0.12765371670E+02  0.14624513699E+02  0.19414722776E+02  0.51100000000E-03 0. -1.
        -11    1    3    3    0    0  0.71414592529E+00  0.20929785122E+02  0.31383938257E+01  0.21175821725E+02  0.51100000000E-03 0.  1.
         12    1    3    3    0    0 -0.84851182174E+01  0.16668713069E+02  0.52951167390E+00  0.18711590236E+02  0.00000000000E+00 0. -1.
</event>
<event>
 7    1  0.7578565E-012  0.5930194E+02  0.7816164E-02  0.1266605E+00
        -11   -1    0    0    0    0  0.00000000000E+00  0.00000000000E+00  0.45593999997E+02  0.45594000000E+02  0.51100000000E-03 0. -1.
         11   -1    0    0    0    0 -0.00000000000E+00 -0.00000000000E+00 -0.45593999997E+02  0.45594000000E+02  0.51100000000E-03 0.  1.
    9900012    2    1    2    0    0  0.92565717152E+01  0.30409026105E+02 -0.25154940737E+01  0.59301941933E+02  0.49999996180E+02 0.  0.
         12    1    1    2    0    0 -0.92565717152E+01 -0.30409026105E+02  0.25154940737E+01  0.31886058067E+02  0.00000000000E+00 0. -1.
         11    1    3    3    0    0  0.19645068578E+02  0.43501206870E+01 -0.10894507532E+02  0.22881052512E+02  0.51100000000E-03 0. -1.
        -11    1    3    3    0    0 -0.83180556523E+01  0.18870843954E+02 -0.48845861568E+01  0.21193347625E+02  0.51100000000E-03 0.  1.
         12    1    3    3    0    0 -0.20704412102E+01  0.71880614644E+01  0.13263599615E+02  0.15227541797E+02  0.00000000000E+00 0. -1.
</event>
<event>
 7    1  0.7578565E-012  0.5930195E+02  0.7816164E-02  0.1266605E+00
        -11   -1    0    0    0    0  0.00000000000E+00  0.00000000000E+00  0.45593999997E+02  0.45594000000E+02  0.51100000000E-03 0.  1.
         11   -1    0    0    0    0 -0.00000000000E+00 -0.00000000000E+00 -0.45593999997E+02  0.45594000000E+02  0.51100000000E-03 0. -1.
    9900012    2    1    2    0    0  0.78822704327E+01 -0.28387427202E+02  0.12196075803E+02  0.59301945442E+02  0.50000002579E+02 0.  0.
         12    1    1    2    0    0 -0.78822704327E+01  0.28387427202E+02 -0.12196075803E+02  0.31886054558E+02  0.00000000000E+00 0. -1.
         11    1    3    3    0    0  0.25088108414E+02 -0.46290532350E+01  0.41342194768E+01  0.25844401494E+02  0.51100000000E-03 0. -1.
        -11    1    3    3    0    0 -0.15802744660E+02 -0.17881670764E+02  0.62000243244E+00  0.23871851444E+02  0.51100000000E-03 0.  1.
        -12    1    3    3    0    0 -0.14030933211E+01 -0.58767032031E+01  0.74418538938E+01  0.95856925040E+01  0.00000000000E+00 0.  1.
</event>
<event>
 7    1  0.7578565E-012  0.5930190E+02  0.7816164E-02  0.1266605E+00
        -11   -1    0    0    0    0  0.00000000000E+00  0.00000000000E+00  0.45593999997E+02  0.45594000000E+02  0.51100000000E-03 0. -1.
         11   -1    0    0    0    0 -0.00000000000E+00 -0.00000000000E+00 -0.45593999997E+02  0.45594000000E+02  0.51100000000E-03 0.  1.
    9900012    2    1    2    0    0  0.85913060037E+01  0.10271178021E+02 -0.28938138761E+02  0.59301897827E+02  0.49999915742E+02 0.  0.
         12    1    1    2    0    0 -0.85913060037E+01 -0.10271178021E+02  0.28938138761E+02  0.31886102173E+02  0.00000000000E+00 0. -1.
         11    1    3    3    0    0  0.75606606403E+01  0.12343223911E+02 -0.47134984685E+01  0.15222872065E+02  0.51100000000E-03 0. -1.
        -11    1    3    3    0    0 -0.43799965064E+01 -0.99837250758E+01  0.59489185573E+01  0.12419692752E+02  0.51100000000E-03 0.  1.
        -12    1    3    3    0    0  0.54106418697E+01  0.79116791853E+01 -0.30173558850E+02  0.31659333010E+02  0.00000000000E+00 0.  1.
</event>
<event>
 7    1  0.7578565E-012  0.5930196E+02  0.7816164E-02  0.1266605E+00
        -11   -1    0    0    0    0  0.00000000000E+00  0.00000000000E+00  0.45593999997E+02  0.45594000000E+02  0.51100000000E-03 0. -1.
         11   -1    0    0    0    0 -0.00000000000E+00 -0.00000000000E+00 -0.45593999997E+02  0.45594000000E+02  0.51100000000E-03 0.  1.
    9900012    2    1    2    0    0 -0.12115089610E+02 -0.13422975505E+02  0.26263437551E+02  0.59301955722E+02  0.50000021328E+02 0.  0.
         12    1    1    2    0    0  0.12115089610E+02  0.13422975505E+02 -0.26263437551E+02  0.31886044278E+02  0.00000000000E+00 0. -1.
         11    1    3    3    0    0 -0.13905523595E+02 -0.48194849951E+01  0.70105506581E+01  0.16301498178E+02  0.51100000000E-03 0. -1.
        -11    1    3    3    0    0  0.19492358597E+02 -0.30727107605E+01  0.11944732510E+02  0.23066647570E+02  0.51100000000E-03 0.  1.
        -12    1    3    3    0    0 -0.17701924612E+02 -0.55307797492E+01  0.73081543833E+01  0.19933809975E+02  0.00000000000E+00 0.  1.
</event>
<event>
 7    1  0.7578565E-012  0.5930192E+02  0.7816164E-02  0.1266605E+00
        -11   -1    0    0    0    0  0.00000000000E+00  0.00000000000E+00  0.45593999997E+02  0.45594000000E+02  0.51100000000E-03 0.  1.
         11   -1    0    0    0    0 -0.00000000000E+00 -0.00000000000E+00 -0.45593999997E+02  0.45594000000E+02  0.51100000000E-03 0. -1.
    9900012    2    1    2    0    0  0.33859844527E+01  0.88848938996E+01  0.30435436615E+02  0.59301921027E+02  0.49999958053E+02 0.  0.
         12    1    1    2    0    0 -0.33859844527E+01 -0.88848938996E+01 -0.30435436615E+02  0.31886078973E+02  0.00000000000E+00 0. -1.
         11    1    3    3    0    0  0.64102089308E+01  0.24331747991E+02  0.76874897302E+01  0.26310116637E+02  0.51100000000E-03 0.  1.
        -11    1    3    3    0    0 -0.20449669648E+01 -0.21397084826E+01  0.18864156935E+02  0.19094938057E+02  0.51100000000E-03 0. -1.
         12    1    3    3    0    0 -0.97925751330E+00 -0.13307145609E+02  0.38837899499E+01  0.13896866334E+02  0.00000000000E+00 0. -1.
</event>
<event>
 7    1  0.7578565E-012  0.5930196E+02  0.7816164E-02  0.1266605E+00
        -11   -1    0    0    0    0  0.00000000000E+00  0.00000000000E+00  0.45593999997E+02  0.45594000000E+02  0.51100000000E-03 0. -1.
         11   -1    0    0    0    0 -0.00000000000E+00 -0.00000000000E+00 -0.45593999997E+02  0.45594000000E+02  0.51100000000E-03 0.  1.
    9900012    2    1    2    0    0  0.21530485573E+02  0.10751229993E+02 -0.20918145426E+02  0.59301959740E+02  0.50000028656E+02 0.  0.
         12    1    1    2    0    0 -0.21530485573E+02 -0.10751229993E+02  0.20918145426E+02  0.31886040260E+02  0.00000000000E+00 0. -1.
         11    1    3    3    0    0 -0.12926207730E+02  0.54532634395E+01 -0.15255992424E+02  0.20726076173E+02  0.51100000000E-03 0. -1.
        -11    1    3    3    0    0  0.11417578885E+02  0.25288546936E+00 -0.92794501389E+01  0.14715068936E+02  0.51100000000E-03 0.  1.
         12    1    3    3    0    0  0.23039114418E+02  0.50450810844E+01  0.36172971368E+01  0.23860814632E+02  0.00000000000E+00 0. -1.
</event>
<event>
 7    1  0.7578565E-012  0.5930191E+02  0.7816164E-02  0.1266605E+00
        -11   -1    0    0    0    0  0.00000000000E+00  0.00000000000E+00  0.45593999997E+02  0.45594000000E+02  0.51100000000E-03 0.  1.
         11   -1    0    0    0    0 -0.00000000000E+00 -0.00000000000E+00 -0.45593999997E+02  0.45594000000E+02  0.51100000000E-03 0. -1.
    9900012    2    1    2    0    0  0.95297006444E+01 -0.11946011481E+02  0.27985722115E+02  0.59301905429E+02  0.49999929606E+02 0.  0.
         12    1    1    2    0    0 -0.95297006444E+01  0.11946011481E+02 -0.27985722115E+02  0.31886094571E+02  0.00000000000E+00 0. -1.
         11    1    3    3    0    0  0.14075905511E+02 -0.86234789374E+01  0.43720917866E+01  0.17076612421E+02  0.51100000000E-03 0. -1.
        -11    1    3    3    0    0 -0.19531912367E+02 -0.25976440580E+00  0.11129092637E+02  0.22481543128E+02  0.51100000000E-03 0.  1.
        -12    1    3    3    0    0  0.14985707500E+02 -0.30627681376E+01  0.12484537692E+02  0.19743749880E+02  0.00000000000E+00 0.  1.
</event>
<event>
 7    1  0.7578565E-012  0.5930192E+02  0.7816164E-02  0.1266605E+00
        -11   -1    0    0    0    0  0.00000000000E+00  0.00000000000E+00  0.45593999997E+02  0.45594000000E+02  0.51100000000E-03 0.  1.
         11   -1    0    0    0    0 -0.00000000000E+00 -0.00000000000E+00 -0.45593999997E+02  0.45594000000E+02  0.51100000000E-03 0. -1.
    9900012    2    1    2    0    0  0.25984389750E+02  0.10779267787E+02  0.15011364537E+02  0.59301918554E+02  0.49999953543E+02 0.  0.
         12    1    1    2    0    0 -0.25984389750E+02 -0.10779267787E+02 -0.15011364537E+02  0.31886081446E+02  0.00000000000E+00 0. -1.
         11    1    3    3    0    0 -0.27381852098E+01 -0.77772337539E+01  0.33720092804E+01  0.89080564633E+01  0.51100000000E-03 0. -1.
        -11    1    3    3    0    0  0.33435697490E+02  0.91458788040E+01  0.16971144466E+02  0.38595501169E+02  0.51100000000E-03 0.  1.
        -12    1    3    3    0    0 -0.47131225297E+01  0.94106227368E+01 -0.53317892100E+01  0.11798360922E+02  0.00000000000E+00 0.  1.
</event>
<event>
 7    1  0.7578565E-012  0.5930195E+02  0.7816164E-02  0.1266605E+00
        -11   -1    0    0    0    0  0.00000000000E+00  0.00000000000E+00  0.45593999997E+02  0.45594000000E+02  0.51100000000E-03 0.  1.
         11   -1    0    0    0    0 -0.00000000000E+00 -0.00000000000E+00 -0.45593999997E+02  0.45594000000E+02  0.51100000000E-03 0. -1.
    9900012    2    1    2    0    0 -0.95934804245E+01  0.10577340466E+02  0.28509741003E+02  0.59301947719E+02  0.50000006732E+02 0.  0.
         12    1    1    2    0    0  0.95934804245E+01 -0.10577340466E+02 -0.28509741003E+02  0.31886052281E+02  0.00000000000E+00 0. -1.
         11    1    3    3    0    0 -0.94921138322E+01 -0.55068100379E+01 -0.25303583097E+00  0.10976757681E+02  0.51100000000E-03 0. -1.
        -11    1    3    3    0    0  0.15214752119E+02  0.46379148477E+01  0.29101475369E+01  0.16169968928E+02  0.51100000000E-03 0.  1.
        -12    1    3    3    0    0 -0.15316118711E+02  0.11446235656E+02  0.25852629297E+02  0.32155221110E+02  0.00000000000E+00 0.  1.
</event>
<event>
 7    1  0.7578565E-012  0.5930195E+02  0.7816164E-02  0.1266605E+00
        -11   -1    0    0    0    0  0.00000000000E+00  0.00000000000E+00  0.45593999997E+02  0.45594000000E+02  0.51100000000E-03 0. -1.
         11   -1    0    0    0    0 -0.00000000000E+00 -0.00000000000E+00 -0.45593999997E+02  0.45594000000E+02  0.51100000000E-03 0.  1.
    9900012    2    1    2    0    0  0.38788777259E+01 -0.31196624348E+02  0.53333749793E+01  0.59301953650E+02  0.50000017549E+02 0.  0.
         12    1    1    2    0    0 -0.38788777259E+01  0.31196624348E+02 -0.53333749793E+01  0.31886046350E+02  0.00000000000E+00 0. -1.
         11    1    3    3    0    0 -0.15147779973E+02 -0.29827515864E+02  0.95198144547E+01  0.34781644703E+02  0.51100000000E-03 0. -1.
        -11    1    3    3    0    0 -0.19400318199E+01  0.20653403008E+01  0.14437242219E+00  0.28372870277E+01  0.51100000000E-03 0.  1.
         12    1    3    3    0    0  0.20966689519E+02 -0.34344487850E+01 -0.43308118977E+01  0.21683021919E+02  0.00000000000E+00 0. -1.
</event>
<event>
 7    1  0.7578565E-012  0.5930195E+02  0.7816164E-02  0.1266605E+00
        -11   -1    0    0    0    0  0.00000000000E+00  0.00000000000E+00  0.45593999997E+02  0.45594000000E+02  0.51100000000E-03 0.  1.
         11   -1    0    0    0    0 -0.00000000000E+00 -0.00000000000E+00 -0.45593999997E+02  0.45594000000E+02  0.51100000000E-03 0. -1.
    9900012    2    1    2    0    0 -0.11605129357E+02  0.66609113289E+01  0.28942583147E+02  0.59301954677E+02  0.50000019421E+02 0.  0.
         12    1    1    2    0    0  0.11605129357E+02 -0.66609113289E+01 -0.28942583147E+02  0.31886045323E+02  0.00000000000E+00 0. -1.
         11    1    3    3    0    0 -0.28478288187E+02  0.17266826959E+01  0.24877873860E+02  0.37853704432E+02  0.51100000000E-03 0. -1.
        -11    1    3    3    0    0  0.13813064028E+02  0.85823841554E+01  0.26169697364E+01  0.16471386902E+02  0.51100000000E-03 0.  1.
         12    1    3    3    0    0  0.30600948025E+01 -0.36481555224E+01  0.14477395511E+01  0.49768633418E+01  0.00000000000E+00 0. -1.
</event>
<event>
 7    1  0.7578565E-012  0.5930192E+02  0.7816164E-02  0.1266605E+00
        -11   -1    0    0    0    0  0.00000000000E+00  0.00000000000E+00  0.45593999997E+02  0.45594000000E+02  0.51100000000E-03 0. -1.
         11   -1    0    0    0    0 -0.00000000000E+00 -0.00000000000E+00 -0.45593999997E+02  0.45594000000E+02  0.51100000000E-03 0.  1.
    9900012    2    1    2    0    0 -0.12570020674E+02 -0.24210531241E+02 -0.16509591071E+02  0.59301924041E+02  0.49999963549E+02 0.  0.
         12    1    1    2    0    0  0.12570020674E+02  0.24210531241E+02  0.16509591071E+02  0.31886075959E+02  0.00000000000E+00 0. -1.
         11    1    3    3    0    0  0.90412571015E+01 -0.22782734522E+02 -0.74845356125E+01  0.25628413838E+02  0.51100000000E-03 0. -1.
        -11    1    3    3    0    0 -0.21882837521E+02 -0.98619899979E+01 -0.65927753575E+01  0.24891406386E+02  0.51100000000E-03 0.  1.
        -12    1    3    3    0    0  0.27155974550E+00  0.84341932785E+01 -0.24322801011E+01  0.87821038166E+01  0.00000000000E+00 0.  1.
</event>
<event>
 7    1  0.7578565E-012  0.5930193E+02  0.7816164E-02  0.1266605E+00
        -11   -1    0    0    0    0  0.00000000000E+00  0.00000000000E+00  0.45593999997E+02  0.45594000000E+02  0.51100000000E-03 0.  1.
         11   -1    0    0    0    0 -0.00000000000E+00 -0.00000000000E+00 -0.45593999997E+02  0.45594000000E+02  0.51100000000E-03 0. -1.
    9900012    2    1    2    0    0 -0.15372269337E+02  0.96626725271E+01  0.26211586430E+02  0.59301934578E+02  0.49999982766E+02 0.  0.
         12    1    1    2    0    0  0.15372269337E+02 -0.96626725271E+01 -0.26211586430E+02  0.31886065422E+02  0.00000000000E+00 0. -1.
         11    1    3    3    0    0  0.65592287782E+01  0.21530456110E+02  0.24006938148E+00  0.22508701785E+02  0.51100000000E-03 0. -1.
        -11    1    3    3    0    0 -0.46436553977E+01 -0.22344976486E+01  0.10415522414E+02  0.11620654999E+02  0.51100000000E-03 0.  1.
         12    1    3    3    0    0 -0.17287842717E+02 -0.96332859346E+01  0.15555994635E+02  0.25172577794E+02  0.00000000000E+00 0. -1.
</event>
<event>
 7    1  0.7578565E-012  0.5930195E+02  0.7816164E-02  0.1266605E+00
        -11   -1    0    0    0    0  0.00000000000E+00  0.00000000000E+00  0.45593999997E+02  0.45594000000E+02  0.51100000000E-03 0. -1.
         11   -1    0    0    0    0 -0.00000000000E+00 -0.00000000000E+00 -0.45593999997E+02  0.45594000000E+02  0.51100000000E-03 0.  1.
    9900012    2    1    2    0    0 -0.31013580614E+02 -0.20794204636E+01 -0.71101452960E+01  0.59301947594E+02  0.50000006503E+02 0.  0.
         12    1    1    2    0    0  0.31013580614E+02  0.20794204636E+01  0.71101452960E+01  0.31886052406E+02  0.00000000000E+00 0. -1.
         11    1    3    3    0    0  0.12276068313E+02  0.47907853310E+01  0.30615627009E+01  0.13528734004E+02  0.51100000000E-03 0. -1.
        -11    1    3    3    0    0 -0.29027650916E+02 -0.10638090153E+01 -0.86057313261E+01  0.30295128639E+02  0.51100000000E-03 0.  1.
        -12    1    3    3    0    0 -0.14261998010E+02 -0.58063967794E+01 -0.15659766707E+01  0.15478084951E+02  0.00000000000E+00 0.  1.
</event>
<event>
 7    1  0.7578565E-012  0.5930194E+02  0.7816164E-02  0.1266605E+00
        -11   -1    0    0    0    0  0.00000000000E+00  0.00000000000E+00  0.45593999997E+02  0.45594000000E+02  0.51100000000E-03 0. -1.
         11   -1    0    0    0    0 -0.00000000000E+00 -0.00000000000E+00 -0.45593999997E+02  0.45594000000E+02  0.51100000000E-03 0.  1.
    9900012    2    1    2    0    0 -0.61071435493E+01 -0.26685867230E+02  0.16348949358E+02  0.59301939452E+02  0.49999991654E+02 0.  0.
         12    1    1    2    0    0  0.61071435493E+01  0.26685867230E+02 -0.16348949358E+02  0.31886060548E+02  0.00000000000E+00 0. -1.
         11    1    3    3    0    0 -0.18528946211E+01  0.31346069105E+01 -0.53960073342E+01  0.65096754430E+01  0.51100000000E-03 0. -1.
        -11    1    3    3    0    0  0.16232111541E+01 -0.36881730400E+02  0.23035612011E+02  0.43514782232E+02  0.51100000000E-03 0.  1.
        -12    1    3    3    0    0 -0.58774600823E+01  0.70612562587E+01 -0.12906553183E+01  0.92774817769E+01  0.00000000000E+00 0.  1.
</event>
<event>
 7    1  0.7578565E-012  0.5930196E+02  0.7816164E-02  0.1266605E+00
        -11   -1    0    0    0    0  0.00000000000E+00  0.00000000000E+00  0.45593999997E+02  0.45594000000E+02  0.51100000000E-03 0. -1.
         11   -1    0    0    0    0 -0.00000000000E+00 -0.00000000000E+00 -0.45593999997E+02  0.45594000000E+02  0.51100000000E-03 0.  1.
    9900012    2    1    2    0    0  0.21050173328E+02  0.23126648328E+02 -0.62264091544E+01  0.59301955545E+02  0.50000021005E+02 0.  0.
         12    1    1    2    0    0 -0.21050173328E+02 -0.23126648328E+02  0.62264091544E+01  0.31886044455E+02  0.00000000000E+00 0. -1.
         11    1    3    3    0    0 -0.56809306498E+01 -0.79459606506E+00  0.33496812942E+01  0.66426441263E+01  0.51100000000E-03 0. -1.
        -11    1    3    3    0    0  0.24461291081E+02  0.31360097330E+02  0.69228133953E+00  0.39778005476E+02  0.51100000000E-03 0.  1.
        -12    1    3    3    0    0  0.22698128970E+01 -0.74388529375E+01 -0.10268371788E+02  0.12881305943E+02  0.00000000000E+00 0.  1.
</event>
<event>
 7    1  0.7578565E-012  0.5930194E+02  0.7816164E-02  0.1266605E+00
        -11   -1    0    0    0    0  0.00000000000E+00  0.00000000000E+00  0.45593999997E+02  0.45594000000E+02  0.51100000000E-03 0.  1.
         11   -1    0    0    0    0 -0.00000000000E+00 -0.00000000000E+00 -0.45593999997E+02  0.45594000000E+02  0.51100000000E-03 0. -1.
    9900012    2    1    2    0    0 -0.16897322207E+02 -0.68188943017E+01  0.26166849402E+02  0.59301939959E+02  0.49999992580E+02 0.  0.
         12    1    1    2    0    0  0.16897322207E+02  0.68188943017E+01 -0.26166849402E+02  0.31886060041E+02  0.00000000000E+00 0. -1.
         11    1    3    3    0    0  0.12618349163E+02 -0.71652968666E+01 -0.24304583659E+01  0.14712965130E+02  0.51100000000E-03 0. -1.
        -11    1    3    3    0    0 -0.14733464816E+02 -0.99193617388E+00  0.25438536283E+02  0.29413909147E+02  0.51100000000E-03 0.  1.
        -12    1    3    3    0    0 -0.14782206553E+02  0.13383387388E+01  0.31587714858E+01  0.15175065682E+02  0.00000000000E+00 0.  1.
</event>
<event>
 7    1  0.7578565E-012  0.5930190E+02  0.7816164E-02  0.1266605E+00
        -11   -1    0    0    0    0  0.00000000000E+00  0.00000000000E+00  0.45593999997E+02  0.45594000000E+02  0.51100000000E-03 0. -1.
         11   -1    0    0    0    0 -0.00000000000E+00 -0.00000000000E+00 -0.45593999997E+02  0.45594000000E+02  0.51100000000E-03 0.  1.
    9900012    2    1    2    0    0 -0.31582197883E+02  0.43498297503E+01 -0.60603774865E+00  0.59301897639E+02  0.49999915399E+02 0.  0.
         12    1    1    2    0    0  0.31582197883E+02 -0.43498297503E+01  0.60603774865E+00  0.31886102361E+02  0.00000000000E+00 0. -1.
         11    1    3    3    0    0  0.35906725416E+01  0.10749716565E+02 -0.52108578894E+01  0.12474068131E+02  0.51100000000E-03 0. -1.
        -11    1    3    3    0    0 -0.18713143268E+02 -0.73721247606E+01  0.16891453588E+02  0.26265017780E+02  0.51100000000E-03 0.  1.
        -12    1    3    3    0    0 -0.16459727157E+02  0.97223794606E+00 -0.12286633447E+02  0.20562811728E+02  0.00000000000E+00 0.  1.
</event>
<event>
 7    1  0.7578565E-012  0.5930184E+02  0.7816164E-02  0.1266605E+00
        -11   -1    0    0    0    0  0.00000000000E+00  0.00000000000E+00  0.45593999997E+02  0.45594000000E+02  0.51100000000E-03 0.  1.
         11   -1    0    0    0    0 -0.00000000000E+00 -0.00000000000E+00 -0.45593999997E+02  0.45594000000E+02  0.51100000000E-03 0. -1.
    9900012    2    1    2    0    0 -0.26737863021E+02  0.16246236313E+02 -0.61541392529E+01  0.59301844020E+02  0.49999817609E+02 0.  0.
         12    1    1    2    0    0  0.26737863021E+02 -0.16246236313E+02  0.61541392529E+01  0.31886155980E+02  0.00000000000E+00 0. -1.
         11    1    3    3    0    0  0.15384678911E+01  0.14464169685E+02 -0.11008813208E+02  0.18242068321E+02  0.51100000000E-03 0. -1.
        -11    1    3    3    0    0 -0.30994156079E+02  0.10553137115E+01  0.12098736585E+02  0.33288599029E+02  0.51100000000E-03 0.  1.
        -12    1    3    3    0    0  0.27178251677E+01  0.72675291667E+00 -0.72440626304E+01  0.77711766701E+01  0.00000000000E+00 0.  1.
</event>
<event>
 7    1  0.7578565E-012  0.5930193E+02  0.7816164E-02  0.1266605E+00
        -11   -1    0    0    0    0  0.00000000000E+00  0.00000000000E+00  0.45593999997E+02  0.45594000000E+02  0.51100000000E-03 0. -1.
         11   -1    0    0    0    0 -0.00000000000E+00 -0.00000000000E+00 -0.45593999997E+02  0.45594000000E+02  0.51100000000E-03 0.  1.
    9900012    2    1    2    0    0  0.44637745350E+01 -0.25268786847E+02 -0.18928404390E+02  0.59301931497E+02  0.49999977147E+02 0.  0.
         12    1    1    2    0    0 -0.44637745350E+01  0.25268786847E+02  0.18928404390E+02  0.31886068503E+02  0.00000000000E+00 0. -1.
         11    1    3    3    0    0  0.17535507519E+02 -0.35997291529E+01  0.42813209357E+01  0.18406025729E+02  0.51100000000E-03 0. -1.
        -11    1    3    3    0    0 -0.15479004195E+02 -0.25067182786E+02 -0.21017290249E+02  0.36189635441E+02  0.51100000000E-03 0.  1.
         12    1    3    3    0    0  0.24072712113E+01  0.33981250920E+01 -0.21924350764E+01  0.47062703269E+01  0.00000000000E+00 0. -1.
</event>
<event>
 7    1  0.7578565E-012  0.5930195E+02  0.7816164E-02  0.1266605E+00
        -11   -1    0    0    0    0  0.00000000000E+00  0.00000000000E+00  0.45593999997E+02  0.45594000000E+02  0.51100000000E-03 0.  1.
         11   -1    0    0    0    0 -0.00000000000E+00 -0.00000000000E+00 -0.45593999997E+02  0.45594000000E+02  0.51100000000E-03 0. -1.
    9900012    2    1    2    0    0  0.28026899337E+01  0.31742296600E+02 -0.11364849524E+01  0.59301951917E+02  0.50000014388E+02 0.  0.
         12    1    1    2    0    0 -0.28026899337E+01 -0.31742296600E+02  0.11364849524E+01  0.31886048083E+02  0.00000000000E+00 0. -1.
         11    1    3    3    0    0 -0.96846830776E+01  0.18591074934E+01 -0.86697580237E+01  0.13130653885E+02  0.51100000000E-03 0. -1.
        -11    1    3    3    0    0  0.89285812646E+01  0.36705419748E+02  0.72903407617E+01  0.38472801704E+02  0.51100000000E-03 0.  1.
        -12    1    3    3    0    0  0.35587917467E+01 -0.68222306411E+01  0.24293230964E+00  0.76984963288E+01  0.00000000000E+00 0.  1.
</event>
<event>
 7    1  0.7578565E-012  0.5930195E+02  0.7816164E-02  0.1266605E+00
        -11   -1    0    0    0    0  0.00000000000E+00  0.00000000000E+00  0.45593999997E+02  0.45594000000E+02  0.51100000000E-03 0.  1.
         11   -1    0    0    0    0 -0.00000000000E+00 -0.00000000000E+00 -0.45593999997E+02  0.45594000000E+02  0.51100000000E-03 0. -1.
    9900012    2    1    2    0    0 -0.19304389889E+02  0.80329342364E+00  0.25365632410E+02  0.59301952003E+02  0.50000014545E+02 0.  0.
         12    1    1    2    0    0  0.19304389889E+02 -0.80329342364E+00 -0.25365632410E+02  0.31886047997E+02  0.00000000000E+00 0. -1.
         11    1    3    3    0    0 -0.35529600031E+01 -0.17348110584E+02 -0.54798014431E+01  0.18536684972E+02  0.51100000000E-03 0. -1.
        -11    1    3    3    0    0 -0.74056580999E+01  0.52545367997E+01  0.19988181125E+02  0.21954072830E+02  0.51100000000E-03 0.  1.
         12    1    3    3    0    0 -0.83457717862E+01  0.12896867208E+02  0.10857252727E+02  0.18811194201E+02  0.00000000000E+00 0. -1.
</event>
<event>
 7    1  0.7578565E-012  0.5930192E+02  0.7816164E-02  0.1266605E+00
        -11   -1    0    0    0    0  0.00000000000E+00  0.00000000000E+00  0.45593999997E+02  0.45594000000E+02  0.51100000000E-03 0. -1.
         11   -1    0    0    0    0 -0.00000000000E+00 -0.00000000000E+00 -0.45593999997E+02  0.45594000000E+02  0.51100000000E-03 0.  1.
    9900012    2    1    2    0    0  0.13695236766E+02  0.21702247052E+02 -0.18925521120E+02  0.59301915467E+02  0.49999947912E+02 0.  0.
         12    1    1    2    0    0 -0.13695236766E+02 -0.21702247052E+02  0.18925521120E+02  0.31886084533E+02  0.00000000000E+00 0. -1.
         11    1    3    3    0    0 -0.15718264626E+01 -0.76771227326E+00  0.10678804211E+01  0.20494851593E+01  0.51100000000E-03 0. -1.
        -11    1    3    3    0    0  0.28208341801E+02  0.56023060875E+01 -0.21546924629E+02  0.35935586010E+02  0.51100000000E-03 0.  1.
        -12    1    3    3    0    0 -0.12941278572E+02  0.16867653238E+02  0.15535230882E+01  0.21316844298E+02  0.00000000000E+00 0.  1.
</event>
<event>
 7    1  0.7578565E-012  0.5930183E+02  0.7816164E-02  0.1266605E+00
        -11   -1    0    0    0    0  0.00000000000E+00  0.00000000000E+00  0.45593999997E+02  0.45594000000E+02  0.51100000000E-03 0.  1.
         11   -1    0    0    0    0 -0.00000000000E+00 -0.00000000000E+00 -0.45593999997E+02  0.45594000000E+02  0.51100000000E-03 0. -1.
    9900012    2    1    2    0    0 -0.70349261604E+01  0.30326495865E+02 -0.68950039653E+01  0.59301833450E+02  0.49999798333E+02 0.  0.
         12    1    1    2    0    0  0.70349261604E+01 -0.30326495865E+02  0.68950039653E+01  0.31886166550E+02  0.00000000000E+00 0. -1.
         11    1    3    3    0    0  0.15889429309E+02  0.29003153064E+02 -0.80487572191E+01  0.34035853808E+02  0.51100000000E-03 0. -1.
        -11    1    3    3    0    0 -0.17951555010E+02  0.39594344818E+01  0.42135435498E+01  0.18859729537E+02  0.51100000000E-03 0.  1.
        -12    1    3    3    0    0 -0.49728004591E+01 -0.26360916804E+01 -0.30597902961E+01  0.64062501051E+01  0.00000000000E+00 0.  1.
</event>
<event>
 7    1  0.7578565E-012  0.5930229E+02  0.7816164E-02  0.1266604E+00
        -11   -1    0    0    0    0  0.00000000000E+00  0.00000000000E+00  0.45593999997E+02  0.45594000000E+02  0.51100000000E-03 0.  1.
         11   -1    0    0    0    0 -0.00000000000E+00 -0.00000000000E+00 -0.45593999997E+02  0.45594000000E+02  0.51100000000E-03 0. -1.
    9900012    2    1    2    0    0  0.21699077002E+02  0.14060697821E+02  0.18658651744E+02  0.59302290805E+02  0.50000632434E+02 0.  0.
         12    1    1    2    0    0 -0.21699077002E+02 -0.14060697821E+02 -0.18658651744E+02  0.31885709195E+02  0.00000000000E+00 0. -1.
         11    1    3    3    0    0 -0.26582522810E+00 -0.31586123508E+00 -0.88577596997E+01  0.88673749515E+01  0.51100000000E-03 0. -1.
        -11    1    3    3    0    0  0.13401671419E+02  0.12981586420E+02  0.34549868401E+02  0.39266013161E+02  0.51100000000E-03 0.  1.
        -12    1    3    3    0    0  0.85632308116E+01  0.13949726369E+01 -0.70334569564E+01  0.11168902692E+02  0.00000000000E+00 0.  1.
</event>
<event>
 7    1  0.7578565E-012  0.5930195E+02  0.7816164E-02  0.1266605E+00
        -11   -1    0    0    0    0  0.00000000000E+00  0.00000000000E+00  0.45593999997E+02  0.45594000000E+02  0.51100000000E-03 0.  1.
         11   -1    0    0    0    0 -0.00000000000E+00 -0.00000000000E+00 -0.45593999997E+02  0.45594000000E+02  0.51100000000E-03 0. -1.
    9900012    2    1    2    0    0 -0.13331460786E+02 -0.27750059348E+02 -0.83022057580E+01  0.59301948803E+02  0.50000008709E+02 0.  0.
         12    1    1    2    0    0  0.13331460786E+02  0.27750059348E+02  0.83022057580E+01  0.31886051197E+02  0.00000000000E+00 0. -1.
         11    1    3    3    0    0 -0.28906922000E+02 -0.10253963220E+02 -0.15017321501E+02  0.34150751772E+02  0.51100000000E-03 0. -1.
        -11    1    3    3    0    0  0.81495182144E+01 -0.46162330127E+01  0.23517874908E+01  0.96568710780E+01  0.51100000000E-03 0.  1.
         12    1    3    3    0    0  0.74259430004E+01 -0.12879863115E+02  0.43633282523E+01  0.15494325953E+02  0.00000000000E+00 0. -1.
</event>
<event>
 7    1  0.7578565E-012  0.5930195E+02  0.7816164E-02  0.1266605E+00
        -11   -1    0    0    0    0  0.00000000000E+00  0.00000000000E+00  0.45593999997E+02  0.45594000000E+02  0.51100000000E-03 0. -1.
         11   -1    0    0    0    0 -0.00000000000E+00 -0.00000000000E+00 -0.45593999997E+02  0.45594000000E+02  0.51100000000E-03 0.  1.
    9900012    2    1    2    0    0  0.14822866641E+02  0.28230597050E+02  0.19057576408E+00  0.59301948122E+02  0.50000007467E+02 0.  0.
         12    1    1    2    0    0 -0.14822866641E+02 -0.28230597050E+02 -0.19057576408E+00  0.31886051878E+02  0.00000000000E+00 0. -1.
         11    1    3    3    0    0  0.39384296428E+00  0.83117655537E+01  0.18401891792E+02  0.20195796114E+02  0.51100000000E-03 0. -1.
        -11    1    3    3    0    0  0.68960742982E+01  0.48914731173E+01 -0.20468157347E+02  0.22145604878E+02  0.51100000000E-03 0.  1.
        -12    1    3    3    0    0  0.75329493785E+01  0.15027358379E+02  0.22568413187E+01  0.16960547129E+02  0.00000000000E+00 0.  1.
</event>
<event>
 7    1  0.7578565E-012  0.5930194E+02  0.7816164E-02  0.1266605E+00
        -11   -1    0    0    0    0  0.00000000000E+00  0.00000000000E+00  0.45593999997E+02  0.45594000000E+02  0.51100000000E-03 0. -1.
         11   -1    0    0    0    0 -0.00000000000E+00 -0.00000000000E+00 -0.45593999997E+02  0.45594000000E+02  0.51100000000E-03 0.  1.
    9900012    2    1    2    0    0  0.31081575742E+02  0.63563566705E+01 -0.32020616265E+01  0.59301940046E+02  0.49999992739E+02 0.  0.
         12    1    1    2    0    0 -0.31081575742E+02 -0.63563566705E+01  0.32020616265E+01  0.31886059954E+02  0.00000000000E+00 0. -1.
         11    1    3    3    0    0  0.43252062463E+01  0.18899666507E+02 -0.15246093042E+02  0.24664714806E+02  0.51100000000E-03 0.  1.
        -11    1    3    3    0    0  0.22070918243E+02 -0.75772401082E+01  0.14392753189E+02  0.27416990067E+02  0.51100000000E-03 0. -1.
        -12    1    3    3    0    0  0.46854512523E+01 -0.49660697285E+01 -0.23487217735E+01  0.72202351731E+01  0.00000000000E+00 0.  1.
</event>
<event>
 7    1  0.7578565E-012  0.5930192E+02  0.7816164E-02  0.1266605E+00
        -11   -1    0    0    0    0  0.00000000000E+00  0.00000000000E+00  0.45593999997E+02  0.45594000000E+02  0.51100000000E-03 0. -1.
         11   -1    0    0    0    0 -0.00000000000E+00 -0.00000000000E+00 -0.45593999997E+02  0.45594000000E+02  0.51100000000E-03 0.  1.
    9900012    2    1    2    0    0 -0.29213713225E+02 -0.27106670965E+01 -0.12487335491E+02  0.59301916763E+02  0.49999950276E+02 0.  0.
         12    1    1    2    0    0  0.29213713225E+02  0.27106670965E+01  0.12487335491E+02  0.31886083237E+02  0.00000000000E+00 0. -1.
         11    1    3    3    0    0 -0.89750543018E+01  0.11998522556E+02  0.92640853532E+00  0.15012474023E+02  0.51100000000E-03 0. -1.
        -11    1    3    3    0    0  0.94238651105E+01 -0.41610681694E+01 -0.66238626030E+00  0.10322910333E+02  0.51100000000E-03 0.  1.
        -12    1    3    3    0    0 -0.29662524034E+02 -0.10548121483E+02 -0.12751357766E+02  0.33966532407E+02  0.00000000000E+00 0.  1.
</event>
<event>
 7    1  0.7578565E-012  0.5930199E+02  0.7816164E-02  0.1266605E+00
        -11   -1    0    0    0    0  0.00000000000E+00  0.00000000000E+00  0.45593999997E+02  0.45594000000E+02  0.51100000000E-03 0.  1.
         11   -1    0    0    0    0 -0.00000000000E+00 -0.00000000000E+00 -0.45593999997E+02  0.45594000000E+02  0.51100000000E-03 0. -1.
    9900012    2    1    2    0    0 -0.20050451024E+02 -0.24529443790E+02  0.36059966346E+01  0.59301993498E+02  0.50000090221E+02 0.  0.
         12    1    1    2    0    0  0.20050451024E+02  0.24529443790E+02 -0.36059966346E+01  0.31886006502E+02  0.00000000000E+00 0. -1.
         11    1    3    3    0    0 -0.16278761732E+01  0.96061491184E+01  0.82713291656E+01  0.12780569946E+02  0.51100000000E-03 0. -1.
        -11    1    3    3    0    0 -0.23915831551E+02 -0.32749733064E+02 -0.32541543865E+01  0.40682939122E+02  0.51100000000E-03 0.  1.
        -12    1    3    3    0    0  0.54932567001E+01 -0.13858598442E+01 -0.14111781445E+01  0.58384844297E+01  0.00000000000E+00 0.  1.
</event>
<event>
 7    1  0.7578565E-012  0.5930183E+02  0.7816164E-02  0.1266605E+00
        -11   -1    0    0    0    0  0.00000000000E+00  0.00000000000E+00  0.45593999997E+02  0.45594000000E+02  0.51100000000E-03 0. -1.
         11   -1    0    0    0    0 -0.00000000000E+00 -0.00000000000E+00 -0.45593999997E+02  0.45594000000E+02  0.51100000000E-03 0.  1.
    9900012    2    1    2    0    0 -0.98993049591E+01  0.25164555459E+02 -0.16896052452E+02  0.59301832488E+02  0.49999796578E+02 0.  0.
         12    1    1    2    0    0  0.98993049591E+01 -0.25164555459E+02  0.16896052452E+02  0.31886167512E+02  0.00000000000E+00 0. -1.
         11    1    3    3    0    0 -0.20219489762E+02 -0.21648306272E+00 -0.25366081064E+01  0.20379131780E+02  0.51100000000E-03 0. -1.
        -11    1    3    3    0    0  0.14719423148E+02  0.12485780084E+02 -0.24270616470E+00  0.19303238813E+02  0.51100000000E-03 0.  1.
         12    1    3    3    0    0 -0.43992383454E+01  0.12895258438E+02 -0.14116738181E+02  0.19619461896E+02  0.00000000000E+00 0. -1.
</event>
<event>
 7    1  0.7578565E-012  0.5930194E+02  0.7816164E-02  0.1266605E+00
        -11   -1    0    0    0    0  0.00000000000E+00  0.00000000000E+00  0.45593999997E+02  0.45594000000E+02  0.51100000000E-03 0. -1.
         11   -1    0    0    0    0 -0.00000000000E+00 -0.00000000000E+00 -0.45593999997E+02  0.45594000000E+02  0.51100000000E-03 0.  1.
    9900012    2    1    2    0    0  0.51346182227E+01 -0.27729775855E+01 -0.31347518832E+02  0.59301942766E+02  0.49999997700E+02 0.  0.
         12    1    1    2    0    0 -0.51346182227E+01  0.27729775855E+01  0.31347518832E+02  0.31886057234E+02  0.00000000000E+00 0. -1.
         11    1    3    3    0    0  0.65474488505E+01 -0.16047115406E+02 -0.22762209307E+02  0.28609389579E+02  0.51100000000E-03 0. -1.
        -11    1    3    3    0    0  0.12281448078E+01  0.20402886129E+02 -0.10316405332E+02  0.22895727141E+02  0.51100000000E-03 0.  1.
         12    1    3    3    0    0 -0.26409754356E+01 -0.71287483085E+01  0.17310958073E+01  0.77968260460E+01  0.00000000000E+00 0. -1.
</event>
<event>
 7    1  0.7578565E-012  0.5930191E+02  0.7816164E-02  0.1266605E+00
        -11   -1    0    0    0    0  0.00000000000E+00  0.00000000000E+00  0.45593999997E+02  0.45594000000E+02  0.51100000000E-03 0. -1.
         11   -1    0    0    0    0 -0.00000000000E+00 -0.00000000000E+00 -0.45593999997E+02  0.45594000000E+02  0.51100000000E-03 0.  1.
    9900012    2    1    2    0    0  0.80042504136E+01  0.12431295681E+02 -0.28250974239E+02  0.59301910832E+02  0.49999939458E+02 0.  0.
         12    1    1    2    0    0 -0.80042504136E+01 -0.12431295681E+02  0.28250974239E+02  0.31886089168E+02  0.00000000000E+00 0. -1.
         11    1    3    3    0    0 -0.53676869114E+01 -0.14778836424E+02 -0.95295484666E+01  0.18385819619E+02  0.51100000000E-03 0. -1.
        -11    1    3    3    0    0  0.18477256235E+02  0.22710100965E+02 -0.17153637243E+02  0.33932358520E+02  0.51100000000E-03 0.  1.
        -12    1    3    3    0    0 -0.51053189102E+01  0.45000311410E+01 -0.15677885298E+01  0.69837326924E+01  0.00000000000E+00 0.  1.
</event>
<event>
 7    1  0.7578565E-012  0.5930196E+02  0.7816164E-02  0.1266605E+00
        -11   -1    0    0    0    0  0.00000000000E+00  0.00000000000E+00  0.45593999997E+02  0.45594000000E+02  0.51100000000E-03 0. -1.
         11   -1    0    0    0    0 -0.00000000000E+00 -0.00000000000E+00 -0.45593999997E+02  0.45594000000E+02  0.51100000000E-03 0.  1.
    9900012    2    1    2    0    0  0.69582068196E+01 -0.84009732215E+01 -0.29962090006E+02  0.59301955549E+02  0.50000021013E+02 0.  0.
         12    1    1    2    0    0 -0.69582068196E+01  0.84009732215E+01  0.29962090006E+02  0.31886044451E+02  0.00000000000E+00 0. -1.
         11    1    3    3    0    0 -0.52639371246E+01  0.34250501256E+01  0.77873500412E+01  0.10004140310E+02  0.51100000000E-03 0. -1.
        -11    1    3    3    0    0  0.20052971280E+02 -0.77161277808E+01 -0.32660529701E+02  0.39094379208E+02  0.51100000000E-03 0.  1.
        -12    1    3    3    0    0 -0.78308273360E+01 -0.41098955664E+01 -0.50889103461E+01  0.10203436031E+02  0.00000000000E+00 0.  1.
</event>
<event>
 7    1  0.7578565E-012  0.5930197E+02  0.7816164E-02  0.1266605E+00
        -11   -1    0    0    0    0  0.00000000000E+00  0.00000000000E+00  0.45593999997E+02  0.45594000000E+02  0.51100000000E-03 0.  1.
         11   -1    0    0    0    0 -0.00000000000E+00 -0.00000000000E+00 -0.45593999997E+02  0.45594000000E+02  0.51100000000E-03 0. -1.
    9900012    2    1    2    0    0 -0.21617805057E+02  0.33786290664E+01  0.23194266918E+02  0.59301974100E+02  0.50000054844E+02 0.  0.
         12    1    1    2    0    0  0.21617805057E+02 -0.33786290664E+01 -0.23194266918E+02  0.31886025900E+02  0.00000000000E+00 0. -1.
         11    1    3    3    0    0  0.99657286890E+01  0.61282841866E+01  0.14548721312E+02  0.18669143190E+02  0.51100000000E-03 0. -1.
        -11    1    3    3    0    0 -0.26884862498E+02 -0.67379363524E+01  0.15220832958E+02  0.31620711156E+02  0.51100000000E-03 0.  1.
        -12    1    3    3    0    0 -0.46986712479E+01  0.39882812322E+01 -0.65752873519E+01  0.90121197530E+01  0.00000000000E+00 0.  1.
</event>
<event>
 7    1  0.7578565E-012  0.5930195E+02  0.7816164E-02  0.1266605E+00
        -11   -1    0    0    0    0  0.00000000000E+00  0.00000000000E+00  0.45593999997E+02  0.45594000000E+02  0.51100000000E-03 0. -1.
         11   -1    0    0    0    0 -0.00000000000E+00 -0.00000000000E+00 -0.45593999997E+02  0.45594000000E+02  0.51100000000E-03 0.  1.
    9900012    2    1    2    0    0 -0.42352202128E+01 -0.10551367877E+02 -0.29790131747E+02  0.59301946562E+02  0.50000004621E+02 0.  0.
         12    1    1    2    0    0  0.42352202128E+01  0.10551367877E+02  0.29790131747E+02  0.31886053438E+02  0.00000000000E+00 0. -1.
         11    1    3    3    0    0 -0.17160544300E+02  0.35962133134E+01 -0.19900005303E+02  0.26522202816E+02  0.51100000000E-03 0.  1.
        -11    1    3    3    0    0  0.28876147019E+01  0.85493703957E+00  0.72729989077E+01  0.78718326571E+01  0.51100000000E-03 0. -1.
         12    1    3    3    0    0  0.10037709385E+02 -0.15002518230E+02 -0.17163125352E+02  0.24907911089E+02  0.00000000000E+00 0. -1.
</event>
<event>
 7    1  0.7578565E-012  0.5930185E+02  0.7816164E-02  0.1266605E+00
        -11   -1    0    0    0    0  0.00000000000E+00  0.00000000000E+00  0.45593999997E+02  0.45594000000E+02  0.51100000000E-03 0.  1.
         11   -1    0    0    0    0 -0.00000000000E+00 -0.00000000000E+00 -0.45593999997E+02  0.45594000000E+02  0.51100000000E-03 0. -1.
    9900012    2    1    2    0    0  0.17789251277E+02  0.55496476113E+01  0.25874122141E+02  0.59301854950E+02  0.49999837542E+02 0.  0.
         12    1    1    2    0    0 -0.17789251277E+02 -0.55496476113E+01 -0.25874122141E+02  0.31886145050E+02  0.00000000000E+00 0. -1.
         11    1    3    3    0    0 -0.48356096405E-01 -0.13174786517E+02  0.18777601400E+02  0.22938518973E+02  0.51100000000E-03 0.  1.
        -11    1    3    3    0    0  0.19790597136E+02  0.10959891854E+02 -0.36987598150E+01  0.22923084192E+02  0.51100000000E-03 0. -1.
        -12    1    3    3    0    0 -0.19529897625E+01  0.77645422743E+01  0.10795280556E+02  0.13440251785E+02  0.00000000000E+00 0.  1.
</event>
<event>
 7    1  0.7578565E-012  0.5930188E+02  0.7816164E-02  0.1266605E+00
        -11   -1    0    0    0    0  0.00000000000E+00  0.00000000000E+00  0.45593999997E+02  0.45594000000E+02  0.51100000000E-03 0.  1.
         11   -1    0    0    0    0 -0.00000000000E+00 -0.00000000000E+00 -0.45593999997E+02  0.45594000000E+02  0.51100000000E-03 0. -1.
    9900012    2    1    2    0    0  0.22449351937E+02  0.21219496084E+02  0.79046825299E+01  0.59301883549E+02  0.49999889700E+02 0.  0.
         12    1    1    2    0    0 -0.22449351937E+02 -0.21219496084E+02 -0.79046825299E+01  0.31886116451E+02  0.00000000000E+00 0. -1.
         11    1    3    3    0    0  0.97051262907E+01  0.17209186644E+02 -0.14712057810E+02  0.24633112400E+02  0.51100000000E-03 0. -1.
        -11    1    3    3    0    0 -0.52071834247E+01  0.63056872265E+01  0.69727153624E+01  0.10746869796E+02  0.51100000000E-03 0.  1.
         12    1    3    3    0    0  0.17951409071E+02 -0.22953777861E+01  0.15644024978E+02  0.23921901352E+02  0.00000000000E+00 0. -1.
</event>
<event>
 7    1  0.7578565E-012  0.5930192E+02  0.7816164E-02  0.1266605E+00
        -11   -1    0    0    0    0  0.00000000000E+00  0.00000000000E+00  0.45593999997E+02  0.45594000000E+02  0.51100000000E-03 0.  1.
         11   -1    0    0    0    0 -0.00000000000E+00 -0.00000000000E+00 -0.45593999997E+02  0.45594000000E+02  0.51100000000E-03 0. -1.
    9900012    2    1    2    0    0 -0.11405128177E+02 -0.27176679191E+02  0.12168532271E+02  0.59301921248E+02  0.49999958455E+02 0.  0.
         12    1    1    2    0    0  0.11405128177E+02  0.27176679191E+02 -0.12168532271E+02  0.31886078752E+02  0.00000000000E+00 0. -1.
         11    1    3    3    0    0  0.40436458104E+01  0.27561394298E+01 -0.30439316150E+01  0.57630630688E+01  0.51100000000E-03 0. -1.
        -11    1    3    3    0    0 -0.21927834952E+02 -0.35868072685E+02  0.15340369699E+02  0.44751262849E+02  0.51100000000E-03 0.  1.
        -12    1    3    3    0    0  0.64790609642E+01  0.59352540642E+01 -0.12790581357E+00  0.87875953299E+01  0.00000000000E+00 0.  1.
</event>
<event>
 7    1  0.7578565E-012  0.5930194E+02  0.7816164E-02  0.1266605E+00
        -11   -1    0    0    0    0  0.00000000000E+00  0.00000000000E+00  0.45593999997E+02  0.45594000000E+02  0.51100000000E-03 0.  1.
         11   -1    0    0    0    0 -0.00000000000E+00 -0.00000000000E+00 -0.45593999997E+02  0.45594000000E+02  0.51100000000E-03 0. -1.
    9900012    2    1    2    0    0 -0.27294340698E+02  0.16213412219E+02  0.29773839168E+01  0.59301943722E+02  0.49999999443E+02 0.  0.
         12    1    1    2    0    0  0.27294340698E+02 -0.16213412219E+02 -0.29773839168E+01  0.31886056278E+02  0.00000000000E+00 0. -1.
         11    1    3    3    0    0 -0.82435886939E+00  0.28731358725E+02  0.68511894107E+01  0.29548423619E+02  0.51100000000E-03 0. -1.
        -11    1    3    3    0    0 -0.11723451605E+02 -0.62438089853E+01 -0.34452406711E+01  0.13722031618E+02  0.51100000000E-03 0.  1.
         12    1    3    3    0    0 -0.14746530224E+02 -0.62741375205E+01 -0.42856482271E+00  0.16031488486E+02  0.00000000000E+00 0. -1.
</event>
<event>
 7    1  0.7578565E-012  0.5930196E+02  0.7816164E-02  0.1266605E+00
        -11   -1    0    0    0    0  0.00000000000E+00  0.00000000000E+00  0.45593999997E+02  0.45594000000E+02  0.51100000000E-03 0. -1.
         11   -1    0    0    0    0 -0.00000000000E+00 -0.00000000000E+00 -0.45593999997E+02  0.45594000000E+02  0.51100000000E-03 0.  1.
    9900012    2    1    2    0    0 -0.14972747721E+02 -0.21665125587E+01 -0.28068537562E+02  0.59301956786E+02  0.50000023268E+02 0.  0.
         12    1    1    2    0    0  0.14972747721E+02  0.21665125587E+01  0.28068537562E+02  0.31886043214E+02  0.00000000000E+00 0. -1.
         11    1    3    3    0    0 -0.31145578702E+01 -0.12991291806E+02  0.47762252496E+01  0.14187545997E+02  0.51100000000E-03 0. -1.
        -11    1    3    3    0    0 -0.91364202721E+01  0.76039505968E+01 -0.37199567661E+02  0.39052555288E+02  0.51100000000E-03 0.  1.
        -12    1    3    3    0    0 -0.27217695782E+01  0.32208286509E+01  0.43548048494E+01  0.60618555007E+01  0.00000000000E+00 0.  1.
</event>
<event>
 7    1  0.7578565E-012  0.5930197E+02  0.7816164E-02  0.1266605E+00
        -11   -1    0    0    0    0  0.00000000000E+00  0.00000000000E+00  0.45593999997E+02  0.45594000000E+02  0.51100000000E-03 0.  1.
         11   -1    0    0    0    0 -0.00000000000E+00 -0.00000000000E+00 -0.45593999997E+02  0.45594000000E+02  0.51100000000E-03 0. -1.
    9900012    2    1    2    0    0 -0.23043201562E+02  0.14228664645E+02  0.16830771280E+02  0.59301970180E+02  0.50000047695E+02 0.  0.
         12    1    1    2    0    0  0.23043201562E+02 -0.14228664645E+02 -0.16830771280E+02  0.31886029820E+02  0.00000000000E+00 0. -1.
         11    1    3    3    0    0  0.52391021189E+01 -0.11781768898E+02  0.13948706289E+02  0.18995385670E+02  0.51100000000E-03 0. -1.
        -11    1    3    3    0    0 -0.25985093301E+02  0.17855588692E+02  0.39189559278E+01  0.31771140005E+02  0.51100000000E-03 0.  1.
         12    1    3    3    0    0 -0.22972103798E+01  0.81548448512E+01 -0.10368909364E+01  0.85354445045E+01  0.00000000000E+00 0. -1.
</event>
<event>
 7    1  0.7578565E-012  0.5930196E+02  0.7816164E-02  0.1266605E+00
        -11   -1    0    0    0    0  0.00000000000E+00  0.00000000000E+00  0.45593999997E+02  0.45594000000E+02  0.51100000000E-03 0.  1.
         11   -1    0    0    0    0 -0.00000000000E+00 -0.00000000000E+00 -0.45593999997E+02  0.45594000000E+02  0.51100000000E-03 0. -1.
    9900012    2    1    2    0    0 -0.10848915584E+02  0.18676560657E+02  0.23456490342E+02  0.59301955615E+02  0.50000021133E+02 0.  0.
         12    1    1    2    0    0  0.10848915584E+02 -0.18676560657E+02 -0.23456490342E+02  0.31886044385E+02  0.00000000000E+00 0. -1.
         11    1    3    3    0    0 -0.87803479706E+01 -0.33660303224E+01 -0.59675639214E+01  0.11137167056E+02  0.51100000000E-03 0. -1.
        -11    1    3    3    0    0 -0.15244976320E+02  0.19181415996E+02  0.20969544673E+02  0.32249927545E+02  0.51100000000E-03 0.  1.
        -12    1    3    3    0    0  0.13176408706E+02  0.28611749831E+01  0.84545095911E+01  0.15914861014E+02  0.00000000000E+00 0.  1.
</event>
<event>
 7    1  0.7578565E-012  0.5930197E+02  0.7816164E-02  0.1266605E+00
        -11   -1    0    0    0    0  0.00000000000E+00  0.00000000000E+00  0.45593999997E+02  0.45594000000E+02  0.51100000000E-03 0.  1.
         11   -1    0    0    0    0 -0.00000000000E+00 -0.00000000000E+00 -0.45593999997E+02  0.45594000000E+02  0.51100000000E-03 0. -1.
    9900012    2    1    2    0    0  0.21541691198E+02 -0.10052298396E+02  0.21251485129E+02  0.59301971980E+02  0.50000050978E+02 0.  0.
         12    1    1    2    0    0 -0.21541691198E+02  0.10052298396E+02 -0.21251485129E+02  0.31886028020E+02  0.00000000000E+00 0. -1.
         11    1    3    3    0    0  0.26878346072E+02  0.56146133349E+01  0.31164179780E+01  0.27634786624E+02  0.51100000000E-03 0. -1.
        -11    1    3    3    0    0  0.32434939751E+01  0.14921187559E+01  0.10375678882E+02  0.10972756449E+02  0.51100000000E-03 0.  1.
         12    1    3    3    0    0 -0.85801488488E+01 -0.17159030486E+02  0.77593882686E+01  0.20694428907E+02  0.00000000000E+00 0. -1.
</event>
<event>
 7    1  0.7578565E-012  0.5930194E+02  0.7816164E-02  0.1266605E+00
        -11   -1    0    0    0    0  0.00000000000E+00  0.00000000000E+00  0.45593999997E+02  0.45594000000E+02  0.51100000000E-03 0.  1.
         11   -1    0    0    0    0 -0.00000000000E+00 -0.00000000000E+00 -0.45593999997E+02  0.45594000000E+02  0.51100000000E-03 0. -1.
    9900012    2    1    2    0    0  0.27591111561E+02  0.11426094029E+02  0.11175681256E+02  0.59301938571E+02  0.49999990048E+02 0.  0.
         12    1    1    2    0    0 -0.27591111561E+02 -0.11426094029E+02 -0.11175681256E+02  0.31886061429E+02  0.00000000000E+00 0. -1.
         11    1    3    3    0    0 -0.22110537943E+01 -0.12021270926E+02 -0.20400636405E+01  0.12391996348E+02  0.51100000000E-03 0. -1.
        -11    1    3    3    0    0  0.28083841204E+02  0.22546022010E+02  0.19063601214E+02  0.40748572205E+02  0.51100000000E-03 0.  1.
         12    1    3    3    0    0  0.17183241508E+01  0.90134294522E+00 -0.58478563171E+01  0.61613700179E+01  0.00000000000E+00 0. -1.
</event>
<event>
 7    1  0.7578565E-012  0.5930200E+02  0.7816164E-02  0.1266605E+00
        -11   -1    0    0    0    0  0.00000000000E+00  0.00000000000E+00  0.45593999997E+02  0.45594000000E+02  0.51100000000E-03 0.  1.
         11   -1    0    0    0    0 -0.00000000000E+00 -0.00000000000E+00 -0.45593999997E+02  0.45594000000E+02  0.51100000000E-03 0. -1.
    9900012    2    1    2    0    0  0.14363366283E+02 -0.23322862929E+02  0.16323435650E+02  0.59302003425E+02  0.50000108326E+02 0.  0.
         12    1    1    2    0    0 -0.14363366283E+02  0.23322862929E+02 -0.16323435650E+02  0.31885996575E+02  0.00000000000E+00 0. -1.
         11    1    3    3    0    0  0.11850886453E+02 -0.12488366412E+02  0.10938382404E+02  0.20397328630E+02  0.51100000000E-03 0.  1.
        -11    1    3    3    0    0 -0.16810719512E+02 -0.52783621474E+01  0.64675867300E+01  0.18769418633E+02  0.51100000000E-03 0. -1.
         12    1    3    3    0    0  0.19323199342E+02 -0.55561343699E+01 -0.10825334846E+01  0.20135256161E+02  0.00000000000E+00 0. -1.
</event>
<event>
 7    1  0.7578565E-012  0.5930201E+02  0.7816164E-02  0.1266605E+00
        -11   -1    0    0    0    0  0.00000000000E+00  0.00000000000E+00  0.45593999997E+02  0.45594000000E+02  0.51100000000E-03 0. -1.
         11   -1    0    0    0    0 -0.00000000000E+00 -0.00000000000E+00 -0.45593999997E+02  0.45594000000E+02  0.51100000000E-03 0.  1.
    9900012    2    1    2    0    0  0.18050605313E+02 -0.92044521931E+01 -0.24620523557E+02  0.59302008208E+02  0.50000117049E+02 0.  0.
         12    1    1    2    0    0 -0.18050605313E+02  0.92044521931E+01  0.24620523557E+02  0.31885991792E+02  0.00000000000E+00 0. -1.
         11    1    3    3    0    0  0.17668616875E+02  0.86239108743E+01 -0.10204878520E+01  0.19687388267E+02  0.51100000000E-03 0. -1.
        -11    1    3    3    0    0  0.10089896491E+02 -0.16975547640E+02 -0.81836732439E+01  0.21376335909E+02  0.51100000000E-03 0.  1.
         12    1    3    3    0    0 -0.97079080530E+01 -0.85281542777E+00 -0.15416362461E+02  0.18238284033E+02  0.00000000000E+00 0. -1.
</event>
<event>
 7    1  0.7578565E-012  0.5930194E+02  0.7816164E-02  0.1266605E+00
        -11   -1    0    0    0    0  0.00000000000E+00  0.00000000000E+00  0.45593999997E+02  0.45594000000E+02  0.51100000000E-03 0.  1.
         11   -1    0    0    0    0 -0.00000000000E+00 -0.00000000000E+00 -0.45593999997E+02  0.45594000000E+02  0.51100000000E-03 0. -1.
    9900012    2    1    2    0    0 -0.24446909863E+02  0.74589349232E+01  0.19063937936E+02  0.59301939697E+02  0.49999992101E+02 0.  0.
         12    1    1    2    0    0  0.24446909863E+02 -0.74589349232E+01 -0.19063937936E+02  0.31886060303E+02  0.00000000000E+00 0. -1.
         11    1    3    3    0    0  0.86308550099E+00 -0.11075820602E+02  0.18738027175E+02  0.21783764166E+02  0.51100000000E-03 0.  1.
        -11    1    3    3    0    0 -0.20876381563E+02  0.14700772918E+02 -0.85108912543E+01  0.26914146870E+02  0.51100000000E-03 0. -1.
        -12    1    3    3    0    0 -0.44336138017E+01  0.38339826077E+01  0.88368020152E+01  0.10604028661E+02  0.00000000000E+00 0.  1.
</event>
<event>
 7    1  0.7578565E-012  0.5930195E+02  0.7816164E-02  0.1266605E+00
        -11   -1    0    0    0    0  0.00000000000E+00  0.00000000000E+00  0.45593999997E+02  0.45594000000E+02  0.51100000000E-03 0.  1.
         11   -1    0    0    0    0 -0.00000000000E+00 -0.00000000000E+00 -0.45593999997E+02  0.45594000000E+02  0.51100000000E-03 0. -1.
    9900012    2    1    2    0    0 -0.15284883910E+02  0.21527307322E+02  0.17879249089E+02  0.59301949999E+02  0.50000010891E+02 0.  0.
         12    1    1    2    0    0  0.15284883910E+02 -0.21527307322E+02 -0.17879249089E+02  0.31886050001E+02  0.00000000000E+00 0. -1.
         11    1    3    3    0    0 -0.21081696529E+02  0.15142880481E+02 -0.48669943068E+00  0.25961156261E+02  0.51100000000E-03 0. -1.
        -11    1    3    3    0    0  0.14300687621E+02  0.25780355012E+01  0.22203669114E+01  0.14699862685E+02  0.51100000000E-03 0.  1.
        -12    1    3    3    0    0 -0.85038750018E+01  0.38063913393E+01  0.16145581608E+02  0.18640931054E+02  0.00000000000E+00 0.  1.
</event>
<event>
 7    1  0.7578565E-012  0.5930202E+02  0.7816164E-02  0.1266605E+00
        -11   -1    0    0    0    0  0.00000000000E+00  0.00000000000E+00  0.45593999997E+02  0.45594000000E+02  0.51100000000E-03 0.  1.
         11   -1    0    0    0    0 -0.00000000000E+00 -0.00000000000E+00 -0.45593999997E+02  0.45594000000E+02  0.51100000000E-03 0. -1.
    9900012    2    1    2    0    0 -0.73699532904E+01  0.31007690959E+02  0.96060610544E+00  0.59302017591E+02  0.50000134162E+02 0.  0.
         12    1    1    2    0    0  0.73699532904E+01 -0.31007690959E+02 -0.96060610544E+00  0.31885982409E+02  0.00000000000E+00 0. -1.
         11    1    3    3    0    0  0.85293329798E+00  0.69315751221E+01 -0.22570630230E+02  0.23626416955E+02  0.51100000000E-03 0. -1.
        -11    1    3    3    0    0 -0.84092411994E+01  0.20984257147E+02  0.16485402952E+02  0.27978972396E+02  0.51100000000E-03 0.  1.
         12    1    3    3    0    0  0.18635461104E+00  0.30918586893E+01  0.70458333840E+01  0.76966282404E+01  0.00000000000E+00 0. -1.
</event>
<event>
 7    1  0.7578565E-012  0.5930195E+02  0.7816164E-02  0.1266605E+00
        -11   -1    0    0    0    0  0.00000000000E+00  0.00000000000E+00  0.45593999997E+02  0.45594000000E+02  0.51100000000E-03 0.  1.
         11   -1    0    0    0    0 -0.00000000000E+00 -0.00000000000E+00 -0.45593999997E+02  0.45594000000E+02  0.51100000000E-03 0. -1.
    9900012    2    1    2    0    0  0.20686440079E+02  0.21093531479E+02  0.11993916106E+02  0.59301954510E+02  0.50000019118E+02 0.  0.
         12    1    1    2    0    0 -0.20686440079E+02 -0.21093531479E+02 -0.11993916106E+02  0.31886045490E+02  0.00000000000E+00 0. -1.
         11    1    3    3    0    0 -0.90698297884E+00  0.21556665954E+02 -0.26459031980E+01  0.21737370337E+02  0.51100000000E-03 0. -1.
        -11    1    3    3    0    0  0.18164619272E+02  0.11930450355E+02  0.94386153395E+01  0.23693385127E+02  0.51100000000E-03 0.  1.
         12    1    3    3    0    0  0.34288037855E+01 -0.12393584829E+02  0.52012039650E+01  0.13871199047E+02  0.00000000000E+00 0. -1.
</event>
<event>
 7    1  0.7578565E-012  0.5930192E+02  0.7816164E-02  0.1266605E+00
        -11   -1    0    0    0    0  0.00000000000E+00  0.00000000000E+00  0.45593999997E+02  0.45594000000E+02  0.51100000000E-03 0. -1.
         11   -1    0    0    0    0 -0.00000000000E+00 -0.00000000000E+00 -0.45593999997E+02  0.45594000000E+02  0.51100000000E-03 0.  1.
    9900012    2    1    2    0    0  0.16847204420E+02 -0.11806034625E+02 -0.24362090523E+02  0.59301918319E+02  0.49999953113E+02 0.  0.
         12    1    1    2    0    0 -0.16847204420E+02  0.11806034625E+02  0.24362090523E+02  0.31886081681E+02  0.00000000000E+00 0. -1.
         11    1    3    3    0    0  0.39336591548E+01 -0.53803842051E+01 -0.52189770070E+01  0.84652188278E+01  0.51100000000E-03 0. -1.
        -11    1    3    3    0    0 -0.82128890257E+01  0.53994102719E+01  0.92678667694E+01  0.13509201758E+02  0.51100000000E-03 0.  1.
        -12    1    3    3    0    0  0.21126434291E+02 -0.11825060692E+02 -0.28410980285E+02  0.37327497733E+02  0.00000000000E+00 0.  1.
</event>
<event>
 7    1  0.7578565E-012  0.5930197E+02  0.7816164E-02  0.1266605E+00
        -11   -1    0    0    0    0  0.00000000000E+00  0.00000000000E+00  0.45593999997E+02  0.45594000000E+02  0.51100000000E-03 0.  1.
         11   -1    0    0    0    0 -0.00000000000E+00 -0.00000000000E+00 -0.45593999997E+02  0.45594000000E+02  0.51100000000E-03 0. -1.
    9900012    2    1    2    0    0  0.83339230451E+01  0.17403969703E+02  0.25384372627E+02  0.59301971580E+02  0.50000050248E+02 0.  0.
         12    1    1    2    0    0 -0.83339230451E+01 -0.17403969703E+02 -0.25384372627E+02  0.31886028420E+02  0.00000000000E+00 0. -1.
         11    1    3    3    0    0 -0.24019619772E+01 -0.57136256831E+01  0.23439109028E+01  0.66263759604E+01  0.51100000000E-03 0. -1.
        -11    1    3    3    0    0 -0.59931491208E+01  0.23285390106E+02  0.26296393684E+02  0.35631833378E+02  0.51100000000E-03 0.  1.
        -12    1    3    3    0    0  0.16729034143E+02 -0.16779472054E+00 -0.32559319597E+01  0.17043762242E+02  0.00000000000E+00 0.  1.
</event>
<event>
 7    1  0.7578565E-012  0.5930191E+02  0.7816164E-02  0.1266605E+00
        -11   -1    0    0    0    0  0.00000000000E+00  0.00000000000E+00  0.45593999997E+02  0.45594000000E+02  0.51100000000E-03 0.  1.
         11   -1    0    0    0    0 -0.00000000000E+00 -0.00000000000E+00 -0.45593999997E+02  0.45594000000E+02  0.51100000000E-03 0. -1.
    9900012    2    1    2    0    0  0.10929971201E+02  0.13758207036E+02 -0.26607704705E+02  0.59301913991E+02  0.49999945221E+02 0.  0.
         12    1    1    2    0    0 -0.10929971201E+02 -0.13758207036E+02  0.26607704705E+02  0.31886086009E+02  0.00000000000E+00 0. -1.
         11    1    3    3    0    0 -0.37187467353E+01  0.21434627474E+02 -0.18967045089E+02  0.28862105465E+02  0.51100000000E-03 0. -1.
        -11    1    3    3    0    0  0.20513912463E+02 -0.30851710810E+01 -0.94176900633E+01  0.22782268797E+02  0.51100000000E-03 0.  1.
         12    1    3    3    0    0 -0.58651945268E+01 -0.45912493569E+01  0.17770304474E+01  0.76575397293E+01  0.00000000000E+00 0. -1.
</event>
<event>
 7    1  0.9369319E-012  0.5930194E+02  0.7816164E-02  0.1266605E+00
        -11   -1    0    0    0    0  0.00000000000E+00  0.00000000000E+00  0.45593999997E+02  0.45594000000E+02  0.51100000000E-03 0. -1.
         11   -1    0    0    0    0 -0.00000000000E+00 -0.00000000000E+00 -0.45593999997E+02  0.45594000000E+02  0.51100000000E-03 0.  1.
    9900012    2    1    2    0    0  0.25026318023E+02  0.14853910088E+02 -0.13029402950E+02  0.59301943801E+02  0.49999999587E+02 0.  0.
         12    1    1    2    0    0 -0.25026318023E+02 -0.14853910088E+02  0.13029402950E+02  0.31886056199E+02  0.00000000000E+00 0. -1.
         11    1    3    3    0    0  0.71810803859E+01 -0.34209369584E+01  0.13065585509E+02  0.15296412982E+02  0.51100000000E-03 0. -1.
        -11    1    3    3    0    0  0.59970524156E+01  0.21610431049E+02 -0.12536047746E+02  0.25692953531E+02  0.51100000000E-03 0.  1.
        -12    1    3    3    0    0  0.11848185221E+02 -0.33355840026E+01 -0.13558940713E+02  0.18312577288E+02  0.00000000000E+00 0.  1.
</event>
<event>
 7    1  0.7578565E-012  0.5930180E+02  0.7816164E-02  0.1266605E+00
        -11   -1    0    0    0    0  0.00000000000E+00  0.00000000000E+00  0.45593999997E+02  0.45594000000E+02  0.51100000000E-03 0.  1.
         11   -1    0    0    0    0 -0.00000000000E+00 -0.00000000000E+00 -0.45593999997E+02  0.45594000000E+02  0.51100000000E-03 0. -1.
    9900012    2    1    2    0    0 -0.26807317627E+02 -0.52372250976E+01  0.16452020839E+02  0.59301799305E+02  0.49999736060E+02 0.  0.
         12    1    1    2    0    0  0.26807317627E+02  0.52372250976E+01 -0.16452020839E+02  0.31886200695E+02  0.00000000000E+00 0. -1.
         11    1    3    3    0    0 -0.90279003965E+00 -0.12913609051E+02 -0.59382255906E+01  0.14242150540E+02  0.51100000000E-03 0. -1.
        -11    1    3    3    0    0 -0.27124738810E+02  0.29589407120E+01  0.26975301253E+02  0.38368915330E+02  0.51100000000E-03 0.  1.
         12    1    3    3    0    0  0.12202112231E+01  0.47174432416E+01 -0.45850548231E+01  0.66907334349E+01  0.00000000000E+00 0. -1.
</event>
<event>
 7    1  0.7578565E-012  0.5930194E+02  0.7816164E-02  0.1266605E+00
        -11   -1    0    0    0    0  0.00000000000E+00  0.00000000000E+00  0.45593999997E+02  0.45594000000E+02  0.51100000000E-03 0. -1.
         11   -1    0    0    0    0 -0.00000000000E+00 -0.00000000000E+00 -0.45593999997E+02  0.45594000000E+02  0.51100000000E-03 0.  1.
    9900012    2    1    2    0    0 -0.22113027936E+02 -0.19418313058E+02 -0.12274523921E+02  0.59301939974E+02  0.49999992607E+02 0.  0.
         12    1    1    2    0    0  0.22113027936E+02  0.19418313058E+02  0.12274523921E+02  0.31886060026E+02  0.00000000000E+00 0. -1.
         11    1    3    3    0    0 -0.23411209775E+02 -0.23924186638E+02 -0.19750850553E+02  0.38865763176E+02  0.51100000000E-03 0. -1.
        -11    1    3    3    0    0  0.19527839034E+01  0.86253493734E+01 -0.28562381547E+01  0.92934446491E+01  0.51100000000E-03 0.  1.
         12    1    3    3    0    0 -0.65460206439E+00 -0.41194757935E+01  0.10332564787E+02  0.11142732149E+02  0.00000000000E+00 0. -1.
</event>
<event>
 7    1  0.7578565E-012  0.5930201E+02  0.7816164E-02  0.1266605E+00
        -11   -1    0    0    0    0  0.00000000000E+00  0.00000000000E+00  0.45593999997E+02  0.45594000000E+02  0.51100000000E-03 0. -1.
         11   -1    0    0    0    0 -0.00000000000E+00 -0.00000000000E+00 -0.45593999997E+02  0.45594000000E+02  0.51100000000E-03 0.  1.
    9900012    2    1    2    0    0 -0.21933279947E+02 -0.11458146274E+02 -0.20108658961E+02  0.59302014826E+02  0.50000129119E+02 0.  0.
         12    1    1    2    0    0  0.21933279947E+02  0.11458146274E+02  0.20108658961E+02  0.31885985174E+02  0.00000000000E+00 0. -1.
         11    1    3    3    0    0 -0.64529811752E+01  0.10575432851E+02  0.59038550296E+01  0.13723565517E+02  0.51100000000E-03 0. -1.
        -11    1    3    3    0    0 -0.60389097608E+01 -0.15882829182E+02  0.25713617174E+00  0.16994081711E+02  0.51100000000E-03 0.  1.
         12    1    3    3    0    0 -0.94413890113E+01 -0.61507499425E+01 -0.26269650162E+02  0.28584367598E+02  0.00000000000E+00 0. -1.
</event>
<event>
 7    1  0.7578565E-012  0.5930188E+02  0.7816164E-02  0.1266605E+00
        -11   -1    0    0    0    0  0.00000000000E+00  0.00000000000E+00  0.45593999997E+02  0.45594000000E+02  0.51100000000E-03 0.  1.
         11   -1    0    0    0    0 -0.00000000000E+00 -0.00000000000E+00 -0.45593999997E+02  0.45594000000E+02  0.51100000000E-03 0. -1.
    9900012    2    1    2    0    0  0.49718534322E+01  0.16000344625E+02  0.27129215832E+02  0.59301879095E+02  0.49999881579E+02 0.  0.
         12    1    1    2    0    0 -0.49718534322E+01 -0.16000344625E+02 -0.27129215832E+02  0.31886120905E+02  0.00000000000E+00 0. -1.
         11    1    3    3    0    0  0.27336943993E+01  0.86134264861E+01  0.20607445794E+02  0.22501800446E+02  0.51100000000E-03 0.  1.
        -11    1    3    3    0    0 -0.16359121110E+02  0.46524400414E+01  0.33582054412E+00  0.17011138043E+02  0.51100000000E-03 0. -1.
         12    1    3    3    0    0  0.18597280143E+02  0.27344780973E+01  0.61859494941E+01  0.19788940606E+02  0.00000000000E+00 0. -1.
</event>
<event>
 7    1  0.7578565E-012  0.5930193E+02  0.7816164E-02  0.1266605E+00
        -11   -1    0    0    0    0  0.00000000000E+00  0.00000000000E+00  0.45593999997E+02  0.45594000000E+02  0.51100000000E-03 0. -1.
         11   -1    0    0    0    0 -0.00000000000E+00 -0.00000000000E+00 -0.45593999997E+02  0.45594000000E+02  0.51100000000E-03 0.  1.
    9900012    2    1    2    0    0  0.18074997340E+02 -0.10666938630E+02 -0.24004837673E+02  0.59301931878E+02  0.49999977842E+02 0.  0.
         12    1    1    2    0    0 -0.18074997340E+02  0.10666938630E+02  0.24004837673E+02  0.31886068122E+02  0.00000000000E+00 0. -1.
         11    1    3    3    0    0  0.27636974819E+02 -0.11678922847E+02 -0.95776150599E+01  0.31494925409E+02  0.51100000000E-03 0. -1.
        -11    1    3    3    0    0  0.39627534053E+01  0.71294975747E+01 -0.86201494305E+01  0.11867608297E+02  0.51100000000E-03 0.  1.
         12    1    3    3    0    0 -0.13524730884E+02 -0.61175133577E+01 -0.58070731822E+01  0.15939398173E+02  0.00000000000E+00 0. -1.
</event>
<event>
 7    1  0.7578565E-012  0.5930193E+02  0.7816164E-02  0.1266605E+00
        -11   -1    0    0    0    0  0.00000000000E+00  0.00000000000E+00  0.45593999997E+02  0.45594000000E+02  0.51100000000E-03 0.  1.
         11   -1    0    0    0    0 -0.00000000000E+00 -0.00000000000E+00 -0.45593999997E+02  0.45594000000E+02  0.51100000000E-03 0. -1.
    9900012    2    1    2    0    0  0.15681751323E+02  0.11333049241E+02 -0.25344937856E+02  0.59301934006E+02  0.49999981723E+02 0.  0.
         12    1    1    2    0    0 -0.15681751323E+02 -0.11333049241E+02  0.25344937856E+02  0.31886065994E+02  0.00000000000E+00 0. -1.
         11    1    3    3    0    0 -0.10298019279E+02 -0.63718470992E+00  0.71988070971E+01  0.12580859641E+02  0.51100000000E-03 0. -1.
        -11    1    3    3    0    0  0.38675337956E+01  0.99522523070E+01 -0.65140990285E+01  0.12507542926E+02  0.51100000000E-03 0.  1.
         12    1    3    3    0    0  0.22112236807E+02  0.20179816436E+01 -0.26029645925E+02  0.34213531438E+02  0.00000000000E+00 0. -1.
</event>
<event>
 7    1  0.7578565E-012  0.5930196E+02  0.7816164E-02  0.1266605E+00
        -11   -1    0    0    0    0  0.00000000000E+00  0.00000000000E+00  0.45593999997E+02  0.45594000000E+02  0.51100000000E-03 0. -1.
         11   -1    0    0    0    0 -0.00000000000E+00 -0.00000000000E+00 -0.45593999997E+02  0.45594000000E+02  0.51100000000E-03 0.  1.
    9900012    2    1    2    0    0 -0.11716765932E+02 -0.23037224320E+02 -0.18674127383E+02  0.59301963216E+02  0.50000034994E+02 0.  0.
         12    1    1    2    0    0  0.11716765932E+02  0.23037224320E+02  0.18674127383E+02  0.31886036784E+02  0.00000000000E+00 0. -1.
         11    1    3    3    0    0  0.78807226787E+01  0.39655066831E+01  0.82059286185E+01  0.12048580744E+02  0.51100000000E-03 0. -1.
        -11    1    3    3    0    0 -0.22833674133E+02 -0.17662290097E+02 -0.21539367068E+02  0.36017738683E+02  0.51100000000E-03 0.  1.
         12    1    3    3    0    0  0.32361855222E+01 -0.93404409064E+01 -0.53406889333E+01  0.11235643789E+02  0.00000000000E+00 0. -1.
</event>
<event>
 7    1  0.7578565E-012  0.5930193E+02  0.7816164E-02  0.1266605E+00
        -11   -1    0    0    0    0  0.00000000000E+00  0.00000000000E+00  0.45593999997E+02  0.45594000000E+02  0.51100000000E-03 0.  1.
         11   -1    0    0    0    0 -0.00000000000E+00 -0.00000000000E+00 -0.45593999997E+02  0.45594000000E+02  0.51100000000E-03 0. -1.
    9900012    2    1    2    0    0  0.21562793522E+02  0.17846575994E+02  0.15273081104E+02  0.59301931795E+02  0.49999977690E+02 0.  0.
         12    1    1    2    0    0 -0.21562793522E+02 -0.17846575994E+02 -0.15273081104E+02  0.31886068205E+02  0.00000000000E+00 0. -1.
         11    1    3    3    0    0 -0.31560626877E+01 -0.76630161493E-01 -0.91684026771E+01  0.96967113900E+01  0.51100000000E-03 0. -1.
        -11    1    3    3    0    0  0.24925070514E+02  0.16079332143E+01  0.74874221316E+01  0.26075008721E+02  0.51100000000E-03 0.  1.
        -12    1    3    3    0    0 -0.20621430451E+00  0.16315272941E+02  0.16954061649E+02  0.23530211684E+02  0.00000000000E+00 0.  1.
</event>
<event>
 7    1  0.7578565E-012  0.5930196E+02  0.7816164E-02  0.1266605E+00
        -11   -1    0    0    0    0  0.00000000000E+00  0.00000000000E+00  0.45593999997E+02  0.45594000000E+02  0.51100000000E-03 0. -1.
         11   -1    0    0    0    0 -0.00000000000E+00 -0.00000000000E+00 -0.45593999997E+02  0.45594000000E+02  0.51100000000E-03 0.  1.
    9900012    2    1    2    0    0  0.22744996138E+02  0.39653457514E+01 -0.21992286294E+02  0.59301961164E+02  0.50000031252E+02 0.  0.
         12    1    1    2    0    0 -0.22744996138E+02 -0.39653457514E+01  0.21992286294E+02  0.31886038836E+02  0.00000000000E+00 0. -1.
         11    1    3    3    0    0  0.14854960904E+02  0.14708096039E+02  0.45271456747E+01  0.21389086020E+02  0.51100000000E-03 0. -1.
        -11    1    3    3    0    0  0.15201691921E+02 -0.17935824990E+01 -0.17525767496E+02  0.23269312453E+02  0.51100000000E-03 0.  1.
         12    1    3    3    0    0 -0.73116566872E+01 -0.89491677888E+01 -0.89936644723E+01  0.14643562690E+02  0.00000000000E+00 0. -1.
</event>
<event>
 7    1  0.7578565E-012  0.5930196E+02  0.7816164E-02  0.1266605E+00
        -11   -1    0    0    0    0  0.00000000000E+00  0.00000000000E+00  0.45593999997E+02  0.45594000000E+02  0.51100000000E-03 0. -1.
         11   -1    0    0    0    0 -0.00000000000E+00 -0.00000000000E+00 -0.45593999997E+02  0.45594000000E+02  0.51100000000E-03 0.  1.
    9900012    2    1    2    0    0  0.49102406507E+01  0.23964478753E+02 -0.20452690651E+02  0.59301964499E+02  0.50000037334E+02 0.  0.
         12    1    1    2    0    0 -0.49102406507E+01 -0.23964478753E+02  0.20452690651E+02  0.31886035501E+02  0.00000000000E+00 0. -1.
         11    1    3    3    0    0 -0.32201594983E+01 -0.41838528374E+01  0.51774600023E+01  0.73946023622E+01  0.51100000000E-03 0. -1.
        -11    1    3    3    0    0  0.15572411976E+02  0.62568413316E+01 -0.23234597145E+02  0.28661726796E+02  0.51100000000E-03 0.  1.
        -12    1    3    3    0    0 -0.74420118266E+01  0.21891490258E+02 -0.23955535081E+01  0.23245635340E+02  0.00000000000E+00 0.  1.
</event>
<event>
 7    1  0.7578565E-012  0.5930191E+02  0.7816164E-02  0.1266605E+00
        -11   -1    0    0    0    0  0.00000000000E+00  0.00000000000E+00  0.45593999997E+02  0.45594000000E+02  0.51100000000E-03 0.  1.
         11   -1    0    0    0    0 -0.00000000000E+00 -0.00000000000E+00 -0.45593999997E+02  0.45594000000E+02  0.51100000000E-03 0. -1.
    9900012    2    1    2    0    0  0.61210047950E+01 -0.24560258163E+02  0.19391995384E+02  0.59301914230E+02  0.49999945656E+02 0.  0.
         12    1    1    2    0    0 -0.61210047950E+01  0.24560258163E+02 -0.19391995384E+02  0.31886085770E+02  0.00000000000E+00 0. -1.
         11    1    3    3    0    0  0.75779320501E+01 -0.25588125888E+02  0.19279377761E+02  0.32922205998E+02  0.51100000000E-03 0. -1.
        -11    1    3    3    0    0 -0.63923560721E+01  0.30338501245E+01  0.11673398974E+02  0.13650447121E+02  0.51100000000E-03 0.  1.
         12    1    3    3    0    0  0.49354288169E+01 -0.20059823994E+01 -0.11560781351E+02  0.12729261111E+02  0.00000000000E+00 0. -1.
</event>
<event>
 7    1  0.7578565E-012  0.5930194E+02  0.7816164E-02  0.1266605E+00
        -11   -1    0    0    0    0  0.00000000000E+00  0.00000000000E+00  0.45593999997E+02  0.45594000000E+02  0.51100000000E-03 0. -1.
         11   -1    0    0    0    0 -0.00000000000E+00 -0.00000000000E+00 -0.45593999997E+02  0.45594000000E+02  0.51100000000E-03 0.  1.
    9900012    2    1    2    0    0  0.16949692736E+02  0.10865264591E+02 -0.24725998234E+02  0.59301936474E+02  0.49999986224E+02 0.  0.
         12    1    1    2    0    0 -0.16949692736E+02 -0.10865264591E+02  0.24725998234E+02  0.31886063526E+02  0.00000000000E+00 0. -1.
         11    1    3    3    0    0 -0.60635078655E+01 -0.12974771254E+02 -0.47987542210E+01  0.15104266254E+02  0.51100000000E-03 0.  1.
        -11    1    3    3    0    0  0.21599981296E+02  0.24383386043E+02 -0.98843483761E+01  0.34041284494E+02  0.51100000000E-03 0. -1.
         12    1    3    3    0    0  0.14132193055E+01 -0.54335019810E+00 -0.10042895637E+02  0.10156385726E+02  0.00000000000E+00 0. -1.
</event>
<event>
 7    1  0.7578565E-012  0.5930192E+02  0.7816164E-02  0.1266605E+00
        -11   -1    0    0    0    0  0.00000000000E+00  0.00000000000E+00  0.45593999997E+02  0.45594000000E+02  0.51100000000E-03 0.  1.
         11   -1    0    0    0    0 -0.00000000000E+00 -0.00000000000E+00 -0.45593999997E+02  0.45594000000E+02  0.51100000000E-03 0. -1.
    9900012    2    1    2    0    0  0.23277644624E+02 -0.20508704906E+02 -0.73665552636E+01  0.59301923844E+02  0.49999963190E+02 0.  0.
         12    1    1    2    0    0 -0.23277644624E+02  0.20508704906E+02  0.73665552636E+01  0.31886076156E+02  0.00000000000E+00 0. -1.
         11    1    3    3    0    0 -0.12947654779E+02 -0.66649427166E+01 -0.55731822813E+01  0.15592420809E+02  0.51100000000E-03 0. -1.
        -11    1    3    3    0    0  0.26006908810E+02 -0.10475328478E+01  0.40119083582E+01  0.26335376205E+02  0.51100000000E-03 0.  1.
         12    1    3    3    0    0  0.10218390594E+02 -0.12796229341E+02 -0.58052813405E+01  0.17374126830E+02  0.00000000000E+00 0. -1.
</event>
<event>
 7    1  0.7578565E-012  0.5930194E+02  0.7816164E-02  0.1266605E+00
        -11   -1    0    0    0    0  0.00000000000E+00  0.00000000000E+00  0.45593999997E+02  0.45594000000E+02  0.51100000000E-03 0. -1.
         11   -1    0    0    0    0 -0.00000000000E+00 -0.00000000000E+00 -0.45593999997E+02  0.45594000000E+02  0.51100000000E-03 0.  1.
    9900012    2    1    2    0    0 -0.21248614609E+02  0.22937674924E+02 -0.62514362660E+01  0.59301937071E+02  0.49999987312E+02 0.  0.
         12    1    1    2    0    0  0.21248614609E+02 -0.22937674924E+02  0.62514362660E+01  0.31886062929E+02  0.00000000000E+00 0. -1.
         11    1    3    3    0    0  0.34743579189E+01  0.80793497334E+01 -0.20101833043E+02  0.21941530189E+02  0.51100000000E-03 0.  1.
        -11    1    3    3    0    0 -0.23213930736E+02  0.11337396381E+02  0.18171933394E+02  0.31585476100E+02  0.51100000000E-03 0. -1.
        -12    1    3    3    0    0 -0.15090417915E+01  0.35209288099E+01 -0.43215366166E+01  0.57749307824E+01  0.00000000000E+00 0.  1.
</event>
<event>
 7    1  0.7578565E-012  0.5930193E+02  0.7816164E-02  0.1266605E+00
        -11   -1    0    0    0    0  0.00000000000E+00  0.00000000000E+00  0.45593999997E+02  0.45594000000E+02  0.51100000000E-03 0.  1.
         11   -1    0    0    0    0 -0.00000000000E+00 -0.00000000000E+00 -0.45593999997E+02  0.45594000000E+02  0.51100000000E-03 0. -1.
    9900012    2    1    2    0    0 -0.15235277170E+02 -0.10998234815E+02  0.25761340924E+02  0.59301928970E+02  0.49999972538E+02 0.  0.
         12    1    1    2    0    0  0.15235277170E+02  0.10998234815E+02 -0.25761340924E+02  0.31886071030E+02  0.00000000000E+00 0. -1.
         11    1    3    3    0    0 -0.12720186062E+02  0.12591756480E+02  0.13559175688E+02  0.22454547653E+02  0.51100000000E-03 0. -1.
        -11    1    3    3    0    0 -0.11165868521E+02 -0.20033441369E+02  0.20239225997E+01  0.23024153749E+02  0.51100000000E-03 0.  1.
        -12    1    3    3    0    0  0.86507774122E+01 -0.35565499270E+01  0.10178242637E+02  0.13823227568E+02  0.00000000000E+00 0.  1.
</event>
<event>
 7    1  0.7578565E-012  0.5930194E+02  0.7816164E-02  0.1266605E+00
        -11   -1    0    0    0    0  0.00000000000E+00  0.00000000000E+00  0.45593999997E+02  0.45594000000E+02  0.51100000000E-03 0.  1.
         11   -1    0    0    0    0 -0.00000000000E+00 -0.00000000000E+00 -0.45593999997E+02  0.45594000000E+02  0.51100000000E-03 0. -1.
    9900012    2    1    2    0    0 -0.15864161299E+02 -0.16455843212E+02  0.22231827021E+02  0.59301944706E+02  0.50000001237E+02 0.  0.
         12    1    1    2    0    0  0.15864161299E+02  0.16455843212E+02 -0.22231827021E+02  0.31886055294E+02  0.00000000000E+00 0. -1.
         11    1    3    3    0    0  0.77051913215E+01 -0.17885713923E+02 -0.14832726702E+01  0.19531227148E+02  0.51100000000E-03 0. -1.
        -11    1    3    3    0    0 -0.27126233523E+02 -0.68611672157E+00  0.22999149579E+02  0.35570552188E+02  0.51100000000E-03 0.  1.
         12    1    3    3    0    0  0.35568809031E+01  0.21159874325E+01  0.71595011190E+00  0.42001653701E+01  0.00000000000E+00 0. -1.
</event>
<event>
 7    1  0.7578565E-012  0.5930196E+02  0.7816164E-02  0.1266605E+00
        -11   -1    0    0    0    0  0.00000000000E+00  0.00000000000E+00  0.45593999997E+02  0.45594000000E+02  0.51100000000E-03 0.  1.
         11   -1    0    0    0    0 -0.00000000000E+00 -0.00000000000E+00 -0.45593999997E+02  0.45594000000E+02  0.51100000000E-03 0. -1.
    9900012    2    1    2    0    0  0.14813266779E+02  0.71943622388E+00  0.28227095002E+02  0.59301963034E+02  0.50000034663E+02 0.  0.
         12    1    1    2    0    0 -0.14813266779E+02 -0.71943622388E+00 -0.28227095002E+02  0.31886036966E+02  0.00000000000E+00 0. -1.
         11    1    3    3    0    0  0.20773318052E+02  0.16393540040E+01  0.15518759262E+01  0.20895610630E+02  0.51100000000E-03 0. -1.
        -11    1    3    3    0    0 -0.49113103310E+01  0.10589781444E+02  0.23781884236E+02  0.26492309418E+02  0.51100000000E-03 0.  1.
         12    1    3    3    0    0 -0.10487409426E+01 -0.11509699224E+02  0.28933348395E+01  0.11914042986E+02  0.00000000000E+00 0. -1.
</event>
<event>
 7    1  0.7578565E-012  0.5930199E+02  0.7816164E-02  0.1266605E+00
        -11   -1    0    0    0    0  0.00000000000E+00  0.00000000000E+00  0.45593999997E+02  0.45594000000E+02  0.51100000000E-03 0.  1.
         11   -1    0    0    0    0 -0.00000000000E+00 -0.00000000000E+00 -0.45593999997E+02  0.45594000000E+02  0.51100000000E-03 0. -1.
    9900012    2    1    2    0    0  0.13141458929E+02 -0.14660155519E+02  0.25081857434E+02  0.59301989353E+02  0.50000082663E+02 0.  0.
         12    1    1    2    0    0 -0.13141458929E+02  0.14660155519E+02 -0.25081857434E+02  0.31886010647E+02  0.00000000000E+00 0. -1.
         11    1    3    3    0    0 -0.39886174622E+01  0.61471626055E+01  0.78022103725E+01  0.10703792053E+02  0.51100000000E-03 0. -1.
        -11    1    3    3    0    0  0.22085372293E+02 -0.30516772919E+01 -0.14194640001E+01  0.22340350980E+02  0.51100000000E-03 0.  1.
        -12    1    3    3    0    0 -0.49552959019E+01 -0.17755640833E+02  0.18699111062E+02  0.26257846320E+02  0.00000000000E+00 0.  1.
</event>
<event>
 7    1  0.7578565E-012  0.5930196E+02  0.7816164E-02  0.1266605E+00
        -11   -1    0    0    0    0  0.00000000000E+00  0.00000000000E+00  0.45593999997E+02  0.45594000000E+02  0.51100000000E-03 0. -1.
         11   -1    0    0    0    0 -0.00000000000E+00 -0.00000000000E+00 -0.45593999997E+02  0.45594000000E+02  0.51100000000E-03 0.  1.
    9900012    2    1    2    0    0 -0.19782844131E+02 -0.64935538005E+01 -0.24149375508E+02  0.59301960731E+02  0.50000030463E+02 0.  0.
         12    1    1    2    0    0  0.19782844131E+02  0.64935538005E+01  0.24149375508E+02  0.31886039269E+02  0.00000000000E+00 0. -1.
         11    1    3    3    0    0  0.90293478550E+00  0.10480726683E+02 -0.18593134768E+02  0.21362714804E+02  0.51100000000E-03 0. -1.
        -11    1    3    3    0    0 -0.20230577004E+02 -0.75796053613E+01  0.65811324519E+01  0.22584020190E+02  0.51100000000E-03 0.  1.
         12    1    3    3    0    0 -0.45520191230E+00 -0.93946751222E+01 -0.12137373192E+02  0.15355225737E+02  0.00000000000E+00 0. -1.
</event>
<event>
 7    1  0.7578565E-012  0.5930195E+02  0.7816164E-02  0.1266605E+00
        -11   -1    0    0    0    0  0.00000000000E+00  0.00000000000E+00  0.45593999997E+02  0.45594000000E+02  0.51100000000E-03 0.  1.
         11   -1    0    0    0    0 -0.00000000000E+00 -0.00000000000E+00 -0.45593999997E+02  0.45594000000E+02  0.51100000000E-03 0. -1.
    9900012    2    1    2    0    0  0.10972327627E+02  0.24381835075E+01  0.29839288871E+02  0.59301954891E+02  0.50000019811E+02 0.  0.
         12    1    1    2    0    0 -0.10972327627E+02 -0.24381835075E+01 -0.29839288871E+02  0.31886045109E+02  0.00000000000E+00 0. -1.
         11    1    3    3    0    0 -0.13024340793E+02  0.26611544936E+01  0.11467633921E+02  0.17556247445E+02  0.51100000000E-03 0. -1.
        -11    1    3    3    0    0  0.26699907288E+02 -0.23551499431E+01  0.41618597030E+01  0.27124764643E+02  0.51100000000E-03 0.  1.
        -12    1    3    3    0    0 -0.27032388688E+01  0.21321789571E+01  0.14209795248E+02  0.14620942804E+02  0.00000000000E+00 0.  1.
</event>
<event>
 7    1  0.7578565E-012  0.5930189E+02  0.7816164E-02  0.1266605E+00
        -11   -1    0    0    0    0  0.00000000000E+00  0.00000000000E+00  0.45593999997E+02  0.45594000000E+02  0.51100000000E-03 0.  1.
         11   -1    0    0    0    0 -0.00000000000E+00 -0.00000000000E+00 -0.45593999997E+02  0.45594000000E+02  0.51100000000E-03 0. -1.
    9900012    2    1    2    0    0  0.12120702202E+02  0.49504258037E+01  0.29074148167E+02  0.59301886579E+02  0.49999895227E+02 0.  0.
         12    1    1    2    0    0 -0.12120702202E+02 -0.49504258037E+01 -0.29074148167E+02  0.31886113421E+02  0.00000000000E+00 0. -1.
         11    1    3    3    0    0  0.16592349714E+02  0.12196666206E+02  0.12202241313E+02  0.23936570951E+02  0.51100000000E-03 0. -1.
        -11    1    3    3    0    0  0.50539021592E+01 -0.15226421567E+02  0.22885982688E+01  0.16205663302E+02  0.51100000000E-03 0.  1.
         12    1    3    3    0    0 -0.95255496714E+01  0.79801811646E+01  0.14583308585E+02  0.19159652326E+02  0.00000000000E+00 0. -1.
</event>
<event>
 7    1  0.7578565E-012  0.5930198E+02  0.7816164E-02  0.1266605E+00
        -11   -1    0    0    0    0  0.00000000000E+00  0.00000000000E+00  0.45593999997E+02  0.45594000000E+02  0.51100000000E-03 0. -1.
         11   -1    0    0    0    0 -0.00000000000E+00 -0.00000000000E+00 -0.45593999997E+02  0.45594000000E+02  0.51100000000E-03 0.  1.
    9900012    2    1    2    0    0  0.59210062850E+01 -0.31106871092E+02 -0.37446756784E+01  0.59301978917E+02  0.50000063629E+02 0.  0.
         12    1    1    2    0    0 -0.59210062850E+01  0.31106871092E+02  0.37446756784E+01  0.31886021083E+02  0.00000000000E+00 0. -1.
         11    1    3    3    0    0 -0.22933671613E+01  0.35000091732E-02  0.10732159298E+02  0.10974460745E+02  0.51100000000E-03 0. -1.
        -11    1    3    3    0    0 -0.36185422364E+01 -0.10760758880E+01 -0.15576629050E+02  0.16027574990E+02  0.51100000000E-03 0.  1.
        -12    1    3    3    0    0  0.11832915683E+02 -0.30034295214E+02  0.10997940743E+01  0.32299943182E+02  0.00000000000E+00 0.  1.
</event>
<event>
 7    1  0.7578565E-012  0.5930198E+02  0.7816164E-02  0.1266605E+00
        -11   -1    0    0    0    0  0.00000000000E+00  0.00000000000E+00  0.45593999997E+02  0.45594000000E+02  0.51100000000E-03 0.  1.
         11   -1    0    0    0    0 -0.00000000000E+00 -0.00000000000E+00 -0.45593999997E+02  0.45594000000E+02  0.51100000000E-03 0. -1.
    9900012    2    1    2    0    0 -0.13528413329E+02 -0.10657101488E+02  0.26835175488E+02  0.59301977627E+02  0.50000061277E+02 0.  0.
         12    1    1    2    0    0  0.13528413329E+02  0.10657101488E+02 -0.26835175488E+02  0.31886022373E+02  0.00000000000E+00 0. -1.
         11    1    3    3    0    0 -0.10047956761E+02 -0.11131588200E+02  0.67422730342E+01  0.16441774139E+02  0.51100000000E-03 0. -1.
        -11    1    3    3    0    0  0.84239747504E+01 -0.22799026234E+01 -0.82414659444E+01  0.12003460657E+02  0.51100000000E-03 0.  1.
        -12    1    3    3    0    0 -0.11904431318E+02  0.27543893356E+01  0.28334368398E+02  0.30856742831E+02  0.00000000000E+00 0.  1.
</event>
<event>
 7    1  0.7578565E-012  0.5930195E+02  0.7816164E-02  0.1266605E+00
        -11   -1    0    0    0    0  0.00000000000E+00  0.00000000000E+00  0.45593999997E+02  0.45594000000E+02  0.51100000000E-03 0.  1.
         11   -1    0    0    0    0 -0.00000000000E+00 -0.00000000000E+00 -0.45593999997E+02  0.45594000000E+02  0.51100000000E-03 0. -1.
    9900012    2    1    2    0    0  0.13063104648E+02 -0.15414703828E+02  0.24667028823E+02  0.59301951200E+02  0.50000013080E+02 0.  0.
         12    1    1    2    0    0 -0.13063104648E+02  0.15414703828E+02 -0.24667028823E+02  0.31886048800E+02  0.00000000000E+00 0. -1.
         11    1    3    3    0    0 -0.70116630650E+01  0.30217892786E+01  0.33263326723E+01  0.83282122145E+01  0.51100000000E-03 0. -1.
        -11    1    3    3    0    0  0.21881436706E+02 -0.61151172840E+01 -0.36888459088E+01  0.23017374223E+02  0.51100000000E-03 0.  1.
        -12    1    3    3    0    0 -0.18066689930E+01 -0.12321375822E+02  0.25029542059E+02  0.27956364762E+02  0.00000000000E+00 0.  1.
</event>
<event>
 7    1  0.7578565E-012  0.5930195E+02  0.7816164E-02  0.1266605E+00
        -11   -1    0    0    0    0  0.00000000000E+00  0.00000000000E+00  0.45593999997E+02  0.45594000000E+02  0.51100000000E-03 0.  1.
         11   -1    0    0    0    0 -0.00000000000E+00 -0.00000000000E+00 -0.45593999997E+02  0.45594000000E+02  0.51100000000E-03 0. -1.
    9900012    2    1    2    0    0  0.74465618907E+01  0.20027656729E+02  0.23667735596E+02  0.59301952483E+02  0.50000015420E+02 0.  0.
         12    1    1    2    0    0 -0.74465618907E+01 -0.20027656729E+02 -0.23667735596E+02  0.31886047517E+02  0.00000000000E+00 0. -1.
         11    1    3    3    0    0  0.26247646769E+02  0.52462983424E+01  0.18642480281E+01  0.26831660928E+02  0.51100000000E-03 0. -1.
        -11    1    3    3    0    0 -0.10801628099E+02  0.73542882413E+01  0.10575395093E+02  0.16810702149E+02  0.51100000000E-03 0.  1.
         12    1    3    3    0    0 -0.79994567793E+01  0.74270701458E+01  0.11228092474E+02  0.15659589405E+02  0.00000000000E+00 0. -1.
</event>
<event>
 7    1  0.7578565E-012  0.5930191E+02  0.7816164E-02  0.1266605E+00
        -11   -1    0    0    0    0  0.00000000000E+00  0.00000000000E+00  0.45593999997E+02  0.45594000000E+02  0.51100000000E-03 0. -1.
         11   -1    0    0    0    0 -0.00000000000E+00 -0.00000000000E+00 -0.45593999997E+02  0.45594000000E+02  0.51100000000E-03 0.  1.
    9900012    2    1    2    0    0  0.55367118338E+01  0.30868156716E+02  0.57640646893E+01  0.59301910263E+02  0.49999938422E+02 0.  0.
         12    1    1    2    0    0 -0.55367118338E+01 -0.30868156716E+02 -0.57640646893E+01  0.31886089737E+02  0.00000000000E+00 0. -1.
         11    1    3    3    0    0  0.18246820303E+02 -0.18014641974E+01  0.13799351238E+02  0.22948067877E+02  0.51100000000E-03 0. -1.
        -11    1    3    3    0    0 -0.13067802020E+02  0.32426993536E+02 -0.76808273792E+01  0.35794866517E+02  0.51100000000E-03 0.  1.
         12    1    3    3    0    0  0.35769355089E+00  0.24262737678E+00 -0.35445916923E+00  0.55897586975E+00  0.00000000000E+00 0. -1.
</event>
<event>
 7    1  0.7578565E-012  0.5930193E+02  0.7816164E-02  0.1266605E+00
        -11   -1    0    0    0    0  0.00000000000E+00  0.00000000000E+00  0.45593999997E+02  0.45594000000E+02  0.51100000000E-03 0.  1.
         11   -1    0    0    0    0 -0.00000000000E+00 -0.00000000000E+00 -0.45593999997E+02  0.45594000000E+02  0.51100000000E-03 0. -1.
    9900012    2    1    2    0    0 -0.11526320153E+02  0.27932098109E+02  0.10181507496E+02  0.59301933200E+02  0.49999980253E+02 0.  0.
         12    1    1    2    0    0  0.11526320153E+02 -0.27932098109E+02 -0.10181507496E+02  0.31886066800E+02  0.00000000000E+00 0. -1.
         11    1    3    3    0    0 -0.15307468406E+01  0.18922686746E+02 -0.30068996949E+01  0.19221152557E+02  0.51100000000E-03 0. -1.
        -11    1    3    3    0    0 -0.43709180843E+01 -0.12810403056E+02  0.10999992017E+02  0.17441650609E+02  0.51100000000E-03 0.  1.
        -12    1    3    3    0    0 -0.56246552286E+01  0.21819814419E+02  0.21884151739E+01  0.22639130034E+02  0.00000000000E+00 0.  1.
</event>
<event>
 7    1  0.7578565E-012  0.5930194E+02  0.7816164E-02  0.1266605E+00
        -11   -1    0    0    0    0  0.00000000000E+00  0.00000000000E+00  0.45593999997E+02  0.45594000000E+02  0.51100000000E-03 0.  1.
         11   -1    0    0    0    0 -0.00000000000E+00 -0.00000000000E+00 -0.45593999997E+02  0.45594000000E+02  0.51100000000E-03 0. -1.
    9900012    2    1    2    0    0  0.31731004573E+02  0.23702469206E+01 -0.20606806050E+01  0.59301935234E+02  0.49999983963E+02 0.  0.
         12    1    1    2    0    0 -0.31731004573E+02 -0.23702469206E+01  0.20606806050E+01  0.31886064766E+02  0.00000000000E+00 0. -1.
         11    1    3    3    0    0  0.32423519216E+02 -0.13773326077E+02 -0.72660007074E+01  0.35969207333E+02  0.51100000000E-03 0. -1.
        -11    1    3    3    0    0 -0.80501514360E+01  0.70782624327E+01  0.45844080155E+00  0.10729254654E+02  0.51100000000E-03 0.  1.
         12    1    3    3    0    0  0.73576367926E+01  0.90653105647E+01  0.47468793009E+01  0.12603473248E+02  0.00000000000E+00 0. -1.
</event>
<event>
 7    1  0.7578565E-012  0.5930196E+02  0.7816164E-02  0.1266605E+00
        -11   -1    0    0    0    0  0.00000000000E+00  0.00000000000E+00  0.45593999997E+02  0.45594000000E+02  0.51100000000E-03 0.  1.
         11   -1    0    0    0    0 -0.00000000000E+00 -0.00000000000E+00 -0.45593999997E+02  0.45594000000E+02  0.51100000000E-03 0. -1.
    9900012    2    1    2    0    0  0.16628709655E+02  0.26408330851E+01  0.27078252917E+02  0.59301956576E+02  0.50000022885E+02 0.  0.
         12    1    1    2    0    0 -0.16628709655E+02 -0.26408330851E+01 -0.27078252917E+02  0.31886043424E+02  0.00000000000E+00 0. -1.
         11    1    3    3    0    0 -0.10164264923E+02 -0.13488196744E+01  0.77315502280E+01  0.12841669094E+02  0.51100000000E-03 0. -1.
        -11    1    3    3    0    0  0.22289593300E+02  0.17258517067E+02  0.13847404263E+02  0.31407530720E+02  0.51100000000E-03 0.  1.
        -12    1    3    3    0    0  0.45033812770E+01 -0.13268864308E+02  0.54992984266E+01  0.15052756762E+02  0.00000000000E+00 0.  1.
</event>
<event>
 7    1  0.7578565E-012  0.5930192E+02  0.7816164E-02  0.1266605E+00
        -11   -1    0    0    0    0  0.00000000000E+00  0.00000000000E+00  0.45593999997E+02  0.45594000000E+02  0.51100000000E-03 0. -1.
         11   -1    0    0    0    0 -0.00000000000E+00 -0.00000000000E+00 -0.45593999997E+02  0.45594000000E+02  0.51100000000E-03 0.  1.
    9900012    2    1    2    0    0  0.24142900221E+02 -0.11311870599E+02 -0.17489544319E+02  0.59301918271E+02  0.49999953026E+02 0.  0.
         12    1    1    2    0    0 -0.24142900221E+02  0.11311870599E+02  0.17489544319E+02  0.31886081729E+02  0.00000000000E+00 0. -1.
         11    1    3    3    0    0  0.13781954700E+02  0.11029288099E+02  0.40672679793E+01  0.18114362821E+02  0.51100000000E-03 0. -1.
        -11    1    3    3    0    0  0.10462570203E+02 -0.24125594826E+01 -0.17977487880E+02  0.20939815884E+02  0.51100000000E-03 0.  1.
         12    1    3    3    0    0 -0.10162468263E+00 -0.19928599215E+02 -0.35793244184E+01  0.20247739566E+02  0.00000000000E+00 0. -1.
</event>
<event>
 7    1  0.7578565E-012  0.5930193E+02  0.7816164E-02  0.1266605E+00
        -11   -1    0    0    0    0  0.00000000000E+00  0.00000000000E+00  0.45593999997E+02  0.45594000000E+02  0.51100000000E-03 0.  1.
         11   -1    0    0    0    0 -0.00000000000E+00 -0.00000000000E+00 -0.45593999997E+02  0.45594000000E+02  0.51100000000E-03 0. -1.
    9900012    2    1    2    0    0  0.17780583804E+02 -0.11654170749E+02 -0.23764522361E+02  0.59301931266E+02  0.49999976726E+02 0.  0.
         12    1    1    2    0    0 -0.17780583804E+02  0.11654170749E+02  0.23764522361E+02  0.31886068734E+02  0.00000000000E+00 0. -1.
         11    1    3    3    0    0  0.28739890651E+00  0.49404852324E+01 -0.14927467609E+01  0.51690700920E+01  0.51100000000E-03 0. -1.
        -11    1    3    3    0    0 -0.45716819196E+01 -0.19206286057E+02  0.35586270058E+01  0.20061044990E+02  0.51100000000E-03 0.  1.
        -12    1    3    3    0    0  0.22064866817E+02  0.26116300758E+01 -0.25830402606E+02  0.34071816184E+02  0.00000000000E+00 0.  1.
</event>
<event>
 7    1  0.7578565E-012  0.5930195E+02  0.7816164E-02  0.1266605E+00
        -11   -1    0    0    0    0  0.00000000000E+00  0.00000000000E+00  0.45593999997E+02  0.45594000000E+02  0.51100000000E-03 0.  1.
         11   -1    0    0    0    0 -0.00000000000E+00 -0.00000000000E+00 -0.45593999997E+02  0.45594000000E+02  0.51100000000E-03 0. -1.
    9900012    2    1    2    0    0  0.25707929261E+02  0.18002314154E+02  0.56337598324E+01  0.59301949890E+02  0.50000010692E+02 0.  0.
         12    1    1    2    0    0 -0.25707929261E+02 -0.18002314154E+02 -0.56337598324E+01  0.31886050110E+02  0.00000000000E+00 0. -1.
         11    1    3    3    0    0 -0.40800142848E+01  0.23813737892E+02 -0.12422861971E+01  0.24192641530E+02  0.51100000000E-03 0. -1.
        -11    1    3    3    0    0  0.23585503920E+02 -0.90771655339E+01  0.10321760801E+02  0.27298528817E+02  0.51100000000E-03 0.  1.
         12    1    3    3    0    0  0.62024396253E+01  0.32657417962E+01 -0.34457147715E+01  0.78107795432E+01  0.00000000000E+00 0. -1.
</event>
<event>
 7    1  0.7578565E-012  0.5930195E+02  0.7816164E-02  0.1266605E+00
        -11   -1    0    0    0    0  0.00000000000E+00  0.00000000000E+00  0.45593999997E+02  0.45594000000E+02  0.51100000000E-03 0. -1.
         11   -1    0    0    0    0 -0.00000000000E+00 -0.00000000000E+00 -0.45593999997E+02  0.45594000000E+02  0.51100000000E-03 0.  1.
    9900012    2    1    2    0    0 -0.25587526067E+02 -0.18987695495E+02 -0.12108994398E+01  0.59301947439E+02  0.50000006222E+02 0.  0.
         12    1    1    2    0    0  0.25587526067E+02  0.18987695495E+02  0.12108994398E+01  0.31886052561E+02  0.00000000000E+00 0. -1.
         11    1    3    3    0    0 -0.54469668090E+01 -0.31022516030E+02 -0.43386678268E+01  0.31794496175E+02  0.51100000000E-03 0. -1.
        -11    1    3    3    0    0 -0.12936507687E+02  0.51605282974E+01 -0.48500705558E+01  0.14748134394E+02  0.51100000000E-03 0.  1.
         12    1    3    3    0    0 -0.72040515716E+01  0.68742922374E+01  0.79778389428E+01  0.12759316871E+02  0.00000000000E+00 0. -1.
</event>
<event>
 7    1  0.7578565E-012  0.5930195E+02  0.7816164E-02  0.1266605E+00
        -11   -1    0    0    0    0  0.00000000000E+00  0.00000000000E+00  0.45593999997E+02  0.45594000000E+02  0.51100000000E-03 0. -1.
         11   -1    0    0    0    0 -0.00000000000E+00 -0.00000000000E+00 -0.45593999997E+02  0.45594000000E+02  0.51100000000E-03 0.  1.
    9900012    2    1    2    0    0 -0.28722679838E+02 -0.13726463607E+02 -0.18198959849E+01  0.59301950360E+02  0.50000011549E+02 0.  0.
         12    1    1    2    0    0  0.28722679838E+02  0.13726463607E+02  0.18198959849E+01  0.31886049640E+02  0.00000000000E+00 0. -1.
         11    1    3    3    0    0 -0.10888099289E+02  0.57338126493E+01  0.10418150190E+02  0.16123435343E+02  0.51100000000E-03 0. -1.
        -11    1    3    3    0    0 -0.18051027099E+02 -0.21704163219E+02 -0.20323677717E+02  0.34784510297E+02  0.51100000000E-03 0.  1.
        -12    1    3    3    0    0  0.21644655001E+00  0.22438869620E+01  0.80856315424E+01  0.83940047204E+01  0.00000000000E+00 0.  1.
</event>
<event>
 7    1  0.7578565E-012  0.5930198E+02  0.7816164E-02  0.1266605E+00
        -11   -1    0    0    0    0  0.00000000000E+00  0.00000000000E+00  0.45593999997E+02  0.45594000000E+02  0.51100000000E-03 0.  1.
         11   -1    0    0    0    0 -0.00000000000E+00 -0.00000000000E+00 -0.45593999997E+02  0.45594000000E+02  0.51100000000E-03 0. -1.
    9900012    2    1    2    0    0 -0.21626379525E+01  0.85914541410E+01  0.30630512137E+02  0.59301978596E+02  0.50000063045E+02 0.  0.
         12    1    1    2    0    0  0.21626379525E+01 -0.85914541410E+01 -0.30630512137E+02  0.31886021404E+02  0.00000000000E+00 0. -1.
         11    1    3    3    0    0  0.99925434617E+01  0.14769498258E+02  0.11350080705E+02  0.21137959596E+02  0.51100000000E-03 0. -1.
        -11    1    3    3    0    0 -0.21195682496E+02  0.59354628958E+00  0.15454315230E+02  0.26238237615E+02  0.51100000000E-03 0.  1.
        -12    1    3    3    0    0  0.90405010814E+01 -0.67715904070E+01  0.38261162029E+01  0.11925781385E+02  0.00000000000E+00 0.  1.
</event>
<event>
 7    1  0.7578565E-012  0.5930197E+02  0.7816164E-02  0.1266605E+00
        -11   -1    0    0    0    0  0.00000000000E+00  0.00000000000E+00  0.45593999997E+02  0.45594000000E+02  0.51100000000E-03 0. -1.
         11   -1    0    0    0    0 -0.00000000000E+00 -0.00000000000E+00 -0.45593999997E+02  0.45594000000E+02  0.51100000000E-03 0.  1.
    9900012    2    1    2    0    0 -0.37934064296E+01 -0.13801207719E+02 -0.28493080666E+02  0.59301969944E+02  0.50000047266E+02 0.  0.
         12    1    1    2    0    0  0.37934064296E+01  0.13801207719E+02  0.28493080666E+02  0.31886030056E+02  0.00000000000E+00 0. -1.
         11    1    3    3    0    0 -0.15262758367E+02 -0.39442568661E+01  0.85705531278E+01  0.17943336824E+02  0.51100000000E-03 0. -1.
        -11    1    3    3    0    0 -0.16900440960E+01 -0.31615429059E+01 -0.75451761095E+01  0.83535193407E+01  0.51100000000E-03 0.  1.
         12    1    3    3    0    0  0.13159396033E+02 -0.66954079473E+01 -0.29518457685E+02  0.33005113780E+02  0.00000000000E+00 0. -1.
</event>
<event>
 7    1  0.7578565E-012  0.5930191E+02  0.7816164E-02  0.1266605E+00
        -11   -1    0    0    0    0  0.00000000000E+00  0.00000000000E+00  0.45593999997E+02  0.45594000000E+02  0.51100000000E-03 0.  1.
         11   -1    0    0    0    0 -0.00000000000E+00 -0.00000000000E+00 -0.45593999997E+02  0.45594000000E+02  0.51100000000E-03 0. -1.
    9900012    2    1    2    0    0 -0.31302564883E+02  0.44364727259E+01  0.41460537306E+01  0.59301911810E+02  0.49999941243E+02 0.  0.
         12    1    1    2    0    0  0.31302564883E+02 -0.44364727259E+01 -0.41460537306E+01  0.31886088190E+02  0.00000000000E+00 0. -1.
         11    1    3    3    0    0 -0.11430840519E+02 -0.31796576919E+01  0.12157675708E+02  0.16987743137E+02  0.51100000000E-03 0.  1.
        -11    1    3    3    0    0 -0.25004959360E+02  0.13881411960E+02 -0.14379461309E+02  0.32011099612E+02  0.51100000000E-03 0. -1.
         12    1    3    3    0    0  0.51332349960E+01 -0.62652815420E+01  0.63678393314E+01  0.10303069061E+02  0.00000000000E+00 0. -1.
</event>
<event>
 7    1  0.7578565E-012  0.5930195E+02  0.7816164E-02  0.1266605E+00
        -11   -1    0    0    0    0  0.00000000000E+00  0.00000000000E+00  0.45593999997E+02  0.45594000000E+02  0.51100000000E-03 0.  1.
         11   -1    0    0    0    0 -0.00000000000E+00 -0.00000000000E+00 -0.45593999997E+02  0.45594000000E+02  0.51100000000E-03 0. -1.
    9900012    2    1    2    0    0 -0.15888391306E+02 -0.21472834258E+02 -0.17412550455E+02  0.59301945012E+02  0.50000001795E+02 0.  0.
         12    1    1    2    0    0  0.15888391306E+02  0.21472834258E+02  0.17412550455E+02  0.31886054988E+02  0.00000000000E+00 0. -1.
         11    1    3    3    0    0  0.75342973146E+01 -0.32316183504E+01  0.35403375629E+01  0.89298926930E+01  0.51100000000E-03 0. -1.
        -11    1    3    3    0    0 -0.29843652555E+02 -0.19823502197E+02 -0.23966596331E+02  0.43104670015E+02  0.51100000000E-03 0.  1.
        -12    1    3    3    0    0  0.64209639341E+01  0.15822862890E+01  0.30137083138E+01  0.72673823034E+01  0.00000000000E+00 0.  1.
</event>
<event>
 7    1  0.7578565E-012  0.5930195E+02  0.7816164E-02  0.1266605E+00
        -11   -1    0    0    0    0  0.00000000000E+00  0.00000000000E+00  0.45593999997E+02  0.45594000000E+02  0.51100000000E-03 0.  1.
         11   -1    0    0    0    0 -0.00000000000E+00 -0.00000000000E+00 -0.45593999997E+02  0.45594000000E+02  0.51100000000E-03 0. -1.
    9900012    2    1    2    0    0  0.14269680354E+02  0.91979734873E+01  0.26990625976E+02  0.59301946869E+02  0.50000005182E+02 0.  0.
         12    1    1    2    0    0 -0.14269680354E+02 -0.91979734873E+01 -0.26990625976E+02  0.31886053131E+02  0.00000000000E+00 0. -1.
         11    1    3    3    0    0 -0.68571464291E+01  0.12537752643E+01 -0.88740133348E+01  0.11284525798E+02  0.51100000000E-03 0. -1.
        -11    1    3    3    0    0  0.91297481710E+01  0.63292740392E+01  0.34000627164E+02  0.35769465461E+02  0.51100000000E-03 0.  1.
         12    1    3    3    0    0  0.11997078612E+02  0.16149241838E+01  0.18640121466E+01  0.12247955610E+02  0.00000000000E+00 0. -1.
</event>
<event>
 7    1  0.7578565E-012  0.5930194E+02  0.7816164E-02  0.1266605E+00
        -11   -1    0    0    0    0  0.00000000000E+00  0.00000000000E+00  0.45593999997E+02  0.45594000000E+02  0.51100000000E-03 0.  1.
         11   -1    0    0    0    0 -0.00000000000E+00 -0.00000000000E+00 -0.45593999997E+02  0.45594000000E+02  0.51100000000E-03 0. -1.
    9900012    2    1    2    0    0  0.27838050529E+02  0.51122683195E+01 -0.14684288875E+02  0.59301942163E+02  0.49999996599E+02 0.  0.
         12    1    1    2    0    0 -0.27838050529E+02 -0.51122683195E+01  0.14684288875E+02  0.31886057837E+02  0.00000000000E+00 0. -1.
         11    1    3    3    0    0 -0.52405545195E+01 -0.15429747401E+01  0.11107617051E+02  0.12378341550E+02  0.51100000000E-03 0. -1.
        -11    1    3    3    0    0  0.79024017521E+01 -0.10772622945E+01 -0.17631469057E+02  0.19351412064E+02  0.51100000000E-03 0.  1.
        -12    1    3    3    0    0  0.25176203296E+02  0.77325053542E+01 -0.81604368692E+01  0.27572188549E+02  0.00000000000E+00 0.  1.
</event>
<event>
 7    1  0.7578565E-012  0.5930198E+02  0.7816164E-02  0.1266605E+00
        -11   -1    0    0    0    0  0.00000000000E+00  0.00000000000E+00  0.45593999997E+02  0.45594000000E+02  0.51100000000E-03 0. -1.
         11   -1    0    0    0    0 -0.00000000000E+00 -0.00000000000E+00 -0.45593999997E+02  0.45594000000E+02  0.51100000000E-03 0.  1.
    9900012    2    1    2    0    0  0.14110446088E+02 -0.21248548846E+02 -0.19134074731E+02  0.59301979040E+02  0.50000063854E+02 0.  0.
         12    1    1    2    0    0 -0.14110446088E+02  0.21248548846E+02  0.19134074731E+02  0.31886020960E+02  0.00000000000E+00 0. -1.
         11    1    3    3    0    0 -0.30089418472E+01  0.36908745562E+01 -0.67981495558E+01  0.83000676908E+01  0.51100000000E-03 0. -1.
        -11    1    3    3    0    0  0.85719489568E+01 -0.32132079949E+02 -0.18692268699E+02  0.38149046910E+02  0.51100000000E-03 0.  1.
        -12    1    3    3    0    0  0.85474389780E+01  0.71926565468E+01  0.63563435239E+01  0.12852864439E+02  0.00000000000E+00 0.  1.
</event>
<event>
 7    1  0.7578565E-012  0.5930195E+02  0.7816164E-02  0.1266605E+00
        -11   -1    0    0    0    0  0.00000000000E+00  0.00000000000E+00  0.45593999997E+02  0.45594000000E+02  0.51100000000E-03 0.  1.
         11   -1    0    0    0    0 -0.00000000000E+00 -0.00000000000E+00 -0.45593999997E+02  0.45594000000E+02  0.51100000000E-03 0. -1.
    9900012    2    1    2    0    0 -0.27092221636E+02  0.11651460046E+00  0.16814228122E+02  0.59301947937E+02  0.50000007130E+02 0.  0.
         12    1    1    2    0    0  0.27092221636E+02 -0.11651460046E+00 -0.16814228122E+02  0.31886052063E+02  0.00000000000E+00 0. -1.
         11    1    3    3    0    0 -0.15869370005E+01  0.10682863969E+02  0.82282182338E+01  0.13577390294E+02  0.51100000000E-03 0. -1.
        -11    1    3    3    0    0 -0.55151725307E+01 -0.83232526533E+01 -0.12886293615E+02  0.16301847324E+02  0.51100000000E-03 0.  1.
        -12    1    3    3    0    0 -0.19990112105E+02 -0.22430967150E+01  0.21472303503E+02  0.29422710320E+02  0.00000000000E+00 0.  1.
</event>
<event>
 7    1  0.7578565E-012  0.5930194E+02  0.7816164E-02  0.1266605E+00
        -11   -1    0    0    0    0  0.00000000000E+00  0.00000000000E+00  0.45593999997E+02  0.45594000000E+02  0.51100000000E-03 0.  1.
         11   -1    0    0    0    0 -0.00000000000E+00 -0.00000000000E+00 -0.45593999997E+02  0.45594000000E+02  0.51100000000E-03 0. -1.
    9900012    2    1    2    0    0  0.20803649628E+01 -0.96677404130E+01  0.30313816796E+02  0.59301943301E+02  0.49999998675E+02 0.  0.
         12    1    1    2    0    0 -0.20803649628E+01  0.96677404130E+01 -0.30313816796E+02  0.31886056699E+02  0.00000000000E+00 0. -1.
         11    1    3    3    0    0 -0.41513761282E+01  0.70575864595E+01 -0.35886329585E+01  0.89398958139E+01  0.51100000000E-03 0. -1.
        -11    1    3    3    0    0  0.59758612447E+01 -0.23231659221E+02  0.36226302925E+02  0.43448428414E+02  0.51100000000E-03 0.  1.
        -12    1    3    3    0    0  0.25587984631E+00  0.65063323487E+01 -0.23238531707E+01  0.69136190730E+01  0.00000000000E+00 0.  1.
</event>
<event>
 7    1  0.7578565E-012  0.5930193E+02  0.7816164E-02  0.1266605E+00
        -11   -1    0    0    0    0  0.00000000000E+00  0.00000000000E+00  0.45593999997E+02  0.45594000000E+02  0.51100000000E-03 0.  1.
         11   -1    0    0    0    0 -0.00000000000E+00 -0.00000000000E+00 -0.45593999997E+02  0.45594000000E+02  0.51100000000E-03 0. -1.
    9900012    2    1    2    0    0 -0.26961351407E+02  0.30477696266E+01  0.16748670152E+02  0.59301932176E+02  0.49999978386E+02 0.  0.
         12    1    1    2    0    0  0.26961351407E+02 -0.30477696266E+01 -0.16748670152E+02  0.31886067824E+02  0.00000000000E+00 0. -1.
         11    1    3    3    0    0  0.72541207381E+01 -0.25435149154E+01  0.49707882371E+01  0.91542597607E+01  0.51100000000E-03 0. -1.
        -11    1    3    3    0    0 -0.18093935822E+02  0.19607028717E+02  0.23054584357E+01  0.26779492667E+02  0.51100000000E-03 0.  1.
         12    1    3    3    0    0 -0.16121536323E+02 -0.14015744175E+02  0.94724234794E+01  0.23368179749E+02  0.00000000000E+00 0. -1.
</event>
<event>
 7    1  0.7578565E-012  0.5930196E+02  0.7816164E-02  0.1266605E+00
        -11   -1    0    0    0    0  0.00000000000E+00  0.00000000000E+00  0.45593999997E+02  0.45594000000E+02  0.51100000000E-03 0.  1.
         11   -1    0    0    0    0 -0.00000000000E+00 -0.00000000000E+00 -0.45593999997E+02  0.45594000000E+02  0.51100000000E-03 0. -1.
    9900012    2    1    2    0    0  0.22935010683E+02  0.69337676179E+01  0.21038716305E+02  0.59301961799E+02  0.50000032411E+02 0.  0.
         12    1    1    2    0    0 -0.22935010683E+02 -0.69337676179E+01 -0.21038716305E+02  0.31886038201E+02  0.00000000000E+00 0. -1.
         11    1    3    3    0    0 -0.13796824866E+02  0.27916509698E+01  0.22901473641E+01  0.14261502962E+02  0.51100000000E-03 0. -1.
        -11    1    3    3    0    0  0.47330120091E+01 -0.53201370170E+01  0.60275789567E+01  0.93293605836E+01  0.51100000000E-03 0.  1.
         12    1    3    3    0    0  0.31998823539E+02  0.94622536651E+01  0.12720989984E+02  0.35711098254E+02  0.00000000000E+00 0. -1.
</event>
<event>
 7    1  0.7578565E-012  0.5930192E+02  0.7816164E-02  0.1266605E+00
        -11   -1    0    0    0    0  0.00000000000E+00  0.00000000000E+00  0.45593999997E+02  0.45594000000E+02  0.51100000000E-03 0. -1.
         11   -1    0    0    0    0 -0.00000000000E+00 -0.00000000000E+00 -0.45593999997E+02  0.45594000000E+02  0.51100000000E-03 0.  1.
    9900012    2    1    2    0    0  0.19720627963E+02 -0.24966162290E+02  0.21235873981E+01  0.59301920746E+02  0.49999957539E+02 0.  0.
         12    1    1    2    0    0 -0.19720627963E+02  0.24966162290E+02 -0.21235873981E+01  0.31886079254E+02  0.00000000000E+00 0. -1.
         11    1    3    3    0    0  0.99082762942E+00  0.10375891385E+02  0.73684353309E+01  0.12764587769E+02  0.51100000000E-03 0. -1.
        -11    1    3    3    0    0  0.23856257069E+02 -0.29980246172E+02 -0.69169584363E+01  0.38933025520E+02  0.51100000000E-03 0.  1.
        -12    1    3    3    0    0 -0.51264567353E+01 -0.53618075031E+01  0.16721105034E+01  0.76043074567E+01  0.00000000000E+00 0.  1.
</event>
<event>
 7    1  0.7578565E-012  0.5930192E+02  0.7816164E-02  0.1266605E+00
        -11   -1    0    0    0    0  0.00000000000E+00  0.00000000000E+00  0.45593999997E+02  0.45594000000E+02  0.51100000000E-03 0.  1.
         11   -1    0    0    0    0 -0.00000000000E+00 -0.00000000000E+00 -0.45593999997E+02  0.45594000000E+02  0.51100000000E-03 0. -1.
    9900012    2    1    2    0    0  0.88486964698E+01  0.23262663286E+02 -0.19931660375E+02  0.59301921256E+02  0.49999958469E+02 0.  0.
         12    1    1    2    0    0 -0.88486964698E+01 -0.23262663286E+02  0.19931660375E+02  0.31886078744E+02  0.00000000000E+00 0. -1.
         11    1    3    3    0    0  0.53084908075E+01  0.53065374720E+01 -0.58325613742E+01  0.95056923493E+01  0.51100000000E-03 0. -1.
        -11    1    3    3    0    0 -0.11574326813E+02  0.26620821771E+02 -0.31012267014E+01  0.29193334860E+02  0.51100000000E-03 0.  1.
        -12    1    3    3    0    0  0.15114532475E+02 -0.86646959569E+01 -0.10997872300E+02  0.20602894046E+02  0.00000000000E+00 0.  1.
</event>
<event>
 7    1  0.7578565E-012  0.5930198E+02  0.7816164E-02  0.1266605E+00
        -11   -1    0    0    0    0  0.00000000000E+00  0.00000000000E+00  0.45593999997E+02  0.45594000000E+02  0.51100000000E-03 0.  1.
         11   -1    0    0    0    0 -0.00000000000E+00 -0.00000000000E+00 -0.45593999997E+02  0.45594000000E+02  0.51100000000E-03 0. -1.
    9900012    2    1    2    0    0  0.20051603066E+02 -0.20158169317E+02  0.14432592764E+02  0.59301979401E+02  0.50000064513E+02 0.  0.
         12    1    1    2    0    0 -0.20051603066E+02  0.20158169317E+02 -0.14432592764E+02  0.31886020599E+02  0.00000000000E+00 0. -1.
         11    1    3    3    0    0  0.59071853901E+01 -0.23953987706E+02  0.12318970142E+01  0.24702346787E+02  0.51100000000E-03 0. -1.
        -11    1    3    3    0    0  0.72542537444E+01 -0.22364485154E+01  0.21151247280E+02  0.22472230888E+02  0.51100000000E-03 0.  1.
         12    1    3    3    0    0  0.68901639313E+01  0.60322669047E+01 -0.79505515296E+01  0.12127401726E+02  0.00000000000E+00 0. -1.
</event>
<event>
 7    1  0.7578565E-012  0.5930195E+02  0.7816164E-02  0.1266605E+00
        -11   -1    0    0    0    0  0.00000000000E+00  0.00000000000E+00  0.45593999997E+02  0.45594000000E+02  0.51100000000E-03 0.  1.
         11   -1    0    0    0    0 -0.00000000000E+00 -0.00000000000E+00 -0.45593999997E+02  0.45594000000E+02  0.51100000000E-03 0. -1.
    9900012    2    1    2    0    0  0.12811121411E+02  0.80355557645E+01  0.28071785987E+02  0.59301950436E+02  0.50000011688E+02 0.  0.
         12    1    1    2    0    0 -0.12811121411E+02 -0.80355557645E+01 -0.28071785987E+02  0.31886049564E+02  0.00000000000E+00 0. -1.
         11    1    3    3    0    0  0.16406070294E+01 -0.33117126663E+01 -0.12422875571E+02  0.12960974883E+02  0.51100000000E-03 0. -1.
        -11    1    3    3    0    0  0.14163901379E+02  0.73574887557E+01  0.21964225738E+02  0.27150984432E+02  0.51100000000E-03 0.  1.
         12    1    3    3    0    0 -0.29933869980E+01  0.39897796752E+01  0.18530435820E+02  0.19189991122E+02  0.00000000000E+00 0. -1.
</event>
<event>
 7    1  0.7578565E-012  0.5930194E+02  0.7816164E-02  0.1266605E+00
        -11   -1    0    0    0    0  0.00000000000E+00  0.00000000000E+00  0.45593999997E+02  0.45594000000E+02  0.51100000000E-03 0.  1.
         11   -1    0    0    0    0 -0.00000000000E+00 -0.00000000000E+00 -0.45593999997E+02  0.45594000000E+02  0.51100000000E-03 0. -1.
    9900012    2    1    2    0    0 -0.22653453529E+02 -0.20778321971E+02  0.84736950259E+01  0.59301935205E+02  0.49999983909E+02 0.  0.
         12    1    1    2    0    0  0.22653453529E+02  0.20778321971E+02 -0.84736950259E+01  0.31886064795E+02  0.00000000000E+00 0. -1.
         11    1    3    3    0    0  0.77973474448E+01 -0.11157581852E+02  0.77837712299E+01  0.15680476867E+02  0.51100000000E-03 0. -1.
        -11    1    3    3    0    0 -0.21006247893E+02 -0.62311895318E+01  0.14702473480E+02  0.26386604560E+02  0.51100000000E-03 0.  1.
         12    1    3    3    0    0 -0.94445530807E+01 -0.33895505871E+01 -0.14012549684E+02  0.17234853777E+02  0.00000000000E+00 0. -1.
</event>
<event>
 7    1  0.7578565E-012  0.5930196E+02  0.7816164E-02  0.1266605E+00
        -11   -1    0    0    0    0  0.00000000000E+00  0.00000000000E+00  0.45593999997E+02  0.45594000000E+02  0.51100000000E-03 0. -1.
         11   -1    0    0    0    0 -0.00000000000E+00 -0.00000000000E+00 -0.45593999997E+02  0.45594000000E+02  0.51100000000E-03 0.  1.
    9900012    2    1    2    0    0 -0.22289055482E+02  0.40044110444E+01 -0.22447316259E+02  0.59301963725E+02  0.50000035923E+02 0.  0.
         12    1    1    2    0    0  0.22289055482E+02 -0.40044110444E+01  0.22447316259E+02  0.31886036275E+02  0.00000000000E+00 0. -1.
         11    1    3    3    0    0 -0.22132418975E+02  0.21477400999E+02 -0.11944172292E+01  0.30863398324E+02  0.51100000000E-03 0.  1.
        -11    1    3    3    0    0 -0.12888754450E+00 -0.13562025424E+02 -0.20298758388E+02  0.24412798650E+02  0.51100000000E-03 0. -1.
        -12    1    3    3    0    0 -0.27748962724E-01 -0.39109645302E+01 -0.95414064244E+00  0.40257667502E+01  0.00000000000E+00 0.  1.
</event>
<event>
 7    1  0.7578565E-012  0.5930195E+02  0.7816164E-02  0.1266605E+00
        -11   -1    0    0    0    0  0.00000000000E+00  0.00000000000E+00  0.45593999997E+02  0.45594000000E+02  0.51100000000E-03 0.  1.
         11   -1    0    0    0    0 -0.00000000000E+00 -0.00000000000E+00 -0.45593999997E+02  0.45594000000E+02  0.51100000000E-03 0. -1.
    9900012    2    1    2    0    0 -0.10680041961E+02 -0.20852517974E+02  0.21629361683E+02  0.59301951500E+02  0.50000013627E+02 0.  0.
         12    1    1    2    0    0  0.10680041961E+02  0.20852517974E+02 -0.21629361683E+02  0.31886048500E+02  0.00000000000E+00 0. -1.
         11    1    3    3    0    0  0.60032678739E+01 -0.33959119197E+00 -0.13415880204E+02  0.14701713820E+02  0.51100000000E-03 0. -1.
        -11    1    3    3    0    0 -0.11457580428E+02 -0.10658262039E+02  0.15089604238E+02  0.21738694885E+02  0.51100000000E-03 0.  1.
         12    1    3    3    0    0 -0.52257294065E+01 -0.98546647439E+01  0.19955637648E+02  0.22861542795E+02  0.00000000000E+00 0. -1.
</event>
<event>
 7    1  0.7578565E-012  0.5930192E+02  0.7816164E-02  0.1266605E+00
        -11   -1    0    0    0    0  0.00000000000E+00  0.00000000000E+00  0.45593999997E+02  0.45594000000E+02  0.51100000000E-03 0. -1.
         11   -1    0    0    0    0 -0.00000000000E+00 -0.00000000000E+00 -0.45593999997E+02  0.45594000000E+02  0.51100000000E-03 0.  1.
    9900012    2    1    2    0    0  0.27878020063E+02  0.92784824185E+01  0.12387411204E+02  0.59301918476E+02  0.49999953399E+02 0.  0.
         12    1    1    2    0    0 -0.27878020063E+02 -0.92784824185E+01 -0.12387411204E+02  0.31886081524E+02  0.00000000000E+00 0. -1.
         11    1    3    3    0    0 -0.24893821553E+01  0.13613717642E+02 -0.94353408869E+01  0.16749805654E+02  0.51100000000E-03 0. -1.
        -11    1    3    3    0    0  0.39850991617E+01 -0.49200347786E+01 -0.23615680700E+01  0.67575706849E+01  0.51100000000E-03 0.  1.
         12    1    3    3    0    0  0.26382303057E+02  0.58479955508E+00  0.24184320161E+02  0.35794542136E+02  0.00000000000E+00 0. -1.
</event>
<event>
 7    1  0.7578565E-012  0.5930172E+02  0.7816164E-02  0.1266606E+00
        -11   -1    0    0    0    0  0.00000000000E+00  0.00000000000E+00  0.45593999997E+02  0.45594000000E+02  0.51100000000E-03 0.  1.
         11   -1    0    0    0    0 -0.00000000000E+00 -0.00000000000E+00 -0.45593999997E+02  0.45594000000E+02  0.51100000000E-03 0. -1.
    9900012    2    1    2    0    0  0.30656684437E+02 -0.87690371964E+01  0.82670888732E-01  0.59301715355E+02  0.49999582954E+02 0.  0.
         12    1    1    2    0    0 -0.30656684437E+02  0.87690371964E+01 -0.82670888732E-01  0.31886284645E+02  0.00000000000E+00 0. -1.
         11    1    3    3    0    0 -0.36712756923E+01  0.74208856765E+01  0.94729737993E+01  0.12581138355E+02  0.51100000000E-03 0. -1.
        -11    1    3    3    0    0  0.11709090618E+02 -0.17430502700E+02 -0.11549753259E+02  0.23965016755E+02  0.51100000000E-03 0.  1.
        -12    1    3    3    0    0  0.22618869511E+02  0.12405798267E+01  0.21594503484E+01  0.22755560245E+02  0.00000000000E+00 0.  1.
</event>
<event>
 7    1  0.7578565E-012  0.5930193E+02  0.7816164E-02  0.1266605E+00
        -11   -1    0    0    0    0  0.00000000000E+00  0.00000000000E+00  0.45593999997E+02  0.45594000000E+02  0.51100000000E-03 0.  1.
         11   -1    0    0    0    0 -0.00000000000E+00 -0.00000000000E+00 -0.45593999997E+02  0.45594000000E+02  0.51100000000E-03 0. -1.
    9900012    2    1    2    0    0  0.18223323931E+02  0.22506914517E+02  0.13344314909E+02  0.59301929741E+02  0.49999973944E+02 0.  0.
         12    1    1    2    0    0 -0.18223323931E+02 -0.22506914517E+02 -0.13344314909E+02  0.31886070259E+02  0.00000000000E+00 0. -1.
         11    1    3    3    0    0 -0.35626285828E+01 -0.10879647791E+01  0.19730400747E+02  0.20078961718E+02  0.51100000000E-03 0. -1.
        -11    1    3    3    0    0 -0.19865471961E+01  0.11745171962E+02 -0.34738667587E-01  0.11912037660E+02  0.51100000000E-03 0.  1.
         12    1    3    3    0    0  0.23772499710E+02  0.11849707334E+02 -0.63513471704E+01  0.27310930362E+02  0.00000000000E+00 0. -1.
</event>
<event>
 7    1  0.7578565E-012  0.5930195E+02  0.7816164E-02  0.1266605E+00
        -11   -1    0    0    0    0  0.00000000000E+00  0.00000000000E+00  0.45593999997E+02  0.45594000000E+02  0.51100000000E-03 0.  1.
         11   -1    0    0    0    0 -0.00000000000E+00 -0.00000000000E+00 -0.45593999997E+02  0.45594000000E+02  0.51100000000E-03 0. -1.
    9900012    2    1    2    0    0  0.31037428231E+02  0.73013495398E+01 -0.29766022971E+00  0.59301948851E+02  0.50000008796E+02 0.  0.
         12    1    1    2    0    0 -0.31037428231E+02 -0.73013495398E+01  0.29766022971E+00  0.31886051149E+02  0.00000000000E+00 0. -1.
         11    1    3    3    0    0  0.33724061363E+02 -0.99450198851E+00 -0.60449117329E+01  0.34275972738E+02  0.51100000000E-03 0. -1.
        -11    1    3    3    0    0 -0.69050926609E+01 -0.53766348885E+01 -0.16698142076E+01  0.89093651361E+01  0.51100000000E-03 0.  1.
        -12    1    3    3    0    0  0.42184595282E+01  0.13672486417E+02  0.74170657109E+01  0.16116610977E+02  0.00000000000E+00 0.  1.
</event>
<event>
 7    1  0.7578565E-012  0.5930193E+02  0.7816164E-02  0.1266605E+00
        -11   -1    0    0    0    0  0.00000000000E+00  0.00000000000E+00  0.45593999997E+02  0.45594000000E+02  0.51100000000E-03 0.  1.
         11   -1    0    0    0    0 -0.00000000000E+00 -0.00000000000E+00 -0.45593999997E+02  0.45594000000E+02  0.51100000000E-03 0. -1.
    9900012    2    1    2    0    0  0.12923590458E+00 -0.70647282751E+01  0.31093316476E+02  0.59301930675E+02  0.49999975648E+02 0.  0.
         12    1    1    2    0    0 -0.12923590458E+00  0.70647282751E+01 -0.31093316476E+02  0.31886069325E+02  0.00000000000E+00 0. -1.
         11    1    3    3    0    0  0.20604590109E+02 -0.57430822667E+01  0.51926930895E+01  0.22011274140E+02  0.51100000000E-03 0.  1.
        -11    1    3    3    0    0 -0.18669598249E+02 -0.56974300294E+01  0.26053371317E+02  0.32554458449E+02  0.51100000000E-03 0. -1.
        -12    1    3    3    0    0 -0.18057559563E+01  0.43757840210E+01 -0.15274793012E+00  0.47361980852E+01  0.00000000000E+00 0.  1.
</event>
<event>
 7    1  0.7578565E-012  0.5930193E+02  0.7816164E-02  0.1266605E+00
        -11   -1    0    0    0    0  0.00000000000E+00  0.00000000000E+00  0.45593999997E+02  0.45594000000E+02  0.51100000000E-03 0.  1.
         11   -1    0    0    0    0 -0.00000000000E+00 -0.00000000000E+00 -0.45593999997E+02  0.45594000000E+02  0.51100000000E-03 0. -1.
    9900012    2    1    2    0    0 -0.13708589148E+02  0.18554811507E+02  0.22011696780E+02  0.59301933425E+02  0.49999980664E+02 0.  0.
         12    1    1    2    0    0  0.13708589148E+02 -0.18554811507E+02 -0.22011696780E+02  0.31886066575E+02  0.00000000000E+00 0. -1.
         11    1    3    3    0    0 -0.56771816841E+01 -0.10733522908E+02 -0.71183826087E+01  0.14075165261E+02  0.51100000000E-03 0. -1.
        -11    1    3    3    0    0 -0.19104025399E+00  0.18327348303E+02  0.76318869161E+01  0.19853812993E+02  0.51100000000E-03 0.  1.
         12    1    3    3    0    0 -0.78403672094E+01  0.10960986112E+02  0.21498192473E+02  0.25372955171E+02  0.00000000000E+00 0. -1.
</event>
<event>
 7    1  0.7578565E-012  0.5930194E+02  0.7816164E-02  0.1266605E+00
        -11   -1    0    0    0    0  0.00000000000E+00  0.00000000000E+00  0.45593999997E+02  0.45594000000E+02  0.51100000000E-03 0.  1.
         11   -1    0    0    0    0 -0.00000000000E+00 -0.00000000000E+00 -0.45593999997E+02  0.45594000000E+02  0.51100000000E-03 0. -1.
    9900012    2    1    2    0    0  0.17269490975E+02  0.11536891999E+02  0.24194737905E+02  0.59301944461E+02  0.50000000791E+02 0.  0.
         12    1    1    2    0    0 -0.17269490975E+02 -0.11536891999E+02 -0.24194737905E+02  0.31886055539E+02  0.00000000000E+00 0. -1.
         11    1    3    3    0    0 -0.56724969348E+01  0.51990166870E+01  0.34653194084E+01  0.84389237969E+01  0.51100000000E-03 0. -1.
        -11    1    3    3    0    0  0.13641876865E+02 -0.75284983814E+01 -0.80900417824E+01  0.17556419583E+02  0.51100000000E-03 0.  1.
        -12    1    3    3    0    0  0.93001110455E+01  0.13866373693E+02  0.28819460278E+02  0.33306601082E+02  0.00000000000E+00 0.  1.
</event>
<event>
 7    1  0.7578565E-012  0.5930169E+02  0.7816164E-02  0.1266606E+00
        -11   -1    0    0    0    0  0.00000000000E+00  0.00000000000E+00  0.45593999997E+02  0.45594000000E+02  0.51100000000E-03 0.  1.
         11   -1    0    0    0    0 -0.00000000000E+00 -0.00000000000E+00 -0.45593999997E+02  0.45594000000E+02  0.51100000000E-03 0. -1.
    9900012    2    1    2    0    0 -0.14936231777E+02  0.18884698861E+02  0.20904870542E+02  0.59301694426E+02  0.49999544785E+02 0.  0.
         12    1    1    2    0    0  0.14936231777E+02 -0.18884698861E+02 -0.20904870542E+02  0.31886305574E+02  0.00000000000E+00 0. -1.
         11    1    3    3    0    0  0.12162268718E+02  0.56698112057E+01  0.27470738842E+00  0.13421736247E+02  0.51100000000E-03 0. -1.
        -11    1    3    3    0    0 -0.13959432240E+02  0.18011225967E+02  0.24165152131E+01  0.22915269043E+02  0.51100000000E-03 0.  1.
         12    1    3    3    0    0 -0.13139068255E+02 -0.47963383110E+01  0.18213647940E+02  0.22964689136E+02  0.00000000000E+00 0. -1.
</event>
<event>
 7    1  0.7578565E-012  0.5930194E+02  0.7816164E-02  0.1266605E+00
        -11   -1    0    0    0    0  0.00000000000E+00  0.00000000000E+00  0.45593999997E+02  0.45594000000E+02  0.51100000000E-03 0.  1.
         11   -1    0    0    0    0 -0.00000000000E+00 -0.00000000000E+00 -0.45593999997E+02  0.45594000000E+02  0.51100000000E-03 0. -1.
    9900012    2    1    2    0    0 -0.26740199917E+02 -0.16408601754E+02  0.56956236903E+01  0.59301942979E+02  0.49999998088E+02 0.  0.
         12    1    1    2    0    0  0.26740199917E+02  0.16408601754E+02 -0.56956236903E+01  0.31886057021E+02  0.00000000000E+00 0. -1.
         11    1    3    3    0    0 -0.88035547729E+01 -0.10461491229E+02 -0.20727811983E+02  0.24831181310E+02  0.51100000000E-03 0. -1.
        -11    1    3    3    0    0 -0.92769937522E+01 -0.63648754881E+01  0.71317674598E+01  0.13320524029E+02  0.51100000000E-03 0.  1.
         12    1    3    3    0    0 -0.86596513914E+01  0.41776496261E+00  0.19291668213E+02  0.21150237640E+02  0.00000000000E+00 0. -1.
</event>
<event>
 7    1  0.7578565E-012  0.5930193E+02  0.7816164E-02  0.1266605E+00
        -11   -1    0    0    0    0  0.00000000000E+00  0.00000000000E+00  0.45593999997E+02  0.45594000000E+02  0.51100000000E-03 0. -1.
         11   -1    0    0    0    0 -0.00000000000E+00 -0.00000000000E+00 -0.45593999997E+02  0.45594000000E+02  0.51100000000E-03 0.  1.
    9900012    2    1    2    0    0  0.98468527496E+01 -0.29254363569E+02 -0.79964277129E+01  0.59301934813E+02  0.49999983195E+02 0.  0.
         12    1    1    2    0    0 -0.98468527496E+01  0.29254363569E+02  0.79964277129E+01  0.31886065187E+02  0.00000000000E+00 0. -1.
         11    1    3    3    0    0  0.62912465719E+00 -0.33890794905E+02 -0.48143954826E+01  0.34236824930E+02  0.51100000000E-03 0. -1.
        -11    1    3    3    0    0  0.13285203992E+02 -0.25980116948E+01  0.39723084425E+01  0.14107641352E+02  0.51100000000E-03 0.  1.
         12    1    3    3    0    0 -0.40674758998E+01  0.72344430309E+01 -0.71543406729E+01  0.10957468532E+02  0.00000000000E+00 0. -1.
</event>
<event>
 7    1  0.7578565E-012  0.5930195E+02  0.7816164E-02  0.1266605E+00
        -11   -1    0    0    0    0  0.00000000000E+00  0.00000000000E+00  0.45593999997E+02  0.45594000000E+02  0.51100000000E-03 0. -1.
         11   -1    0    0    0    0 -0.00000000000E+00 -0.00000000000E+00 -0.45593999997E+02  0.45594000000E+02  0.51100000000E-03 0.  1.
    9900012    2    1    2    0    0 -0.26658296436E+01 -0.19941846164E+02  0.24737349579E+02  0.59301947558E+02  0.50000006439E+02 0.  0.
         12    1    1    2    0    0  0.26658296436E+01  0.19941846164E+02 -0.24737349579E+02  0.31886052442E+02  0.00000000000E+00 0. -1.
         11    1    3    3    0    0  0.19076338017E+02 -0.28500867582E-01  0.71345727855E+01  0.20366875399E+02  0.51100000000E-03 0. -1.
        -11    1    3    3    0    0 -0.19933653100E+02 -0.23435602735E+02  0.15438529574E+02  0.34422756966E+02  0.51100000000E-03 0.  1.
         12    1    3    3    0    0 -0.18085145607E+01  0.35222574382E+01  0.21642472194E+01  0.45123151933E+01  0.00000000000E+00 0. -1.
</event>
<event>
 7    1  0.7578565E-012  0.5930194E+02  0.7816164E-02  0.1266605E+00
        -11   -1    0    0    0    0  0.00000000000E+00  0.00000000000E+00  0.45593999997E+02  0.45594000000E+02  0.51100000000E-03 0. -1.
         11   -1    0    0    0    0 -0.00000000000E+00 -0.00000000000E+00 -0.45593999997E+02  0.45594000000E+02  0.51100000000E-03 0.  1.
    9900012    2    1    2    0    0  0.13582515932E+02 -0.28575163950E+02  0.39618057314E+01  0.59301942883E+02  0.49999997912E+02 0.  0.
         12    1    1    2    0    0 -0.13582515932E+02  0.28575163950E+02 -0.39618057314E+01  0.31886057117E+02  0.00000000000E+00 0. -1.
         11    1    3    3    0    0  0.76228857726E+01  0.11190090202E+02 -0.61509601241E+01  0.14871476623E+02  0.51100000000E-03 0. -1.
        -11    1    3    3    0    0 -0.50101003839E+01 -0.14345143350E+02  0.64346107837E+01  0.16501165407E+02  0.51100000000E-03 0.  1.
         12    1    3    3    0    0  0.10969730544E+02 -0.25420110802E+02  0.36781550717E+01  0.27929300853E+02  0.00000000000E+00 0. -1.
</event>
<event>
 7    1  0.7578565E-012  0.5930193E+02  0.7816164E-02  0.1266605E+00
        -11   -1    0    0    0    0  0.00000000000E+00  0.00000000000E+00  0.45593999997E+02  0.45594000000E+02  0.51100000000E-03 0.  1.
         11   -1    0    0    0    0 -0.00000000000E+00 -0.00000000000E+00 -0.45593999997E+02  0.45594000000E+02  0.51100000000E-03 0. -1.
    9900012    2    1    2    0    0 -0.18323439598E+02  0.32084653927E+01  0.25897463832E+02  0.59301932168E+02  0.49999978370E+02 0.  0.
         12    1    1    2    0    0  0.18323439598E+02 -0.32084653927E+01 -0.25897463832E+02  0.31886067832E+02  0.00000000000E+00 0. -1.
         11    1    3    3    0    0  0.38160960486E+01 -0.73374295655E+00 -0.13973405376E+01  0.41295918221E+01  0.51100000000E-03 0. -1.
        -11    1    3    3    0    0 -0.28884455407E+02  0.47185454061E+00  0.22178991868E+01  0.28973323729E+02  0.51100000000E-03 0.  1.
        -12    1    3    3    0    0  0.67449197603E+01  0.34703538087E+01  0.25076905183E+02  0.26199016617E+02  0.00000000000E+00 0.  1.
</event>
<event>
 7    1  0.7578565E-012  0.5930195E+02  0.7816164E-02  0.1266605E+00
        -11   -1    0    0    0    0  0.00000000000E+00  0.00000000000E+00  0.45593999997E+02  0.45594000000E+02  0.51100000000E-03 0.  1.
         11   -1    0    0    0    0 -0.00000000000E+00 -0.00000000000E+00 -0.45593999997E+02  0.45594000000E+02  0.51100000000E-03 0. -1.
    9900012    2    1    2    0    0  0.87312203179E+01 -0.30049432428E+01  0.30519769136E+02  0.59301949755E+02  0.50000010444E+02 0.  0.
         12    1    1    2    0    0 -0.87312203179E+01  0.30049432428E+01 -0.30519769136E+02  0.31886050245E+02  0.00000000000E+00 0. -1.
         11    1    3    3    0    0 -0.10696092318E+02 -0.99617868881E+01  0.56393102352E+01  0.15666697452E+02  0.51100000000E-03 0. -1.
        -11    1    3    3    0    0  0.29078191146E+01  0.12391138016E+02  0.22811775268E+02  0.26122266450E+02  0.51100000000E-03 0.  1.
        -12    1    3    3    0    0  0.16519493521E+02 -0.54342943711E+01  0.20686836331E+01  0.17512985853E+02  0.00000000000E+00 0.  1.
</event>
<event>
 7    1  0.7578565E-012  0.5930188E+02  0.7816164E-02  0.1266605E+00
        -11   -1    0    0    0    0  0.00000000000E+00  0.00000000000E+00  0.45593999997E+02  0.45594000000E+02  0.51100000000E-03 0. -1.
         11   -1    0    0    0    0 -0.00000000000E+00 -0.00000000000E+00 -0.45593999997E+02  0.45594000000E+02  0.51100000000E-03 0.  1.
    9900012    2    1    2    0    0 -0.17492949067E+02  0.97932515147E+01  0.24795440917E+02  0.59301875548E+02  0.49999875109E+02 0.  0.
         12    1    1    2    0    0  0.17492949067E+02 -0.97932515147E+01 -0.24795440917E+02  0.31886124452E+02  0.00000000000E+00 0. -1.
         11    1    3    3    0    0  0.88061650251E+01  0.18949043933E+02  0.78087868948E+01  0.22306769409E+02  0.51100000000E-03 0. -1.
        -11    1    3    3    0    0 -0.20168886465E+02  0.15359715454E+01  0.80443192376E+01  0.21768193818E+02  0.51100000000E-03 0.  1.
         12    1    3    3    0    0 -0.61302276266E+01 -0.10691763964E+02  0.89423347849E+01  0.15226912321E+02  0.00000000000E+00 0. -1.
</event>
<event>
 7    1  0.7578565E-012  0.5930191E+02  0.7816164E-02  0.1266605E+00
        -11   -1    0    0    0    0  0.00000000000E+00  0.00000000000E+00  0.45593999997E+02  0.45594000000E+02  0.51100000000E-03 0. -1.
         11   -1    0    0    0    0 -0.00000000000E+00 -0.00000000000E+00 -0.45593999997E+02  0.45594000000E+02  0.51100000000E-03 0.  1.
    9900012    2    1    2    0    0  0.13210113293E+02 -0.25511015204E+02 -0.13834865445E+02  0.59301913821E+02  0.49999944910E+02 0.  0.
         12    1    1    2    0    0 -0.13210113293E+02  0.25511015204E+02  0.13834865445E+02  0.31886086179E+02  0.00000000000E+00 0. -1.
         11    1    3    3    0    0  0.22172800474E+01 -0.13321638891E+02 -0.10564958870E+01  0.13546164674E+02  0.51100000000E-03 0. -1.
        -11    1    3    3    0    0 -0.11584034890E+02  0.76227478179E+01 -0.48367487067E+01  0.14686398025E+02  0.51100000000E-03 0.  1.
        -12    1    3    3    0    0  0.22576868136E+02 -0.19812124131E+02 -0.79416208508E+01  0.31069351122E+02  0.00000000000E+00 0.  1.
</event>
<event>
 7    1  0.7578565E-012  0.5930197E+02  0.7816164E-02  0.1266605E+00
        -11   -1    0    0    0    0  0.00000000000E+00  0.00000000000E+00  0.45593999997E+02  0.45594000000E+02  0.51100000000E-03 0.  1.
         11   -1    0    0    0    0 -0.00000000000E+00 -0.00000000000E+00 -0.45593999997E+02  0.45594000000E+02  0.51100000000E-03 0. -1.
    9900012    2    1    2    0    0  0.22785715796E+02 -0.92294588513E+01  0.20306336781E+02  0.59301967502E+02  0.50000042811E+02 0.  0.
         12    1    1    2    0    0 -0.22785715796E+02  0.92294588513E+01 -0.20306336781E+02  0.31886032498E+02  0.00000000000E+00 0. -1.
         11    1    3    3    0    0  0.46791265409E+01  0.20927247195E+00 -0.97744666219E+01  0.10838736926E+02  0.51100000000E-03 0. -1.
        -11    1    3    3    0    0 -0.65004228195E+01 -0.92617130676E+01  0.17464986214E+02  0.20810107388E+02  0.51100000000E-03 0.  1.
        -12    1    3    3    0    0  0.24607012075E+02 -0.17701825570E+00  0.12615817189E+02  0.27653123188E+02  0.00000000000E+00 0.  1.
</event>
<event>
 7    1  0.7578565E-012  0.5930190E+02  0.7816164E-02  0.1266605E+00
        -11   -1    0    0    0    0  0.00000000000E+00  0.00000000000E+00  0.45593999997E+02  0.45594000000E+02  0.51100000000E-03 0. -1.
         11   -1    0    0    0    0 -0.00000000000E+00 -0.00000000000E+00 -0.45593999997E+02  0.45594000000E+02  0.51100000000E-03 0.  1.
    9900012    2    1    2    0    0  0.25943061984E+02 -0.18249658916E+02 -0.32604544932E+01  0.59301904611E+02  0.49999928113E+02 0.  0.
         12    1    1    2    0    0 -0.25943061984E+02  0.18249658916E+02  0.32604544932E+01  0.31886095389E+02  0.00000000000E+00 0. -1.
         11    1    3    3    0    0 -0.13548068558E+02 -0.91797501154E+00  0.64027660816E+01  0.15012936207E+02  0.51100000000E-03 0. -1.
        -11    1    3    3    0    0  0.97407359842E+01 -0.35222829962E+01 -0.12912499997E+01  0.10438186712E+02  0.51100000000E-03 0.  1.
         12    1    3    3    0    0  0.29750394559E+02 -0.13809400908E+02 -0.83719705751E+01  0.33850781692E+02  0.00000000000E+00 0. -1.
</event>
<event>
 7    1  0.7578565E-012  0.5930194E+02  0.7816164E-02  0.1266605E+00
        -11   -1    0    0    0    0  0.00000000000E+00  0.00000000000E+00  0.45593999997E+02  0.45594000000E+02  0.51100000000E-03 0.  1.
         11   -1    0    0    0    0 -0.00000000000E+00 -0.00000000000E+00 -0.45593999997E+02  0.45594000000E+02  0.51100000000E-03 0. -1.
    9900012    2    1    2    0    0  0.17418144860E+02 -0.21012495228E+02  0.16486479698E+02  0.59301941308E+02  0.49999995040E+02 0.  0.
         12    1    1    2    0    0 -0.17418144860E+02  0.21012495228E+02 -0.16486479698E+02  0.31886058692E+02  0.00000000000E+00 0. -1.
         11    1    3    3    0    0 -0.19098607924E+01  0.28779752761E+01  0.15167935874E+01  0.37723961860E+01  0.51100000000E-03 0. -1.
        -11    1    3    3    0    0  0.14773622327E+02 -0.73691333541E+01 -0.14148368531E+02  0.21742593576E+02  0.51100000000E-03 0.  1.
        -12    1    3    3    0    0  0.45543833252E+01 -0.16521337151E+02  0.29118054641E+02  0.33786951546E+02  0.00000000000E+00 0.  1.
</event>
<event>
 7    1  0.7578565E-012  0.5930193E+02  0.7816164E-02  0.1266605E+00
        -11   -1    0    0    0    0  0.00000000000E+00  0.00000000000E+00  0.45593999997E+02  0.45594000000E+02  0.51100000000E-03 0. -1.
         11   -1    0    0    0    0 -0.00000000000E+00 -0.00000000000E+00 -0.45593999997E+02  0.45594000000E+02  0.51100000000E-03 0.  1.
    9900012    2    1    2    0    0  0.23066328007E+02  0.45069544370E+01 -0.21548865219E+02  0.59301925952E+02  0.49999967033E+02 0.  0.
         12    1    1    2    0    0 -0.23066328007E+02 -0.45069544370E+01  0.21548865219E+02  0.31886074048E+02  0.00000000000E+00 0. -1.
         11    1    3    3    0    0  0.29554670614E+02  0.47238956693E+01 -0.92930292691E+01  0.31339338516E+02  0.51100000000E-03 0. -1.
        -11    1    3    3    0    0 -0.32915927054E+01  0.10034783517E+02  0.13310255360E+01  0.10644392515E+02  0.51100000000E-03 0.  1.
         12    1    3    3    0    0 -0.31967499015E+01 -0.10251724749E+02 -0.13586861485E+02  0.17318194920E+02  0.00000000000E+00 0. -1.
</event>
<event>
 7    1  0.7578565E-012  0.5930206E+02  0.7816164E-02  0.1266604E+00
        -11   -1    0    0    0    0  0.00000000000E+00  0.00000000000E+00  0.45593999997E+02  0.45594000000E+02  0.51100000000E-03 0.  1.
         11   -1    0    0    0    0 -0.00000000000E+00 -0.00000000000E+00 -0.45593999997E+02  0.45594000000E+02  0.51100000000E-03 0. -1.
    9900012    2    1    2    0    0 -0.28984772358E+02 -0.36617225556E+01  0.12774500811E+02  0.59302060909E+02  0.50000213163E+02 0.  0.
         12    1    1    2    0    0  0.28984772358E+02  0.36617225556E+01 -0.12774500811E+02  0.31885939091E+02  0.00000000000E+00 0. -1.
         11    1    3    3    0    0 -0.13379323366E+02 -0.13465786116E+02 -0.85680628946E+01  0.20826554960E+02  0.51100000000E-03 0. -1.
        -11    1    3    3    0    0 -0.39137912418E+01 -0.39444740666E+01  0.19567043641E+02  0.20340743218E+02  0.51100000000E-03 0.  1.
        -12    1    3    3    0    0 -0.11691657750E+02  0.13748537627E+02  0.17755200654E+01  0.18134762732E+02  0.00000000000E+00 0.  1.
</event>
<event>
 7    1  0.7578565E-012  0.5930198E+02  0.7816164E-02  0.1266605E+00
        -11   -1    0    0    0    0  0.00000000000E+00  0.00000000000E+00  0.45593999997E+02  0.45594000000E+02  0.51100000000E-03 0. -1.
         11   -1    0    0    0    0 -0.00000000000E+00 -0.00000000000E+00 -0.45593999997E+02  0.45594000000E+02  0.51100000000E-03 0.  1.
    9900012    2    1    2    0    0  0.20017295641E+02  0.22045334246E+02  0.11403048644E+02  0.59301977904E+02  0.50000061781E+02 0.  0.
         12    1    1    2    0    0 -0.20017295641E+02 -0.22045334246E+02 -0.11403048644E+02  0.31886022096E+02  0.00000000000E+00 0. -1.
         11    1    3    3    0    0  0.23430799792E+02 -0.26487670453E+01  0.95031303389E+01  0.25422978430E+02  0.51100000000E-03 0. -1.
        -11    1    3    3    0    0  0.46753188693E+01  0.17443587721E+02 -0.74605542696E+01  0.19539632273E+02  0.51100000000E-03 0.  1.
         12    1    3    3    0    0 -0.80888230205E+01  0.72505135700E+01  0.93604725746E+01  0.14339367200E+02  0.00000000000E+00 0. -1.
</event>
<event>
 7    1  0.7578565E-012  0.5930207E+02  0.7816164E-02  0.1266604E+00
        -11   -1    0    0    0    0  0.00000000000E+00  0.00000000000E+00  0.45593999997E+02  0.45594000000E+02  0.51100000000E-03 0. -1.
         11   -1    0    0    0    0 -0.00000000000E+00 -0.00000000000E+00 -0.45593999997E+02  0.45594000000E+02  0.51100000000E-03 0.  1.
    9900012    2    1    2    0    0  0.29963427148E+02  0.97769302017E+01  0.48288171180E+01  0.59302065712E+02  0.50000221923E+02 0.  0.
         12    1    1    2    0    0 -0.29963427148E+02 -0.97769302017E+01 -0.48288171180E+01  0.31885934288E+02  0.00000000000E+00 0. -1.
         11    1    3    3    0    0 -0.12233914095E+02  0.17501723665E+01  0.20898272905E+01  0.12533919409E+02  0.51100000000E-03 0. -1.
        -11    1    3    3    0    0  0.32675012524E+02  0.96149114455E+01  0.90404999978E+01  0.35239659562E+02  0.51100000000E-03 0.  1.
        -12    1    3    3    0    0  0.95223287189E+01 -0.15881536103E+01 -0.63015101703E+01  0.11528486741E+02  0.00000000000E+00 0.  1.
</event>
<event>
 7    1  0.7578565E-012  0.5930196E+02  0.7816164E-02  0.1266605E+00
        -11   -1    0    0    0    0  0.00000000000E+00  0.00000000000E+00  0.45593999997E+02  0.45594000000E+02  0.51100000000E-03 0.  1.
         11   -1    0    0    0    0 -0.00000000000E+00 -0.00000000000E+00 -0.45593999997E+02  0.45594000000E+02  0.51100000000E-03 0. -1.
    9900012    2    1    2    0    0 -0.25328316853E+02  0.16792020304E+02  0.96552505509E+01  0.59301961617E+02  0.50000032079E+02 0.  0.
         12    1    1    2    0    0  0.25328316853E+02 -0.16792020304E+02 -0.96552505509E+01  0.31886038383E+02  0.00000000000E+00 0. -1.
         11    1    3    3    0    0 -0.32224301641E+02  0.23544489756E+02  0.29931109875E+01  0.40021335907E+02  0.51100000000E-03 0. -1.
        -11    1    3    3    0    0  0.25803017226E+01 -0.82072713934E+01  0.10322512078E+02  0.13437690150E+02  0.51100000000E-03 0.  1.
        -12    1    3    3    0    0  0.43156830653E+01  0.14548019414E+01 -0.36603725149E+01  0.58429355599E+01  0.00000000000E+00 0.  1.
</event>
<event>
 7    1  0.7578565E-012  0.5930179E+02  0.7816164E-02  0.1266605E+00
        -11   -1    0    0    0    0  0.00000000000E+00  0.00000000000E+00  0.45593999997E+02  0.45594000000E+02  0.51100000000E-03 0. -1.
         11   -1    0    0    0    0 -0.00000000000E+00 -0.00000000000E+00 -0.45593999997E+02  0.45594000000E+02  0.51100000000E-03 0.  1.
    9900012    2    1    2    0    0  0.27667004208E+02  0.21857117426E+01 -0.15699999206E+02  0.59301789301E+02  0.49999717816E+02 0.  0.
         12    1    1    2    0    0 -0.27667004208E+02 -0.21857117426E+01  0.15699999206E+02  0.31886210699E+02  0.00000000000E+00 0. -1.
         11    1    3    3    0    0 -0.27311242469E+01 -0.46779507565E+01 -0.59381089409E+01  0.80376240885E+01  0.51100000000E-03 0. -1.
        -11    1    3    3    0    0  0.38529362943E+02 -0.42454383290E+00 -0.11490977732E+02  0.40208638572E+02  0.51100000000E-03 0.  1.
        -12    1    3    3    0    0 -0.81312344888E+01  0.72882063320E+01  0.17290874670E+01  0.11055526641E+02  0.00000000000E+00 0.  1.
</event>
<event>
 7    1  0.7578565E-012  0.5930193E+02  0.7816164E-02  0.1266605E+00
        -11   -1    0    0    0    0  0.00000000000E+00  0.00000000000E+00  0.45593999997E+02  0.45594000000E+02  0.51100000000E-03 0.  1.
         11   -1    0    0    0    0 -0.00000000000E+00 -0.00000000000E+00 -0.45593999997E+02  0.45594000000E+02  0.51100000000E-03 0. -1.
    9900012    2    1    2    0    0 -0.89629201939E+01 -0.19778133855E+02  0.23349798973E+02  0.59301927347E+02  0.49999969578E+02 0.  0.
         12    1    1    2    0    0  0.89629201939E+01  0.19778133855E+02 -0.23349798973E+02  0.31886072653E+02  0.00000000000E+00 0. -1.
         11    1    3    3    0    0 -0.16849693057E+02 -0.22744760984E+02  0.18815505610E+02  0.33989109432E+02  0.51100000000E-03 0.  1.
        -11    1    3    3    0    0  0.98593051344E+01  0.31695282606E+01 -0.77086871600E+01  0.12910292991E+02  0.51100000000E-03 0. -1.
         12    1    3    3    0    0 -0.19725322712E+01 -0.20290113145E+00  0.12242980522E+02  0.12402524924E+02  0.00000000000E+00 0. -1.
</event>
<event>
 7    1  0.7578565E-012  0.5930197E+02  0.7816164E-02  0.1266605E+00
        -11   -1    0    0    0    0  0.00000000000E+00  0.00000000000E+00  0.45593999997E+02  0.45594000000E+02  0.51100000000E-03 0.  1.
         11   -1    0    0    0    0 -0.00000000000E+00 -0.00000000000E+00 -0.45593999997E+02  0.45594000000E+02  0.51100000000E-03 0. -1.
    9900012    2    1    2    0    0  0.65902825543E+01 -0.69760439592E+01  0.30407594772E+02  0.59301971190E+02  0.50000049537E+02 0.  0.
         12    1    1    2    0    0 -0.65902825543E+01  0.69760439592E+01 -0.30407594772E+02  0.31886028810E+02  0.00000000000E+00 0. -1.
         11    1    3    3    0    0 -0.92883755631E+01 -0.96912152181E+01  0.24450216475E+02  0.27892770729E+02  0.51100000000E-03 0.  1.
        -11    1    3    3    0    0  0.16520310852E+02  0.71632477456E+01 -0.57230126381E+01  0.18894064222E+02  0.51100000000E-03 0. -1.
         12    1    3    3    0    0 -0.64165273500E+00 -0.44480764867E+01  0.11680390935E+02  0.12515136238E+02  0.00000000000E+00 0. -1.
</event>
<event>
 7    1  0.7578565E-012  0.5930198E+02  0.7816164E-02  0.1266605E+00
        -11   -1    0    0    0    0  0.00000000000E+00  0.00000000000E+00  0.45593999997E+02  0.45594000000E+02  0.51100000000E-03 0. -1.
         11   -1    0    0    0    0 -0.00000000000E+00 -0.00000000000E+00 -0.45593999997E+02  0.45594000000E+02  0.51100000000E-03 0.  1.
    9900012    2    1    2    0    0  0.92438238480E+01 -0.80109315516E+01 -0.29446475507E+02  0.59301980753E+02  0.50000066978E+02 0.  0.
         12    1    1    2    0    0 -0.92438238480E+01  0.80109315516E+01  0.29446475507E+02  0.31886019247E+02  0.00000000000E+00 0. -1.
         11    1    3    3    0    0  0.58733927086E+01  0.19149647761E+01  0.12449533157E+02  0.13898010940E+02  0.51100000000E-03 0. -1.
        -11    1    3    3    0    0  0.64291505494E+01 -0.12130307660E+02 -0.32688522872E+02  0.35454447796E+02  0.51100000000E-03 0.  1.
         12    1    3    3    0    0 -0.30587194100E+01  0.22044113321E+01 -0.92074857917E+01  0.99495220164E+01  0.00000000000E+00 0. -1.
</event>
<event>
 7    1  0.7578565E-012  0.5930195E+02  0.7816164E-02  0.1266605E+00
        -11   -1    0    0    0    0  0.00000000000E+00  0.00000000000E+00  0.45593999997E+02  0.45594000000E+02  0.51100000000E-03 0. -1.
         11   -1    0    0    0    0 -0.00000000000E+00 -0.00000000000E+00 -0.45593999997E+02  0.45594000000E+02  0.51100000000E-03 0.  1.
    9900012    2    1    2    0    0 -0.15538317629E+01  0.31610683881E+02  0.38821021254E+01  0.59301945909E+02  0.50000003432E+02 0.  0.
         12    1    1    2    0    0  0.15538317629E+01 -0.31610683881E+02 -0.38821021254E+01  0.31886054091E+02  0.00000000000E+00 0. -1.
         11    1    3    3    0    0  0.56430498313E-01  0.85453793473E+01  0.17648027921E+02  0.19608150916E+02  0.51100000000E-03 0. -1.
        -11    1    3    3    0    0 -0.53982690026E+01  0.26817575276E+02 -0.18117925316E+02  0.32811322282E+02  0.51100000000E-03 0.  1.
        -12    1    3    3    0    0  0.37880067414E+01 -0.37522707423E+01  0.43519995202E+01  0.68824727111E+01  0.00000000000E+00 0.  1.
</event>
<event>
 7    1  0.7578565E-012  0.5930194E+02  0.7816164E-02  0.1266605E+00
        -11   -1    0    0    0    0  0.00000000000E+00  0.00000000000E+00  0.45593999997E+02  0.45594000000E+02  0.51100000000E-03 0. -1.
         11   -1    0    0    0    0 -0.00000000000E+00 -0.00000000000E+00 -0.45593999997E+02  0.45594000000E+02  0.51100000000E-03 0.  1.
    9900012    2    1    2    0    0 -0.95121364469E+01 -0.11872608342E+02 -0.28022865402E+02  0.59301944208E+02  0.50000000328E+02 0.  0.
         12    1    1    2    0    0  0.95121364469E+01  0.11872608342E+02  0.28022865402E+02  0.31886055792E+02  0.00000000000E+00 0. -1.
         11    1    3    3    0    0 -0.25502666157E+02 -0.43713516209E+01 -0.30615266167E+01  0.26055088593E+02  0.51100000000E-03 0. -1.
        -11    1    3    3    0    0  0.81705246453E+01 -0.10573403389E+02 -0.17437374245E+02  0.21968530971E+02  0.51100000000E-03 0.  1.
         12    1    3    3    0    0  0.78200050647E+01  0.30721466679E+01 -0.75239645407E+01  0.11278324644E+02  0.00000000000E+00 0. -1.
</event>
<event>
 7    1  0.7578565E-012  0.5930186E+02  0.7816164E-02  0.1266605E+00
        -11   -1    0    0    0    0  0.00000000000E+00  0.00000000000E+00  0.45593999997E+02  0.45594000000E+02  0.51100000000E-03 0.  1.
         11   -1    0    0    0    0 -0.00000000000E+00 -0.00000000000E+00 -0.45593999997E+02  0.45594000000E+02  0.51100000000E-03 0. -1.
    9900012    2    1    2    0    0  0.19137756467E+02 -0.68254866836E+01  0.24574068517E+02  0.59301861405E+02  0.49999849316E+02 0.  0.
         12    1    1    2    0    0 -0.19137756467E+02  0.68254866836E+01 -0.24574068517E+02  0.31886138595E+02  0.00000000000E+00 0. -1.
         11    1    3    3    0    0 -0.74589511274E+01  0.81502424468E+01  0.25299321194E+02  0.27606485778E+02  0.51100000000E-03 0. -1.
        -11    1    3    3    0    0  0.15978898493E+02 -0.42573731367E+01  0.62355229767E+00  0.16548088736E+02  0.51100000000E-03 0.  1.
         12    1    3    3    0    0  0.10617809101E+02 -0.10718355994E+02 -0.13488049749E+01  0.15147286891E+02  0.00000000000E+00 0. -1.
</event>
<event>
 7    1  0.7578565E-012  0.5930195E+02  0.7816164E-02  0.1266605E+00
        -11   -1    0    0    0    0  0.00000000000E+00  0.00000000000E+00  0.45593999997E+02  0.45594000000E+02  0.51100000000E-03 0.  1.
         11   -1    0    0    0    0 -0.00000000000E+00 -0.00000000000E+00 -0.45593999997E+02  0.45594000000E+02  0.51100000000E-03 0. -1.
    9900012    2    1    2    0    0  0.59135265433E+01 -0.77422218327E+01  0.30361292624E+02  0.59301954700E+02  0.50000019464E+02 0.  0.
         12    1    1    2    0    0 -0.59135265433E+01  0.77422218327E+01 -0.30361292624E+02  0.31886045300E+02  0.00000000000E+00 0. -1.
         11    1    3    3    0    0 -0.21617939226E+01  0.67337409899E+00 -0.75375403768E+01  0.78702795905E+01  0.51100000000E-03 0. -1.
        -11    1    3    3    0    0  0.14242045066E+02  0.67498020719E+01  0.28464742692E+02  0.32536706233E+02  0.51100000000E-03 0.  1.
        -12    1    3    3    0    0 -0.61667246004E+01 -0.15165398004E+02  0.94340903085E+01  0.18894968877E+02  0.00000000000E+00 0.  1.
</event>
<event>
 7    1  0.7578565E-012  0.5930195E+02  0.7816164E-02  0.1266605E+00
        -11   -1    0    0    0    0  0.00000000000E+00  0.00000000000E+00  0.45593999997E+02  0.45594000000E+02  0.51100000000E-03 0.  1.
         11   -1    0    0    0    0 -0.00000000000E+00 -0.00000000000E+00 -0.45593999997E+02  0.45594000000E+02  0.51100000000E-03 0. -1.
    9900012    2    1    2    0    0 -0.13922938727E+02  0.25546976484E+02 -0.13046986834E+02  0.59301951394E+02  0.50000013434E+02 0.  0.
         12    1    1    2    0    0  0.13922938727E+02 -0.25546976484E+02  0.13046986834E+02  0.31886048606E+02  0.00000000000E+00 0. -1.
         11    1    3    3    0    0 -0.24200103547E+02  0.91288072293E+01 -0.69114145652E+01  0.26772145687E+02  0.51100000000E-03 0. -1.
        -11    1    3    3    0    0  0.12419754167E+02  0.21570421392E+02 -0.94418369346E+00  0.24908329043E+02  0.51100000000E-03 0.  1.
         12    1    3    3    0    0 -0.21425893468E+01 -0.51522521375E+01 -0.51913885754E+01  0.76214766639E+01  0.00000000000E+00 0. -1.
</event>
<event>
 7    1  0.7578565E-012  0.5930191E+02  0.7816164E-02  0.1266605E+00
        -11   -1    0    0    0    0  0.00000000000E+00  0.00000000000E+00  0.45593999997E+02  0.45594000000E+02  0.51100000000E-03 0.  1.
         11   -1    0    0    0    0 -0.00000000000E+00 -0.00000000000E+00 -0.45593999997E+02  0.45594000000E+02  0.51100000000E-03 0. -1.
    9900012    2    1    2    0    0 -0.16354260044E+02  0.12002590620E+02  0.24600787493E+02  0.59301909796E+02  0.49999937570E+02 0.  0.
         12    1    1    2    0    0  0.16354260044E+02 -0.12002590620E+02 -0.24600787493E+02  0.31886090204E+02  0.00000000000E+00 0. -1.
         11    1    3    3    0    0 -0.18785233835E+02  0.14988886778E+02  0.14643440104E+02  0.28142176096E+02  0.51100000000E-03 0.  1.
        -11    1    3    3    0    0  0.13018164253E+02 -0.79936494642E+01 -0.74494435772E+00  0.15294638754E+02  0.51100000000E-03 0. -1.
         12    1    3    3    0    0 -0.10587190462E+02  0.50073533065E+01  0.10702291747E+02  0.15865094946E+02  0.00000000000E+00 0. -1.
</event>
<event>
 7    1  0.7578565E-012  0.5930199E+02  0.7816164E-02  0.1266605E+00
        -11   -1    0    0    0    0  0.00000000000E+00  0.00000000000E+00  0.45593999997E+02  0.45594000000E+02  0.51100000000E-03 0.  1.
         11   -1    0    0    0    0 -0.00000000000E+00 -0.00000000000E+00 -0.45593999997E+02  0.45594000000E+02  0.51100000000E-03 0. -1.
    9900012    2    1    2    0    0 -0.13215890544E+02  0.25866462781E+02  0.13152343399E+02  0.59301987446E+02  0.50000079184E+02 0.  0.
         12    1    1    2    0    0  0.13215890544E+02 -0.25866462781E+02 -0.13152343399E+02  0.31886012554E+02  0.00000000000E+00 0. -1.
         11    1    3    3    0    0 -0.11092227397E+02 -0.68280295298E+01 -0.11662602550E-01  0.13025345760E+02  0.51100000000E-03 0. -1.
        -11    1    3    3    0    0  0.94806461323E+01  0.15823341847E+02  0.17409580429E+02  0.25364429607E+02  0.51100000000E-03 0.  1.
         12    1    3    3    0    0 -0.11604309279E+02  0.16871150464E+02 -0.42455744272E+01  0.20912212080E+02  0.00000000000E+00 0. -1.
</event>
<event>
 7    1  0.7578565E-012  0.5930195E+02  0.7816164E-02  0.1266605E+00
        -11   -1    0    0    0    0  0.00000000000E+00  0.00000000000E+00  0.45593999997E+02  0.45594000000E+02  0.51100000000E-03 0.  1.
         11   -1    0    0    0    0 -0.00000000000E+00 -0.00000000000E+00 -0.45593999997E+02  0.45594000000E+02  0.51100000000E-03 0. -1.
    9900012    2    1    2    0    0 -0.27082202103E+02  0.16737060177E+02  0.17734587214E+01  0.59301952739E+02  0.50000015888E+02 0.  0.
         12    1    1    2    0    0  0.27082202103E+02 -0.16737060177E+02 -0.17734587214E+01  0.31886047261E+02  0.00000000000E+00 0. -1.
         11    1    3    3    0    0 -0.97685036216E+00  0.14997936672E+01 -0.67560190905E+01  0.69890923507E+01  0.51100000000E-03 0. -1.
        -11    1    3    3    0    0 -0.10164078538E+02  0.26349568374E+02  0.14811858285E+02  0.31890427907E+02  0.51100000000E-03 0.  1.
        -12    1    3    3    0    0 -0.15941273203E+02 -0.11112301864E+02 -0.62823804730E+01  0.20422432481E+02  0.00000000000E+00 0.  1.
</event>
<event>
 7    1  0.7578565E-012  0.5930194E+02  0.7816164E-02  0.1266605E+00
        -11   -1    0    0    0    0  0.00000000000E+00  0.00000000000E+00  0.45593999997E+02  0.45594000000E+02  0.51100000000E-03 0. -1.
         11   -1    0    0    0    0 -0.00000000000E+00 -0.00000000000E+00 -0.45593999997E+02  0.45594000000E+02  0.51100000000E-03 0.  1.
    9900012    2    1    2    0    0 -0.26342988756E+02  0.76906651288E+01 -0.16236413807E+02  0.59301944740E+02  0.50000001299E+02 0.  0.
         12    1    1    2    0    0  0.26342988756E+02 -0.76906651288E+01  0.16236413807E+02  0.31886055260E+02  0.00000000000E+00 0. -1.
         11    1    3    3    0    0  0.53137998379E+01  0.34877911688E+01  0.10078510244E+02  0.11915432219E+02  0.51100000000E-03 0. -1.
        -11    1    3    3    0    0 -0.19667934708E+02  0.12097003854E+02 -0.23130486548E+02  0.32683092971E+02  0.51100000000E-03 0.  1.
        -12    1    3    3    0    0 -0.11988853886E+02 -0.78941298940E+01 -0.31844375033E+01  0.14703419551E+02  0.00000000000E+00 0.  1.
</event>
<event>
 7    1  0.7578565E-012  0.5930193E+02  0.7816164E-02  0.1266605E+00
        -11   -1    0    0    0    0  0.00000000000E+00  0.00000000000E+00  0.45593999997E+02  0.45594000000E+02  0.51100000000E-03 0.  1.
         11   -1    0    0    0    0 -0.00000000000E+00 -0.00000000000E+00 -0.45593999997E+02  0.45594000000E+02  0.51100000000E-03 0. -1.
    9900012    2    1    2    0    0  0.31437517201E+01  0.31158803784E+02  0.59972671263E+01  0.59301930297E+02  0.49999974958E+02 0.  0.
         12    1    1    2    0    0 -0.31437517201E+01 -0.31158803784E+02 -0.59972671263E+01  0.31886069703E+02  0.00000000000E+00 0. -1.
         11    1    3    3    0    0 -0.18892253462E+02  0.17923915991E+02  0.68337474268E+00  0.26050931013E+02  0.51100000000E-03 0. -1.
        -11    1    3    3    0    0  0.22714175283E+02  0.85219017003E+01  0.10300360935E+02  0.26356289630E+02  0.51100000000E-03 0.  1.
        -12    1    3    3    0    0 -0.67817010118E+00  0.47129860927E+01 -0.49864685518E+01  0.68947096541E+01  0.00000000000E+00 0.  1.
</event>
<event>
 7    1  0.7578565E-012  0.5930194E+02  0.7816164E-02  0.1266605E+00
        -11   -1    0    0    0    0  0.00000000000E+00  0.00000000000E+00  0.45593999997E+02  0.45594000000E+02  0.51100000000E-03 0.  1.
         11   -1    0    0    0    0 -0.00000000000E+00 -0.00000000000E+00 -0.45593999997E+02  0.45594000000E+02  0.51100000000E-03 0. -1.
    9900012    2    1    2    0    0 -0.12959344240E+02 -0.28057332193E+02 -0.78461807735E+01  0.59301936498E+02  0.49999986268E+02 0.  0.
         12    1    1    2    0    0  0.12959344240E+02  0.28057332193E+02  0.78461807735E+01  0.31886063502E+02  0.00000000000E+00 0. -1.
         11    1    3    3    0    0  0.42407321031E+01 -0.11257425191E+02  0.17494488226E+02  0.21231357687E+02  0.51100000000E-03 0. -1.
        -11    1    3    3    0    0 -0.14037053431E+02 -0.42243947736E+01 -0.17841014260E+02  0.23090824375E+02  0.51100000000E-03 0.  1.
         12    1    3    3    0    0 -0.31630229119E+01 -0.12575512229E+02 -0.74996547393E+01  0.14979754436E+02  0.00000000000E+00 0. -1.
</event>
<event>
 7    1  0.7578565E-012  0.5930197E+02  0.7816164E-02  0.1266605E+00
        -11   -1    0    0    0    0  0.00000000000E+00  0.00000000000E+00  0.45593999997E+02  0.45594000000E+02  0.51100000000E-03 0. -1.
         11   -1    0    0    0    0 -0.00000000000E+00 -0.00000000000E+00 -0.45593999997E+02  0.45594000000E+02  0.51100000000E-03 0.  1.
    9900012    2    1    2    0    0  0.14902215336E+02  0.23740017866E+02  0.15200476592E+02  0.59301969221E+02  0.50000045947E+02 0.  0.
         12    1    1    2    0    0 -0.14902215336E+02 -0.23740017866E+02 -0.15200476592E+02  0.31886030779E+02  0.00000000000E+00 0. -1.
         11    1    3    3    0    0  0.31724292005E+01 -0.54885814677E+01  0.14370290950E+02  0.15706498522E+02  0.51100000000E-03 0. -1.
        -11    1    3    3    0    0 -0.95121772645E+01  0.13023130331E+02 -0.35707681921E+01  0.16517682212E+02  0.51100000000E-03 0.  1.
         12    1    3    3    0    0  0.21241963400E+02  0.16205469003E+02  0.44009538341E+01  0.27077788487E+02  0.00000000000E+00 0. -1.
</event>
<event>
 7    1  0.7578565E-012  0.5930190E+02  0.7816164E-02  0.1266605E+00
        -11   -1    0    0    0    0  0.00000000000E+00  0.00000000000E+00  0.45593999997E+02  0.45594000000E+02  0.51100000000E-03 0. -1.
         11   -1    0    0    0    0 -0.00000000000E+00 -0.00000000000E+00 -0.45593999997E+02  0.45594000000E+02  0.51100000000E-03 0.  1.
    9900012    2    1    2    0    0  0.40829186284E+01  0.28242686759E+01 -0.31497246386E+02  0.59301901963E+02  0.49999923285E+02 0.  0.
         12    1    1    2    0    0 -0.40829186284E+01 -0.28242686759E+01  0.31497246386E+02  0.31886098037E+02  0.00000000000E+00 0. -1.
         11    1    3    3    0    0 -0.14128601379E+02  0.11788566122E+02 -0.76344516251E+01  0.19921659570E+02  0.51100000000E-03 0. -1.
        -11    1    3    3    0    0  0.11012348039E+02 -0.57676093641E+01 -0.27888850558E+02  0.30533999292E+02  0.51100000000E-03 0.  1.
        -12    1    3    3    0    0  0.71991719686E+01 -0.31966880819E+01  0.40260557962E+01  0.88462431009E+01  0.00000000000E+00 0.  1.
</event>
<event>
 7    1  0.7578565E-012  0.5930196E+02  0.7816164E-02  0.1266605E+00
        -11   -1    0    0    0    0  0.00000000000E+00  0.00000000000E+00  0.45593999997E+02  0.45594000000E+02  0.51100000000E-03 0.  1.
         11   -1    0    0    0    0 -0.00000000000E+00 -0.00000000000E+00 -0.45593999997E+02  0.45594000000E+02  0.51100000000E-03 0. -1.
    9900012    2    1    2    0    0  0.24654505499E+02 -0.14149254279E+02  0.14445536367E+02  0.59301959810E+02  0.50000028783E+02 0.  0.
         12    1    1    2    0    0 -0.24654505499E+02  0.14149254279E+02 -0.14445536367E+02  0.31886040190E+02  0.00000000000E+00 0. -1.
         11    1    3    3    0    0  0.13079967690E+02 -0.24990432505E+00  0.28009052415E+02  0.30913670510E+02  0.51100000000E-03 0.  1.
        -11    1    3    3    0    0  0.15607245425E+02 -0.86736577072E+01 -0.12261858027E+02  0.21660369580E+02  0.51100000000E-03 0. -1.
        -12    1    3    3    0    0 -0.40327076154E+01 -0.52256922467E+01 -0.13016580202E+01  0.67279197208E+01  0.00000000000E+00 0.  1.
</event>
<event>
 7    1  0.7578565E-012  0.5930192E+02  0.7816164E-02  0.1266605E+00
        -11   -1    0    0    0    0  0.00000000000E+00  0.00000000000E+00  0.45593999997E+02  0.45594000000E+02  0.51100000000E-03 0.  1.
         11   -1    0    0    0    0 -0.00000000000E+00 -0.00000000000E+00 -0.45593999997E+02  0.45594000000E+02  0.51100000000E-03 0. -1.
    9900012    2    1    2    0    0 -0.17365160290E+02  0.26716107525E+02 -0.11929266668E+01  0.59301917343E+02  0.49999951333E+02 0.  0.
         12    1    1    2    0    0  0.17365160290E+02 -0.26716107525E+02  0.11929266668E+01  0.31886082657E+02  0.00000000000E+00 0. -1.
         11    1    3    3    0    0 -0.20535025846E+02  0.12133584145E+02  0.16464143094E+02  0.28982393945E+02  0.51100000000E-03 0.  1.
        -11    1    3    3    0    0 -0.12391118928E+01  0.10440692155E+02 -0.20944014113E+02  0.23434913663E+02  0.51100000000E-03 0. -1.
         12    1    3    3    0    0  0.44089774480E+01  0.41418312246E+01  0.32869443524E+01  0.68846097352E+01  0.00000000000E+00 0. -1.
</event>
<event>
 7    1  0.7578565E-012  0.5930194E+02  0.7816164E-02  0.1266605E+00
        -11   -1    0    0    0    0  0.00000000000E+00  0.00000000000E+00  0.45593999997E+02  0.45594000000E+02  0.51100000000E-03 0. -1.
         11   -1    0    0    0    0 -0.00000000000E+00 -0.00000000000E+00 -0.45593999997E+02  0.45594000000E+02  0.51100000000E-03 0.  1.
    9900012    2    1    2    0    0 -0.20172766671E+02 -0.19757873005E+02 -0.14812393629E+02  0.59301936181E+02  0.49999985689E+02 0.  0.
         12    1    1    2    0    0  0.20172766671E+02  0.19757873005E+02  0.14812393629E+02  0.31886063819E+02  0.00000000000E+00 0. -1.
         11    1    3    3    0    0 -0.58386803910E+01 -0.17169294065E+02  0.47913216608E+01  0.18757174918E+02  0.51100000000E-03 0. -1.
        -11    1    3    3    0    0 -0.14887823674E+02 -0.49907069509E+01 -0.27831628667E+02  0.31955500374E+02  0.51100000000E-03 0.  1.
        -12    1    3    3    0    0  0.55373739364E+00  0.24021280103E+01  0.82279133770E+01  0.85892608890E+01  0.00000000000E+00 0.  1.
</event>
<event>
 7    1  0.7578565E-012  0.5930196E+02  0.7816164E-02  0.1266605E+00
        -11   -1    0    0    0    0  0.00000000000E+00  0.00000000000E+00  0.45593999997E+02  0.45594000000E+02  0.51100000000E-03 0.  1.
         11   -1    0    0    0    0 -0.00000000000E+00 -0.00000000000E+00 -0.45593999997E+02  0.45594000000E+02  0.51100000000E-03 0. -1.
    9900012    2    1    2    0    0  0.93298276992E+01 -0.17691699268E+02  0.24832997068E+02  0.59301958363E+02  0.50000026144E+02 0.  0.
         12    1    1    2    0    0 -0.93298276992E+01  0.17691699268E+02 -0.24832997068E+02  0.31886041637E+02  0.00000000000E+00 0. -1.
         11    1    3    3    0    0  0.73466402755E+01  0.37660018357E+01 -0.12988893226E+02  0.15390491891E+02  0.51100000000E-03 0. -1.
        -11    1    3    3    0    0 -0.95125247447E+00 -0.81795382692E+01  0.18842255253E+02  0.20563081259E+02  0.51100000000E-03 0.  1.
         12    1    3    3    0    0  0.29344398982E+01 -0.13278162834E+02  0.18979635041E+02  0.23348385213E+02  0.00000000000E+00 0. -1.
</event>
<event>
 7    1  0.7578565E-012  0.5930200E+02  0.7816164E-02  0.1266605E+00
        -11   -1    0    0    0    0  0.00000000000E+00  0.00000000000E+00  0.45593999997E+02  0.45594000000E+02  0.51100000000E-03 0.  1.
         11   -1    0    0    0    0 -0.00000000000E+00 -0.00000000000E+00 -0.45593999997E+02  0.45594000000E+02  0.51100000000E-03 0. -1.
    9900012    2    1    2    0    0 -0.12186791713E+02 -0.91942509641E+01  0.27994016782E+02  0.59301998077E+02  0.50000098573E+02 0.  0.
         12    1    1    2    0    0  0.12186791713E+02  0.91942509641E+01 -0.27994016782E+02  0.31886001923E+02  0.00000000000E+00 0. -1.
         11    1    3    3    0    0  0.70395186063E+01  0.93551567353E+01  0.47043704337E+00  0.11717298794E+02  0.51100000000E-03 0. -1.
        -11    1    3    3    0    0 -0.21187475914E+02 -0.22081081183E+02  0.14338413737E+02  0.33794576348E+02  0.51100000000E-03 0.  1.
        -12    1    3    3    0    0  0.19611655943E+01  0.35316734838E+01  0.13185166001E+02  0.13790122935E+02  0.00000000000E+00 0.  1.
</event>
<event>
 7    1  0.7578565E-012  0.5930192E+02  0.7816164E-02  0.1266605E+00
        -11   -1    0    0    0    0  0.00000000000E+00  0.00000000000E+00  0.45593999997E+02  0.45594000000E+02  0.51100000000E-03 0. -1.
         11   -1    0    0    0    0 -0.00000000000E+00 -0.00000000000E+00 -0.45593999997E+02  0.45594000000E+02  0.51100000000E-03 0.  1.
    9900012    2    1    2    0    0  0.22231819479E+02 -0.22648335989E+02  0.30856784227E+01  0.59301916331E+02  0.49999949487E+02 0.  0.
         12    1    1    2    0    0 -0.22231819479E+02  0.22648335989E+02 -0.30856784227E+01  0.31886083669E+02  0.00000000000E+00 0. -1.
         11    1    3    3    0    0  0.19647571166E+02 -0.33260566625E+02  0.55902920282E+01  0.39032598045E+02  0.51100000000E-03 0. -1.
        -11    1    3    3    0    0 -0.33761687776E+01  0.94271668434E-01 -0.66749652569E+01  0.74808130710E+01  0.51100000000E-03 0.  1.
         12    1    3    3    0    0  0.59604170909E+01  0.10517958967E+02  0.41703516514E+01  0.12788505214E+02  0.00000000000E+00 0. -1.
</event>
<event>
 7    1  0.7578565E-012  0.5930190E+02  0.7816164E-02  0.1266605E+00
        -11   -1    0    0    0    0  0.00000000000E+00  0.00000000000E+00  0.45593999997E+02  0.45594000000E+02  0.51100000000E-03 0.  1.
         11   -1    0    0    0    0 -0.00000000000E+00 -0.00000000000E+00 -0.45593999997E+02  0.45594000000E+02  0.51100000000E-03 0. -1.
    9900012    2    1    2    0    0  0.15018120089E+02 -0.16304948582E+02  0.22920031683E+02  0.59301903788E+02  0.49999926613E+02 0.  0.
         12    1    1    2    0    0 -0.15018120089E+02  0.16304948582E+02 -0.22920031683E+02  0.31886096212E+02  0.00000000000E+00 0. -1.
         11    1    3    3    0    0  0.43465079361E+01  0.17873923931E+01  0.25433613724E+02  0.25864176192E+02  0.51100000000E-03 0. -1.
        -11    1    3    3    0    0  0.11592586541E+02 -0.33704259387E+01 -0.11074553967E+02  0.16382721982E+02  0.51100000000E-03 0.  1.
        -12    1    3    3    0    0 -0.92097438803E+00 -0.14721915036E+02  0.85609719268E+01  0.17055005614E+02  0.00000000000E+00 0.  1.
</event>
<event>
 7    1  0.7578565E-012  0.5930193E+02  0.7816164E-02  0.1266605E+00
        -11   -1    0    0    0    0  0.00000000000E+00  0.00000000000E+00  0.45593999997E+02  0.45594000000E+02  0.51100000000E-03 0.  1.
         11   -1    0    0    0    0 -0.00000000000E+00 -0.00000000000E+00 -0.45593999997E+02  0.45594000000E+02  0.51100000000E-03 0. -1.
    9900012    2    1    2    0    0 -0.30133947626E+02 -0.81739295082E+01 -0.64694095901E+01  0.59301934335E+02  0.49999982322E+02 0.  0.
         12    1    1    2    0    0  0.30133947626E+02  0.81739295082E+01  0.64694095901E+01  0.31886065665E+02  0.00000000000E+00 0. -1.
         11    1    3    3    0    0  0.10247556079E+02 -0.40514058777E+00  0.28548906093E+01  0.10645512912E+02  0.51100000000E-03 0. -1.
        -11    1    3    3    0    0 -0.29711888242E+02 -0.22786743319E+01  0.47347503690E+01  0.30172943525E+02  0.51100000000E-03 0.  1.
        -12    1    3    3    0    0 -0.10669615464E+02 -0.54901145886E+01 -0.14059050568E+02  0.18483477898E+02  0.00000000000E+00 0.  1.
</event>
<event>
 7    1  0.7578565E-012  0.5930194E+02  0.7816164E-02  0.1266605E+00
        -11   -1    0    0    0    0  0.00000000000E+00  0.00000000000E+00  0.45593999997E+02  0.45594000000E+02  0.51100000000E-03 0.  1.
         11   -1    0    0    0    0 -0.00000000000E+00 -0.00000000000E+00 -0.45593999997E+02  0.45594000000E+02  0.51100000000E-03 0. -1.
    9900012    2    1    2    0    0  0.18059790969E+02  0.19626644402E+02 -0.17474548428E+02  0.59301936225E+02  0.49999985769E+02 0.  0.
         12    1    1    2    0    0 -0.18059790969E+02 -0.19626644402E+02  0.17474548428E+02  0.31886063775E+02  0.00000000000E+00 0. -1.
         11    1    3    3    0    0  0.98082214357E+01 -0.11387734469E+02 -0.19370475657E+02  0.24517280263E+02  0.51100000000E-03 0. -1.
        -11    1    3    3    0    0  0.90943486304E+01  0.10458969282E+02  0.30056379742E+01  0.14182068797E+02  0.51100000000E-03 0.  1.
         12    1    3    3    0    0 -0.84277909745E+00  0.20555409589E+02 -0.11097107459E+01  0.20602587165E+02  0.00000000000E+00 0. -1.
</event>
<event>
 7    1  0.7578565E-012  0.5930196E+02  0.7816164E-02  0.1266605E+00
        -11   -1    0    0    0    0  0.00000000000E+00  0.00000000000E+00  0.45593999997E+02  0.45594000000E+02  0.51100000000E-03 0. -1.
         11   -1    0    0    0    0 -0.00000000000E+00 -0.00000000000E+00 -0.45593999997E+02  0.45594000000E+02  0.51100000000E-03 0.  1.
    9900012    2    1    2    0    0 -0.16815781219E+02 -0.53230259520E+01 -0.26563399270E+02  0.59301964121E+02  0.50000036646E+02 0.  0.
         12    1    1    2    0    0  0.16815781219E+02  0.53230259520E+01  0.26563399270E+02  0.31886035879E+02  0.00000000000E+00 0. -1.
         11    1    3    3    0    0 -0.15324463245E+02  0.73958289461E+01 -0.33782957464E+02  0.37826256421E+02  0.51100000000E-03 0.  1.
        -11    1    3    3    0    0  0.50521449372E+01 -0.80934091446E+01  0.91650280010E+01  0.13229708182E+02  0.51100000000E-03 0. -1.
         12    1    3    3    0    0 -0.65434629119E+01 -0.46254457535E+01 -0.19454698068E+01  0.82459995190E+01  0.00000000000E+00 0. -1.
</event>
<event>
 7    1  0.7578565E-012  0.5930186E+02  0.7816164E-02  0.1266605E+00
        -11   -1    0    0    0    0  0.00000000000E+00  0.00000000000E+00  0.45593999997E+02  0.45594000000E+02  0.51100000000E-03 0.  1.
         11   -1    0    0    0    0 -0.00000000000E+00 -0.00000000000E+00 -0.45593999997E+02  0.45594000000E+02  0.51100000000E-03 0. -1.
    9900012    2    1    2    0    0  0.40414326313E+01  0.25432834620E+02  0.18803296910E+02  0.59301855216E+02  0.49999838028E+02 0.  0.
         12    1    1    2    0    0 -0.40414326313E+01 -0.25432834620E+02 -0.18803296910E+02  0.31886144784E+02  0.00000000000E+00 0. -1.
         11    1    3    3    0    0  0.15705177766E+02  0.55544440038E+01  0.49195013444E+01  0.17369684816E+02  0.51100000000E-03 0. -1.
        -11    1    3    3    0    0 -0.12154046528E+02  0.27098334991E+02  0.44317484487E+01  0.30028003611E+02  0.51100000000E-03 0.  1.
        -12    1    3    3    0    0  0.49030139288E+00 -0.72199443753E+01  0.94520471169E+01  0.11904166789E+02  0.00000000000E+00 0.  1.
</event>
<event>
 7    1  0.7578565E-012  0.5930195E+02  0.7816164E-02  0.1266605E+00
        -11   -1    0    0    0    0  0.00000000000E+00  0.00000000000E+00  0.45593999997E+02  0.45594000000E+02  0.51100000000E-03 0. -1.
         11   -1    0    0    0    0 -0.00000000000E+00 -0.00000000000E+00 -0.45593999997E+02  0.45594000000E+02  0.51100000000E-03 0.  1.
    9900012    2    1    2    0    0 -0.55405598080E+01  0.29980764943E+02  0.93368301702E+01  0.59301945569E+02  0.50000002810E+02 0.  0.
         12    1    1    2    0    0  0.55405598080E+01 -0.29980764943E+02 -0.93368301702E+01  0.31886054431E+02  0.00000000000E+00 0. -1.
         11    1    3    3    0    0 -0.53715837814E+01 -0.78843597597E+01  0.15547341695E+02  0.18241076591E+02  0.51100000000E-03 0. -1.
        -11    1    3    3    0    0 -0.33796698925E+01  0.26873709868E+02 -0.10189290861E+02  0.28938557310E+02  0.51100000000E-03 0.  1.
         12    1    3    3    0    0  0.32106938659E+01  0.10991414835E+02  0.39787793357E+01  0.12122311668E+02  0.00000000000E+00 0. -1.
</event>
<event>
 7    1  0.7578565E-012  0.5930193E+02  0.7816164E-02  0.1266605E+00
        -11   -1    0    0    0    0  0.00000000000E+00  0.00000000000E+00  0.45593999997E+02  0.45594000000E+02  0.51100000000E-03 0.  1.
         11   -1    0    0    0    0 -0.00000000000E+00 -0.00000000000E+00 -0.45593999997E+02  0.45594000000E+02  0.51100000000E-03 0. -1.
    9900012    2    1    2    0    0  0.31342334594E+02 -0.18268465730E+01 -0.55715469390E+01  0.59301930291E+02  0.49999974948E+02 0.  0.
         12    1    1    2    0    0 -0.31342334594E+02  0.18268465730E+01  0.55715469390E+01  0.31886069709E+02  0.00000000000E+00 0. -1.
         11    1    3    3    0    0 -0.10711078059E+00  0.67792736610E+01  0.46475102455E+01  0.82200593570E+01  0.51100000000E-03 0. -1.
        -11    1    3    3    0    0  0.10908826683E+02 -0.13474787831E+02 -0.21119358886E+02  0.27323977140E+02  0.51100000000E-03 0.  1.
        -12    1    3    3    0    0  0.20540618691E+02  0.48686675971E+01  0.10900301702E+02  0.23757893795E+02  0.00000000000E+00 0.  1.
</event>
<event>
 7    1  0.7578565E-012  0.5930196E+02  0.7816164E-02  0.1266605E+00
        -11   -1    0    0    0    0  0.00000000000E+00  0.00000000000E+00  0.45593999997E+02  0.45594000000E+02  0.51100000000E-03 0.  1.
         11   -1    0    0    0    0 -0.00000000000E+00 -0.00000000000E+00 -0.45593999997E+02  0.45594000000E+02  0.51100000000E-03 0. -1.
    9900012    2    1    2    0    0 -0.19550954579E+02  0.65547302297E+01  0.24321082775E+02  0.59301962606E+02  0.50000033882E+02 0.  0.
         12    1    1    2    0    0  0.19550954579E+02 -0.65547302297E+01 -0.24321082775E+02  0.31886037394E+02  0.00000000000E+00 0. -1.
         11    1    3    3    0    0 -0.33499699846E+01 -0.26888228270E+01 -0.91912949531E+01  0.10145539427E+02  0.51100000000E-03 0. -1.
        -11    1    3    3    0    0 -0.12160132510E+02 -0.13116059152E+01  0.35618301720E+02  0.37659693977E+02  0.51100000000E-03 0.  1.
        -12    1    3    3    0    0 -0.40408520845E+01  0.10555158972E+02 -0.21059239916E+01  0.11496729202E+02  0.00000000000E+00 0.  1.
</event>
<event>
 7    1  0.7578565E-012  0.5930193E+02  0.7816164E-02  0.1266605E+00
        -11   -1    0    0    0    0  0.00000000000E+00  0.00000000000E+00  0.45593999997E+02  0.45594000000E+02  0.51100000000E-03 0. -1.
         11   -1    0    0    0    0 -0.00000000000E+00 -0.00000000000E+00 -0.45593999997E+02  0.45594000000E+02  0.51100000000E-03 0.  1.
    9900012    2    1    2    0    0 -0.59295149145E+01 -0.15614865785E+02 -0.27161343480E+02  0.59301925292E+02  0.49999965831E+02 0.  0.
         12    1    1    2    0    0  0.59295149145E+01  0.15614865785E+02  0.27161343480E+02  0.31886074708E+02  0.00000000000E+00 0. -1.
         11    1    3    3    0    0  0.81214777373E+00 -0.12261275034E+02  0.65975300090E+01  0.13947252487E+02  0.51100000000E-03 0. -1.
        -11    1    3    3    0    0  0.92603103717E+01 -0.58647653728E+01 -0.24150135641E+02  0.26521272081E+02  0.51100000000E-03 0.  1.
        -12    1    3    3    0    0 -0.16001973060E+02  0.25111746215E+01 -0.96087378476E+01  0.18833400724E+02  0.00000000000E+00 0.  1.
</event>
<event>
 7    1  0.7578565E-012  0.5930194E+02  0.7816164E-02  0.1266605E+00
        -11   -1    0    0    0    0  0.00000000000E+00  0.00000000000E+00  0.45593999997E+02  0.45594000000E+02  0.51100000000E-03 0. -1.
         11   -1    0    0    0    0 -0.00000000000E+00 -0.00000000000E+00 -0.45593999997E+02  0.45594000000E+02  0.51100000000E-03 0.  1.
    9900012    2    1    2    0    0  0.50673794145E+01 -0.23940481894E+02 -0.20442493351E+02  0.59301944398E+02  0.50000000676E+02 0.  0.
         12    1    1    2    0    0 -0.50673794145E+01  0.23940481894E+02  0.20442493351E+02  0.31886055602E+02  0.00000000000E+00 0. -1.
         11    1    3    3    0    0  0.17760431336E+02  0.23433406926E+01 -0.20579239839E+02  0.27284231333E+02  0.51100000000E-03 0.  1.
        -11    1    3    3    0    0 -0.14417350522E+02 -0.16760453481E+02  0.18637445691E+01  0.22186625273E+02  0.51100000000E-03 0. -1.
        -12    1    3    3    0    0  0.17242986005E+01 -0.95233691061E+01 -0.17269980813E+01  0.98310877917E+01  0.00000000000E+00 0.  1.
</event>
<event>
 7    1  0.7578565E-012  0.5930230E+02  0.7816164E-02  0.1266604E+00
        -11   -1    0    0    0    0  0.00000000000E+00  0.00000000000E+00  0.45593999997E+02  0.45594000000E+02  0.51100000000E-03 0.  1.
         11   -1    0    0    0    0 -0.00000000000E+00 -0.00000000000E+00 -0.45593999997E+02  0.45594000000E+02  0.51100000000E-03 0. -1.
    9900012    2    1    2    0    0 -0.18987907120E+02 -0.25064433364E+02  0.52850296597E+01  0.59302298265E+02  0.50000646040E+02 0.  0.
         12    1    1    2    0    0  0.18987907120E+02  0.25064433364E+02 -0.52850296597E+01  0.31885701735E+02  0.00000000000E+00 0. -1.
         11    1    3    3    0    0  0.15059439940E+02 -0.98975329501E+01  0.34177016271E+01  0.18341989381E+02  0.51100000000E-03 0. -1.
        -11    1    3    3    0    0 -0.18252334138E+02 -0.29677770781E+01  0.79031498062E+01  0.20110076563E+02  0.51100000000E-03 0.  1.
        -12    1    3    3    0    0 -0.15795012922E+02 -0.12199123335E+02 -0.60358217736E+01  0.20850232321E+02  0.00000000000E+00 0.  1.
</event>
<event>
 7    1  0.7578565E-012  0.5930195E+02  0.7816164E-02  0.1266605E+00
        -11   -1    0    0    0    0  0.00000000000E+00  0.00000000000E+00  0.45593999997E+02  0.45594000000E+02  0.51100000000E-03 0.  1.
         11   -1    0    0    0    0 -0.00000000000E+00 -0.00000000000E+00 -0.45593999997E+02  0.45594000000E+02  0.51100000000E-03 0. -1.
    9900012    2    1    2    0    0  0.16252633305E+02 -0.13978508629E+02  0.23604521993E+02  0.59301948953E+02  0.50000008983E+02 0.  0.
         12    1    1    2    0    0 -0.16252633305E+02  0.13978508629E+02 -0.23604521993E+02  0.31886051047E+02  0.00000000000E+00 0. -1.
         11    1    3    3    0    0 -0.40520453313E+01  0.12146134357E+02  0.25050164891E+00  0.12806654619E+02  0.51100000000E-03 0. -1.
        -11    1    3    3    0    0  0.21398978102E+02 -0.27619631615E+02  0.25795792783E+02  0.43430211143E+02  0.51100000000E-03 0.  1.
        -12    1    3    3    0    0 -0.10942994660E+01  0.14949886285E+01 -0.24417724393E+01  0.30650831907E+01  0.00000000000E+00 0.  1.
</event>
<event>
 7    1  0.7578565E-012  0.5930187E+02  0.7816164E-02  0.1266605E+00
        -11   -1    0    0    0    0  0.00000000000E+00  0.00000000000E+00  0.45593999997E+02  0.45594000000E+02  0.51100000000E-03 0.  1.
         11   -1    0    0    0    0 -0.00000000000E+00 -0.00000000000E+00 -0.45593999997E+02  0.45594000000E+02  0.51100000000E-03 0. -1.
    9900012    2    1    2    0    0 -0.10651262406E+02  0.96641104464E+01  0.28458402887E+02  0.59301872664E+02  0.49999869850E+02 0.  0.
         12    1    1    2    0    0  0.10651262406E+02 -0.96641104464E+01 -0.28458402887E+02  0.31886127336E+02  0.00000000000E+00 0. -1.
         11    1    3    3    0    0  0.10439904991E+02  0.90961754406E+01 -0.49454143199E+01  0.14703371958E+02  0.51100000000E-03 0. -1.
        -11    1    3    3    0    0 -0.75353523207E+01  0.10141575013E+02  0.17730263501E+02  0.21771433633E+02  0.51100000000E-03 0.  1.
         12    1    3    3    0    0 -0.13555815077E+02 -0.95736400076E+01  0.15673553706E+02  0.22827067073E+02  0.00000000000E+00 0. -1.
</event>
<event>
 7    1  0.7578565E-012  0.5930194E+02  0.7816164E-02  0.1266605E+00
        -11   -1    0    0    0    0  0.00000000000E+00  0.00000000000E+00  0.45593999997E+02  0.45594000000E+02  0.51100000000E-03 0.  1.
         11   -1    0    0    0    0 -0.00000000000E+00 -0.00000000000E+00 -0.45593999997E+02  0.45594000000E+02  0.51100000000E-03 0. -1.
    9900012    2    1    2    0    0 -0.51646775247E+01  0.17650943599E+02  0.26047859638E+02  0.59301941988E+02  0.49999996280E+02 0.  0.
         12    1    1    2    0    0  0.51646775247E+01 -0.17650943599E+02 -0.26047859638E+02  0.31886058012E+02  0.00000000000E+00 0. -1.
         11    1    3    3    0    0  0.18191802775E+02  0.21711669460E+01 -0.14599493846E+01  0.18378985461E+02  0.51100000000E-03 0. -1.
        -11    1    3    3    0    0 -0.96987958953E+01  0.11888415608E+01  0.50320127101E+01  0.10990957113E+02  0.51100000000E-03 0.  1.
         12    1    3    3    0    0 -0.13657684404E+02  0.14290935092E+02  0.22475796312E+02  0.29931999414E+02  0.00000000000E+00 0. -1.
</event>
<event>
 7    1  0.7578565E-012  0.5930197E+02  0.7816164E-02  0.1266605E+00
        -11   -1    0    0    0    0  0.00000000000E+00  0.00000000000E+00  0.45593999997E+02  0.45594000000E+02  0.51100000000E-03 0. -1.
         11   -1    0    0    0    0 -0.00000000000E+00 -0.00000000000E+00 -0.45593999997E+02  0.45594000000E+02  0.51100000000E-03 0.  1.
    9900012    2    1    2    0    0 -0.31849634820E+02 -0.14795284852E+01 -0.36172218652E+00  0.59301967233E+02  0.50000042320E+02 0.  0.
         12    1    1    2    0    0  0.31849634820E+02  0.14795284852E+01  0.36172218652E+00  0.31886032767E+02  0.00000000000E+00 0. -1.
         11    1    3    3    0    0 -0.42938288500E+02 -0.20027631993E+01  0.62579870927E+01  0.43438117852E+02  0.51100000000E-03 0. -1.
        -11    1    3    3    0    0  0.11414943660E+02 -0.17712563100E+01 -0.36864631481E+01  0.12125522606E+02  0.51100000000E-03 0.  1.
         12    1    3    3    0    0 -0.32628997921E+00  0.22944910240E+01 -0.29332461311E+01  0.37383267748E+01  0.00000000000E+00 0. -1.
</event>
<event>
 7    1  0.7578565E-012  0.5930191E+02  0.7816164E-02  0.1266605E+00
        -11   -1    0    0    0    0  0.00000000000E+00  0.00000000000E+00  0.45593999997E+02  0.45594000000E+02  0.51100000000E-03 0.  1.
         11   -1    0    0    0    0 -0.00000000000E+00 -0.00000000000E+00 -0.45593999997E+02  0.45594000000E+02  0.51100000000E-03 0. -1.
    9900012    2    1    2    0    0  0.25221696030E+02  0.19317967506E+02 -0.27212091722E+01  0.59301909011E+02  0.49999936138E+02 0.  0.
         12    1    1    2    0    0 -0.25221696030E+02 -0.19317967506E+02  0.27212091722E+01  0.31886090989E+02  0.00000000000E+00 0. -1.
         11    1    3    3    0    0  0.31614677458E+01 -0.77679671435E+01 -0.11703629270E+02  0.14398303032E+02  0.51100000000E-03 0. -1.
        -11    1    3    3    0    0  0.13931770445E+02  0.30964872998E+02  0.29907154793E+01  0.34086096387E+02  0.51100000000E-03 0.  1.
        -12    1    3    3    0    0  0.81284578386E+01 -0.38789383487E+01  0.59917046183E+01  0.10817509592E+02  0.00000000000E+00 0.  1.
</event>
<event>
 7    1  0.7578565E-012  0.5930195E+02  0.7816164E-02  0.1266605E+00
        -11   -1    0    0    0    0  0.00000000000E+00  0.00000000000E+00  0.45593999997E+02  0.45594000000E+02  0.51100000000E-03 0.  1.
         11   -1    0    0    0    0 -0.00000000000E+00 -0.00000000000E+00 -0.45593999997E+02  0.45594000000E+02  0.51100000000E-03 0. -1.
    9900012    2    1    2    0    0  0.52319419831E+01  0.31310097792E+02 -0.30041639972E+01  0.59301945964E+02  0.50000003532E+02 0.  0.
         12    1    1    2    0    0 -0.52319419831E+01 -0.31310097792E+02  0.30041639972E+01  0.31886054036E+02  0.00000000000E+00 0. -1.
         11    1    3    3    0    0  0.95569423277E+00 -0.40291216190E+01 -0.10716560070E+02  0.11488769842E+02  0.51100000000E-03 0. -1.
        -11    1    3    3    0    0  0.10913590534E+02  0.18645098889E+02 -0.88799119003E+01  0.23358060847E+02  0.51100000000E-03 0.  1.
        -12    1    3    3    0    0 -0.66373427838E+01  0.16694120522E+02  0.16592307973E+02  0.24455115275E+02  0.00000000000E+00 0.  1.
</event>
<event>
 7    1  0.7578565E-012  0.5930193E+02  0.7816164E-02  0.1266605E+00
        -11   -1    0    0    0    0  0.00000000000E+00  0.00000000000E+00  0.45593999997E+02  0.45594000000E+02  0.51100000000E-03 0.  1.
         11   -1    0    0    0    0 -0.00000000000E+00 -0.00000000000E+00 -0.45593999997E+02  0.45594000000E+02  0.51100000000E-03 0. -1.
    9900012    2    1    2    0    0 -0.12201716505E+02 -0.10186693386E+02  0.27641827062E+02  0.59301933903E+02  0.49999981535E+02 0.  0.
         12    1    1    2    0    0  0.12201716505E+02  0.10186693386E+02 -0.27641827062E+02  0.31886066097E+02  0.00000000000E+00 0. -1.
         11    1    3    3    0    0  0.95073710206E+00 -0.16824009013E+02 -0.26650620845E+01  0.17060297081E+02  0.51100000000E-03 0. -1.
        -11    1    3    3    0    0 -0.17605533018E+02  0.61278744297E+00  0.29943603294E+02  0.34741181324E+02  0.51100000000E-03 0.  1.
         12    1    3    3    0    0  0.44530794107E+01  0.60245281838E+01  0.36328585273E+00  0.75004554986E+01  0.00000000000E+00 0. -1.
</event>
<event>
 7    1  0.7578565E-012  0.5930195E+02  0.7816164E-02  0.1266605E+00
        -11   -1    0    0    0    0  0.00000000000E+00  0.00000000000E+00  0.45593999997E+02  0.45594000000E+02  0.51100000000E-03 0. -1.
         11   -1    0    0    0    0 -0.00000000000E+00 -0.00000000000E+00 -0.45593999997E+02  0.45594000000E+02  0.51100000000E-03 0.  1.
    9900012    2    1    2    0    0 -0.21854070943E+02 -0.10756844573E+01 -0.23194022918E+02  0.59301949555E+02  0.50000010081E+02 0.  0.
         12    1    1    2    0    0  0.21854070943E+02  0.10756844573E+01  0.23194022918E+02  0.31886050445E+02  0.00000000000E+00 0. -1.
         11    1    3    3    0    0  0.11639008779E+02 -0.83194000716E+01 -0.99418008931E+01  0.17421777985E+02  0.51100000000E-03 0. -1.
        -11    1    3    3    0    0 -0.60116591308E+01  0.47734606324E+01 -0.12017982288E+02  0.14260360109E+02  0.51100000000E-03 0.  1.
         12    1    3    3    0    0 -0.27481420591E+02  0.24702549819E+01 -0.12342397373E+01  0.27619811461E+02  0.00000000000E+00 0. -1.
</event>
<event>
 7    1  0.7578565E-012  0.5930185E+02  0.7816164E-02  0.1266605E+00
        -11   -1    0    0    0    0  0.00000000000E+00  0.00000000000E+00  0.45593999997E+02  0.45594000000E+02  0.51100000000E-03 0.  1.
         11   -1    0    0    0    0 -0.00000000000E+00 -0.00000000000E+00 -0.45593999997E+02  0.45594000000E+02  0.51100000000E-03 0. -1.
    9900012    2    1    2    0    0  0.17539439691E+02 -0.14038180860E+02  0.22627942809E+02  0.59301854697E+02  0.49999837082E+02 0.  0.
         12    1    1    2    0    0 -0.17539439691E+02  0.14038180860E+02 -0.22627942809E+02  0.31886145303E+02  0.00000000000E+00 0. -1.
         11    1    3    3    0    0  0.62698566290E+01 -0.52265907544E+01 -0.13412606837E+02  0.15701158412E+02  0.51100000000E-03 0. -1.
        -11    1    3    3    0    0  0.12344694296E+02  0.23286246048E+01  0.13538705544E+02  0.18469177510E+02  0.51100000000E-03 0.  1.
         12    1    3    3    0    0 -0.10751112342E+01 -0.11140214711E+02  0.22501844101E+02  0.25131518775E+02  0.00000000000E+00 0. -1.
</event>
<event>
 7    1  0.7578565E-012  0.5930193E+02  0.7816164E-02  0.1266605E+00
        -11   -1    0    0    0    0  0.00000000000E+00  0.00000000000E+00  0.45593999997E+02  0.45594000000E+02  0.51100000000E-03 0.  1.
         11   -1    0    0    0    0 -0.00000000000E+00 -0.00000000000E+00 -0.45593999997E+02  0.45594000000E+02  0.51100000000E-03 0. -1.
    9900012    2    1    2    0    0  0.24031322198E+02  0.10975478233E+02  0.17853729256E+02  0.59301933805E+02  0.49999981357E+02 0.  0.
         12    1    1    2    0    0 -0.24031322198E+02 -0.10975478233E+02 -0.17853729256E+02  0.31886066195E+02  0.00000000000E+00 0. -1.
         11    1    3    3    0    0 -0.59052791313E+01 -0.14019043652E+02 -0.12497654447E+01  0.15263283410E+02  0.51100000000E-03 0. -1.
        -11    1    3    3    0    0  0.27844091662E+02  0.23487249055E+02  0.15453687187E+02  0.39569694927E+02  0.51100000000E-03 0.  1.
        -12    1    3    3    0    0  0.20925096672E+01  0.15072728293E+01  0.36498075139E+01  0.44689554683E+01  0.00000000000E+00 0.  1.
</event>
<event>
 7    1  0.7578565E-012  0.5930197E+02  0.7816164E-02  0.1266605E+00
        -11   -1    0    0    0    0  0.00000000000E+00  0.00000000000E+00  0.45593999997E+02  0.45594000000E+02  0.51100000000E-03 0. -1.
         11   -1    0    0    0    0 -0.00000000000E+00 -0.00000000000E+00 -0.45593999997E+02  0.45594000000E+02  0.51100000000E-03 0.  1.
    9900012    2    1    2    0    0  0.67203161462E+01  0.34500922481E+01 -0.30978273237E+02  0.59301965465E+02  0.50000039096E+02 0.  0.
         12    1    1    2    0    0 -0.67203161462E+01 -0.34500922481E+01  0.30978273237E+02  0.31886034535E+02  0.00000000000E+00 0. -1.
         11    1    3    3    0    0 -0.17448326638E+02  0.16613065886E+01 -0.11980184126E+02  0.21230375739E+02  0.51100000000E-03 0. -1.
        -11    1    3    3    0    0  0.16725503966E+02 -0.90106874943E+01 -0.15441005399E+02  0.24481822237E+02  0.51100000000E-03 0.  1.
        -12    1    3    3    0    0  0.74431388178E+01  0.10799473154E+02 -0.35570837117E+01  0.13589767489E+02  0.00000000000E+00 0.  1.
</event>
<event>
 7    1  0.7578565E-012  0.5930182E+02  0.7816164E-02  0.1266605E+00
        -11   -1    0    0    0    0  0.00000000000E+00  0.00000000000E+00  0.45593999997E+02  0.45594000000E+02  0.51100000000E-03 0.  1.
         11   -1    0    0    0    0 -0.00000000000E+00 -0.00000000000E+00 -0.45593999997E+02  0.45594000000E+02  0.51100000000E-03 0. -1.
    9900012    2    1    2    0    0 -0.24295014162E+02  0.22187685597E+01  0.20531877752E+02  0.59301817239E+02  0.49999768767E+02 0.  0.
         12    1    1    2    0    0  0.24295014162E+02 -0.22187685597E+01 -0.20531877752E+02  0.31886182761E+02  0.00000000000E+00 0. -1.
         11    1    3    3    0    0 -0.41613349110E+01 -0.13249633399E+01 -0.96754343337E+01  0.10615378745E+02  0.51100000000E-03 0. -1.
        -11    1    3    3    0    0 -0.21639794580E+02  0.60642767017E+01  0.35857968599E+02  0.42318436569E+02  0.51100000000E-03 0.  1.
        -12    1    3    3    0    0  0.15061153286E+01 -0.25205448022E+01 -0.56506565130E+01  0.63680019245E+01  0.00000000000E+00 0.  1.
</event>
<event>
 7    1  0.7578565E-012  0.5930193E+02  0.7816164E-02  0.1266605E+00
        -11   -1    0    0    0    0  0.00000000000E+00  0.00000000000E+00  0.45593999997E+02  0.45594000000E+02  0.51100000000E-03 0.  1.
         11   -1    0    0    0    0 -0.00000000000E+00 -0.00000000000E+00 -0.45593999997E+02  0.45594000000E+02  0.51100000000E-03 0. -1.
    9900012    2    1    2    0    0  0.25458385175E+02  0.74753875791E+01  0.17683618166E+02  0.59301934915E+02  0.49999983381E+02 0.  0.
         12    1    1    2    0    0 -0.25458385175E+02 -0.74753875791E+01 -0.17683618166E+02  0.31886065085E+02  0.00000000000E+00 0. -1.
         11    1    3    3    0    0  0.10117013262E+01 -0.75468179092E+00  0.21127397612E+02  0.21165065894E+02  0.51100000000E-03 0. -1.
        -11    1    3    3    0    0  0.30353785261E+02  0.65529537637E+01  0.87765974965E-01  0.31053199285E+02  0.51100000000E-03 0.  1.
         12    1    3    3    0    0 -0.59071014129E+01  0.16771156064E+01 -0.35315454215E+01  0.70836697357E+01  0.00000000000E+00 0. -1.
</event>
<event>
 7    1  0.7578565E-012  0.5930199E+02  0.7816164E-02  0.1266605E+00
        -11   -1    0    0    0    0  0.00000000000E+00  0.00000000000E+00  0.45593999997E+02  0.45594000000E+02  0.51100000000E-03 0.  1.
         11   -1    0    0    0    0 -0.00000000000E+00 -0.00000000000E+00 -0.45593999997E+02  0.45594000000E+02  0.51100000000E-03 0. -1.
    9900012    2    1    2    0    0 -0.86574818347E+01  0.30193981963E+02 -0.54853336552E+01  0.59301993292E+02  0.50000089846E+02 0.  0.
         12    1    1    2    0    0  0.86574818347E+01 -0.30193981963E+02  0.54853336552E+01  0.31886006708E+02  0.00000000000E+00 0. -1.
         11    1    3    3    0    0  0.88886986677E+01  0.22015837260E+02 -0.77486653142E+01  0.24974944819E+02  0.51100000000E-03 0. -1.
        -11    1    3    3    0    0 -0.14996625499E+02 -0.18817671711E+01  0.12601613084E+02  0.19678426680E+02  0.51100000000E-03 0.  1.
         12    1    3    3    0    0 -0.25495550036E+01  0.10059911874E+02 -0.10338281425E+02  0.14648621793E+02  0.00000000000E+00 0. -1.
</event>
<event>
 7    1  0.7578565E-012  0.5930191E+02  0.7816164E-02  0.1266605E+00
        -11   -1    0    0    0    0  0.00000000000E+00  0.00000000000E+00  0.45593999997E+02  0.45594000000E+02  0.51100000000E-03 0. -1.
         11   -1    0    0    0    0 -0.00000000000E+00 -0.00000000000E+00 -0.45593999997E+02  0.45594000000E+02  0.51100000000E-03 0.  1.
    9900012    2    1    2    0    0 -0.31022294376E+02 -0.58978863193E+01  0.44221054218E+01  0.59301908554E+02  0.49999935304E+02 0.  0.
         12    1    1    2    0    0  0.31022294376E+02  0.58978863193E+01 -0.44221054218E+01  0.31886091446E+02  0.00000000000E+00 0. -1.
         11    1    3    3    0    0 -0.19455345530E+02 -0.17922283911E+02  0.22653929473E+01  0.26549025138E+02  0.51100000000E-03 0. -1.
        -11    1    3    3    0    0 -0.13826421774E+02  0.11679339676E+02 -0.97984287259E+01  0.20581207936E+02  0.51100000000E-03 0.  1.
         12    1    3    3    0    0  0.22594729283E+01  0.34505791627E+00  0.11955141200E+02  0.12171675480E+02  0.00000000000E+00 0. -1.
</event>
<event>
 7    1  0.7578565E-012  0.5930195E+02  0.7816164E-02  0.1266605E+00
        -11   -1    0    0    0    0  0.00000000000E+00  0.00000000000E+00  0.45593999997E+02  0.45594000000E+02  0.51100000000E-03 0.  1.
         11   -1    0    0    0    0 -0.00000000000E+00 -0.00000000000E+00 -0.45593999997E+02  0.45594000000E+02  0.51100000000E-03 0. -1.
    9900012    2    1    2    0    0  0.24810775003E+02  0.69992635699E+01  0.18765822320E+02  0.59301947655E+02  0.50000006616E+02 0.  0.
         12    1    1    2    0    0 -0.24810775003E+02 -0.69992635699E+01 -0.18765822320E+02  0.31886052345E+02  0.00000000000E+00 0. -1.
         11    1    3    3    0    0 -0.85811927701E+01 -0.10412701778E+02  0.84661388921E+01  0.15929115973E+02  0.51100000000E-03 0. -1.
        -11    1    3    3    0    0  0.16737091633E+02  0.15097897489E+02  0.13474345776E+02  0.26260897534E+02  0.51100000000E-03 0.  1.
         12    1    3    3    0    0  0.16654876140E+02  0.23140678589E+01 -0.31746623481E+01  0.17111934149E+02  0.00000000000E+00 0. -1.
</event>
<event>
 7    1  0.7578565E-012  0.5930195E+02  0.7816164E-02  0.1266605E+00
        -11   -1    0    0    0    0  0.00000000000E+00  0.00000000000E+00  0.45593999997E+02  0.45594000000E+02  0.51100000000E-03 0. -1.
         11   -1    0    0    0    0 -0.00000000000E+00 -0.00000000000E+00 -0.45593999997E+02  0.45594000000E+02  0.51100000000E-03 0.  1.
    9900012    2    1    2    0    0 -0.17691599785E+02 -0.10753823068E+02 -0.24250421205E+02  0.59301947529E+02  0.50000006386E+02 0.  0.
         12    1    1    2    0    0  0.17691599785E+02  0.10753823068E+02  0.24250421205E+02  0.31886052471E+02  0.00000000000E+00 0. -1.
         11    1    3    3    0    0  0.15878169136E+01 -0.10925753717E+02  0.12925509027E+02  0.16998883513E+02  0.51100000000E-03 0. -1.
        -11    1    3    3    0    0 -0.11739727351E+02 -0.43010892449E+00 -0.16246290413E+02  0.20048644453E+02  0.51100000000E-03 0.  1.
         12    1    3    3    0    0 -0.75396893472E+01  0.60203957283E+00 -0.20929639820E+02  0.22254419563E+02  0.00000000000E+00 0. -1.
</event>
<event>
 7    1  0.7578565E-012  0.5930194E+02  0.7816164E-02  0.1266605E+00
        -11   -1    0    0    0    0  0.00000000000E+00  0.00000000000E+00  0.45593999997E+02  0.45594000000E+02  0.51100000000E-03 0.  1.
         11   -1    0    0    0    0 -0.00000000000E+00 -0.00000000000E+00 -0.45593999997E+02  0.45594000000E+02  0.51100000000E-03 0. -1.
    9900012    2    1    2    0    0 -0.21893770828E+00  0.29426667497E+02  0.12277799358E+02  0.59301936418E+02  0.49999986122E+02 0.  0.
         12    1    1    2    0    0  0.21893770828E+00 -0.29426667497E+02 -0.12277799358E+02  0.31886063582E+02  0.00000000000E+00 0. -1.
         11    1    3    3    0    0  0.70388568242E+01 -0.22114488790E+01 -0.11876350126E+02  0.13981548702E+02  0.51100000000E-03 0. -1.
        -11    1    3    3    0    0 -0.48728916565E+00  0.25640630873E+02  0.25512467741E+02  0.36174098645E+02  0.51100000000E-03 0.  1.
         12    1    3    3    0    0 -0.67705053668E+01  0.59974855029E+01 -0.13583182575E+01  0.91462890709E+01  0.00000000000E+00 0. -1.
</event>
<event>
 7    1  0.7578565E-012  0.5930195E+02  0.7816164E-02  0.1266605E+00
        -11   -1    0    0    0    0  0.00000000000E+00  0.00000000000E+00  0.45593999997E+02  0.45594000000E+02  0.51100000000E-03 0. -1.
         11   -1    0    0    0    0 -0.00000000000E+00 -0.00000000000E+00 -0.45593999997E+02  0.45594000000E+02  0.51100000000E-03 0.  1.
    9900012    2    1    2    0    0 -0.20483442475E+02  0.64745860905E+01 -0.23563287116E+02  0.59301950067E+02  0.50000011013E+02 0.  0.
         12    1    1    2    0    0  0.20483442475E+02 -0.64745860905E+01  0.23563287116E+02  0.31886049933E+02  0.00000000000E+00 0. -1.
         11    1    3    3    0    0  0.52270040410E+01  0.14082256928E+02 -0.25344332005E+02  0.29461274522E+02  0.51100000000E-03 0. -1.
        -11    1    3    3    0    0 -0.19164476180E+02 -0.96820368510E+01 -0.27010216639E+01  0.21640575388E+02  0.51100000000E-03 0.  1.
         12    1    3    3    0    0 -0.65459703359E+01  0.20743660138E+01  0.44820665528E+01  0.82001001568E+01  0.00000000000E+00 0. -1.
</event>
<event>
 7    1  0.7578565E-012  0.5930192E+02  0.7816164E-02  0.1266605E+00
        -11   -1    0    0    0    0  0.00000000000E+00  0.00000000000E+00  0.45593999997E+02  0.45594000000E+02  0.51100000000E-03 0.  1.
         11   -1    0    0    0    0 -0.00000000000E+00 -0.00000000000E+00 -0.45593999997E+02  0.45594000000E+02  0.51100000000E-03 0. -1.
    9900012    2    1    2    0    0 -0.30816727250E+02 -0.76894926791E+01 -0.28148204218E+01  0.59301918552E+02  0.49999953539E+02 0.  0.
         12    1    1    2    0    0  0.30816727250E+02  0.76894926791E+01  0.28148204218E+01  0.31886081448E+02  0.00000000000E+00 0. -1.
         11    1    3    3    0    0 -0.10337053426E+01  0.52861068703E+01  0.10079385486E+02  0.11428275662E+02  0.51100000000E-03 0.  1.
        -11    1    3    3    0    0 -0.34057219217E+02 -0.16628116749E+02 -0.16348046496E+02  0.41275259804E+02  0.51100000000E-03 0. -1.
         12    1    3    3    0    0  0.42741973093E+01  0.36525171999E+01  0.34538405885E+01  0.65983830857E+01  0.00000000000E+00 0. -1.
</event>
<event>
 7    1  0.7578565E-012  0.5930205E+02  0.7816164E-02  0.1266604E+00
        -11   -1    0    0    0    0  0.00000000000E+00  0.00000000000E+00  0.45593999997E+02  0.45594000000E+02  0.51100000000E-03 0.  1.
         11   -1    0    0    0    0 -0.00000000000E+00 -0.00000000000E+00 -0.45593999997E+02  0.45594000000E+02  0.51100000000E-03 0. -1.
    9900012    2    1    2    0    0  0.10113108484E+02  0.45092463482E+01  0.29901599553E+02  0.59302048208E+02  0.50000190000E+02 0.  0.
         12    1    1    2    0    0 -0.10113108484E+02 -0.45092463482E+01 -0.29901599553E+02  0.31885951792E+02  0.00000000000E+00 0. -1.
         11    1    3    3    0    0  0.36004260236E+01  0.10105461065E+02 -0.96272447390E+00  0.10770805428E+02  0.51100000000E-03 0. -1.
        -11    1    3    3    0    0 -0.74203631810E+01 -0.13844981444E+02  0.25494102162E+01  0.15913666882E+02  0.51100000000E-03 0.  1.
        -12    1    3    3    0    0  0.13933045641E+02  0.82487667272E+01  0.28314913811E+02  0.32617575898E+02  0.00000000000E+00 0.  1.
</event>
<event>
 7    1  0.7578565E-012  0.5930194E+02  0.7816164E-02  0.1266605E+00
        -11   -1    0    0    0    0  0.00000000000E+00  0.00000000000E+00  0.45593999997E+02  0.45594000000E+02  0.51100000000E-03 0.  1.
         11   -1    0    0    0    0 -0.00000000000E+00 -0.00000000000E+00 -0.45593999997E+02  0.45594000000E+02  0.51100000000E-03 0. -1.
    9900012    2    1    2    0    0  0.53184279446E+01  0.25472016619E+02  0.18428551099E+02  0.59301940318E+02  0.49999993234E+02 0.  0.
         12    1    1    2    0    0 -0.53184279446E+01 -0.25472016619E+02 -0.18428551099E+02  0.31886059682E+02  0.00000000000E+00 0. -1.
         11    1    3    3    0    0  0.16345563344E+02  0.59215062981E+01  0.22414995550E+02  0.28366771118E+02  0.51100000000E-03 0. -1.
        -11    1    3    3    0    0 -0.81417848613E+01  0.80000930734E+01 -0.12017410379E+02  0.16574326604E+02  0.51100000000E-03 0.  1.
        -12    1    3    3    0    0 -0.28853505379E+01  0.11550417248E+02  0.80309659281E+01  0.14360842596E+02  0.00000000000E+00 0.  1.
</event>
<event>
 7    1  0.7578565E-012  0.5930193E+02  0.7816164E-02  0.1266605E+00
        -11   -1    0    0    0    0  0.00000000000E+00  0.00000000000E+00  0.45593999997E+02  0.45594000000E+02  0.51100000000E-03 0.  1.
         11   -1    0    0    0    0 -0.00000000000E+00 -0.00000000000E+00 -0.45593999997E+02  0.45594000000E+02  0.51100000000E-03 0. -1.
    9900012    2    1    2    0    0  0.21559427842E+02 -0.10016774988E+02  0.21250335839E+02  0.59301929635E+02  0.49999973751E+02 0.  0.
         12    1    1    2    0    0 -0.21559427842E+02  0.10016774988E+02 -0.21250335839E+02  0.31886070365E+02  0.00000000000E+00 0. -1.
         11    1    3    3    0    0 -0.24012598704E+01  0.10553607675E+02  0.28945084784E+01  0.11203698654E+02  0.51100000000E-03 0. -1.
        -11    1    3    3    0    0  0.11371292942E+02 -0.24039202596E+02  0.13099463286E+01  0.26625279797E+02  0.51100000000E-03 0.  1.
        -12    1    3    3    0    0  0.12589394771E+02  0.34688199322E+01  0.17045881032E+02  0.21472951184E+02  0.00000000000E+00 0.  1.
</event>
<event>
 7    1  0.7578565E-012  0.5930196E+02  0.7816164E-02  0.1266605E+00
        -11   -1    0    0    0    0  0.00000000000E+00  0.00000000000E+00  0.45593999997E+02  0.45594000000E+02  0.51100000000E-03 0.  1.
         11   -1    0    0    0    0 -0.00000000000E+00 -0.00000000000E+00 -0.45593999997E+02  0.45594000000E+02  0.51100000000E-03 0. -1.
    9900012    2    1    2    0    0 -0.13691373245E+01 -0.20104590886E+01  0.31793133351E+02  0.59301955857E+02  0.50000021574E+02 0.  0.
         12    1    1    2    0    0  0.13691373245E+01  0.20104590886E+01 -0.31793133351E+02  0.31886044143E+02  0.00000000000E+00 0. -1.
         11    1    3    3    0    0  0.10943879482E+02 -0.20924832159E+02  0.16247422328E+02  0.28663493011E+02  0.51100000000E-03 0. -1.
        -11    1    3    3    0    0 -0.82465453745E+01  0.23238379768E+01  0.19007916134E+01  0.87760322797E+01  0.51100000000E-03 0.  1.
         12    1    3    3    0    0 -0.40664714319E+01  0.16590535094E+02  0.13644919410E+02  0.21862430567E+02  0.00000000000E+00 0. -1.
</event>
<event>
 7    1  0.7578565E-012  0.5930193E+02  0.7816164E-02  0.1266605E+00
        -11   -1    0    0    0    0  0.00000000000E+00  0.00000000000E+00  0.45593999997E+02  0.45594000000E+02  0.51100000000E-03 0.  1.
         11   -1    0    0    0    0 -0.00000000000E+00 -0.00000000000E+00 -0.45593999997E+02  0.45594000000E+02  0.51100000000E-03 0. -1.
    9900012    2    1    2    0    0 -0.83251113444E+01  0.12220624393E+02  0.28250140778E+02  0.59301927909E+02  0.49999970603E+02 0.  0.
         12    1    1    2    0    0  0.83251113444E+01 -0.12220624393E+02 -0.28250140778E+02  0.31886072091E+02  0.00000000000E+00 0. -1.
         11    1    3    3    0    0  0.21007149234E+01 -0.28360872653E+01 -0.47737059215E+00  0.35614992783E+01  0.51100000000E-03 0. -1.
        -11    1    3    3    0    0  0.25715481160E+01  0.11120817634E+02  0.37748865906E+02  0.39436814298E+02  0.51100000000E-03 0.  1.
        -12    1    3    3    0    0 -0.12997374384E+02  0.39358940246E+01 -0.90213545357E+01  0.16303614333E+02  0.00000000000E+00 0.  1.
</event>
<event>
 7    1  0.7578565E-012  0.5930192E+02  0.7816164E-02  0.1266605E+00
        -11   -1    0    0    0    0  0.00000000000E+00  0.00000000000E+00  0.45593999997E+02  0.45594000000E+02  0.51100000000E-03 0.  1.
         11   -1    0    0    0    0 -0.00000000000E+00 -0.00000000000E+00 -0.45593999997E+02  0.45594000000E+02  0.51100000000E-03 0. -1.
    9900012    2    1    2    0    0  0.65963637574E+01 -0.58498168106E+01  0.30642935939E+02  0.59301923188E+02  0.49999961993E+02 0.  0.
         12    1    1    2    0    0 -0.65963637574E+01  0.58498168106E+01 -0.30642935939E+02  0.31886076812E+02  0.00000000000E+00 0. -1.
         11    1    3    3    0    0 -0.99776837207E+01 -0.84019411457E+01  0.12625151454E+02  0.18153270695E+02  0.51100000000E-03 0. -1.
        -11    1    3    3    0    0  0.22968971623E+02 -0.82684541293E+01  0.12414311303E+02  0.27387152399E+02  0.51100000000E-03 0.  1.
        -12    1    3    3    0    0 -0.63949241452E+01  0.10820578464E+02  0.56034731816E+01  0.13761500094E+02  0.00000000000E+00 0.  1.
</event>
<event>
 7    1  0.7578565E-012  0.5930198E+02  0.7816164E-02  0.1266605E+00
        -11   -1    0    0    0    0  0.00000000000E+00  0.00000000000E+00  0.45593999997E+02  0.45594000000E+02  0.51100000000E-03 0.  1.
         11   -1    0    0    0    0 -0.00000000000E+00 -0.00000000000E+00 -0.45593999997E+02  0.45594000000E+02  0.51100000000E-03 0. -1.
    9900012    2    1    2    0    0  0.10713384272E+02 -0.29465585729E+02  0.58069749652E+01  0.59301979502E+02  0.50000064697E+02 0.  0.
         12    1    1    2    0    0 -0.10713384272E+02  0.29465585729E+02 -0.58069749652E+01  0.31886020498E+02  0.00000000000E+00 0. -1.
         11    1    3    3    0    0 -0.11718671908E+02 -0.11004912414E+02  0.15711709825E+02  0.22478727598E+02  0.51100000000E-03 0. -1.
        -11    1    3    3    0    0  0.20089423882E+02 -0.54530106410E+01 -0.91045327209E+00  0.20836247320E+02  0.51100000000E-03 0.  1.
         12    1    3    3    0    0  0.23426322979E+01 -0.13007662674E+02 -0.89942815876E+01  0.15987004585E+02  0.00000000000E+00 0. -1.
</event>
<event>
 7    1  0.8116393E-012  0.5930195E+02  0.7816164E-02  0.1266605E+00
        -11   -1    0    0    0    0  0.00000000000E+00  0.00000000000E+00  0.45593999997E+02  0.45594000000E+02  0.51100000000E-03 0.  1.
         11   -1    0    0    0    0 -0.00000000000E+00 -0.00000000000E+00 -0.45593999997E+02  0.45594000000E+02  0.51100000000E-03 0. -1.
    9900012    2    1    2    0    0  0.23644237851E+02  0.84848106360E+01  0.19638689625E+02  0.59301950930E+02  0.50000012588E+02 0.  0.
         12    1    1    2    0    0 -0.23644237851E+02 -0.84848106360E+01 -0.19638689625E+02  0.31886049070E+02  0.00000000000E+00 0. -1.
         11    1    3    3    0    0  0.16395220606E+02  0.12161012301E+02 -0.81662104998E+01  0.21985915335E+02  0.51100000000E-03 0. -1.
        -11    1    3    3    0    0  0.14080609349E+02  0.22053713648E+01  0.23111753546E+02  0.27152907298E+02  0.51100000000E-03 0.  1.
         12    1    3    3    0    0 -0.68315921039E+01 -0.58815730296E+01  0.46931465791E+01  0.10163128297E+02  0.00000000000E+00 0. -1.
</event>
<event>
 7    1  0.7578565E-012  0.5930193E+02  0.7816164E-02  0.1266605E+00
        -11   -1    0    0    0    0  0.00000000000E+00  0.00000000000E+00  0.45593999997E+02  0.45594000000E+02  0.51100000000E-03 0. -1.
         11   -1    0    0    0    0 -0.00000000000E+00 -0.00000000000E+00 -0.45593999997E+02  0.45594000000E+02  0.51100000000E-03 0.  1.
    9900012    2    1    2    0    0  0.50904357587E+01 -0.11209543710E+02 -0.29413519736E+02  0.59301928595E+02  0.49999971854E+02 0.  0.
         12    1    1    2    0    0 -0.50904357587E+01  0.11209543710E+02  0.29413519736E+02  0.31886071405E+02  0.00000000000E+00 0. -1.
         11    1    3    3    0    0 -0.14200253268E+01  0.57205029475E+00  0.54164798018E+01  0.56286736602E+01  0.51100000000E-03 0. -1.
        -11    1    3    3    0    0 -0.43881923880E+01 -0.20411329199E+02 -0.33807135751E+02  0.39734129159E+02  0.51100000000E-03 0.  1.
        -12    1    3    3    0    0  0.10898653474E+02  0.86297351940E+01 -0.10228637870E+01  0.13939125775E+02  0.00000000000E+00 0.  1.
</event>
<event>
 7    1  0.7578565E-012  0.5930194E+02  0.7816164E-02  0.1266605E+00
        -11   -1    0    0    0    0  0.00000000000E+00  0.00000000000E+00  0.45593999997E+02  0.45594000000E+02  0.51100000000E-03 0.  1.
         11   -1    0    0    0    0 -0.00000000000E+00 -0.00000000000E+00 -0.45593999997E+02  0.45594000000E+02  0.51100000000E-03 0. -1.
    9900012    2    1    2    0    0 -0.94674719552E+01 -0.19160614640E+02  0.23663440469E+02  0.59301943589E+02  0.49999999200E+02 0.  0.
         12    1    1    2    0    0  0.94674719552E+01  0.19160614640E+02 -0.23663440469E+02  0.31886056411E+02  0.00000000000E+00 0. -1.
         11    1    3    3    0    0 -0.54542358794E+01 -0.13792877441E+02 -0.12676871992E+01  0.14886207987E+02  0.51100000000E-03 0. -1.
        -11    1    3    3    0    0  0.95689399231E+01  0.10799231741E+02  0.15840717305E+02  0.21427000313E+02  0.51100000000E-03 0.  1.
        -12    1    3    3    0    0 -0.13582175999E+02 -0.16166968940E+02  0.90904103639E+01  0.22988735288E+02  0.00000000000E+00 0.  1.
</event>
<event>
 7    1  0.7578565E-012  0.5930187E+02  0.7816164E-02  0.1266605E+00
        -11   -1    0    0    0    0  0.00000000000E+00  0.00000000000E+00  0.45593999997E+02  0.45594000000E+02  0.51100000000E-03 0.  1.
         11   -1    0    0    0    0 -0.00000000000E+00 -0.00000000000E+00 -0.45593999997E+02  0.45594000000E+02  0.51100000000E-03 0. -1.
    9900012    2    1    2    0    0 -0.10645891723E+02  0.15021289654E+02  0.26033652087E+02  0.59301871442E+02  0.49999867621E+02 0.  0.
         12    1    1    2    0    0  0.10645891723E+02 -0.15021289654E+02 -0.26033652087E+02  0.31886128558E+02  0.00000000000E+00 0. -1.
         11    1    3    3    0    0  0.80386048905E+01  0.16961737570E+02  0.10685569425E+02  0.21598636627E+02  0.51100000000E-03 0. -1.
        -11    1    3    3    0    0 -0.24408489908E+02  0.34447227020E+01  0.16636794294E+02  0.29739257198E+02  0.51100000000E-03 0.  1.
         12    1    3    3    0    0  0.57239932938E+01 -0.53851706175E+01 -0.12887116316E+01  0.79639776165E+01  0.00000000000E+00 0. -1.
</event>
<event>
 7    1  0.7578565E-012  0.5930194E+02  0.7816164E-02  0.1266605E+00
        -11   -1    0    0    0    0  0.00000000000E+00  0.00000000000E+00  0.45593999997E+02  0.45594000000E+02  0.51100000000E-03 0.  1.
         11   -1    0    0    0    0 -0.00000000000E+00 -0.00000000000E+00 -0.45593999997E+02  0.45594000000E+02  0.51100000000E-03 0. -1.
    9900012    2    1    2    0    0  0.22508490965E+02  0.21566044102E+02  0.67077761548E+01  0.59301942159E+02  0.49999996591E+02 0.  0.
         12    1    1    2    0    0 -0.22508490965E+02 -0.21566044102E+02 -0.67077761548E+01  0.31886057841E+02  0.00000000000E+00 0. -1.
         11    1    3    3    0    0  0.41856595717E+01  0.54333919637E+01 -0.36217484941E+01  0.77561947305E+01  0.51100000000E-03 0. -1.
        -11    1    3    3    0    0  0.12187978287E+02  0.25995419981E+02  0.21159029745E+02  0.35665294261E+02  0.51100000000E-03 0.  1.
        -12    1    3    3    0    0  0.61348531064E+01 -0.98627678429E+01 -0.10829505096E+02  0.15880453167E+02  0.00000000000E+00 0.  1.
</event>
<event>
 7    1  0.7578565E-012  0.5930195E+02  0.7816164E-02  0.1266605E+00
        -11   -1    0    0    0    0  0.00000000000E+00  0.00000000000E+00  0.45593999997E+02  0.45594000000E+02  0.51100000000E-03 0. -1.
         11   -1    0    0    0    0 -0.00000000000E+00 -0.00000000000E+00 -0.45593999997E+02  0.45594000000E+02  0.51100000000E-03 0.  1.
    9900012    2    1    2    0    0  0.22391315990E+02 -0.14803842453E+02 -0.17210334773E+02  0.59301946526E+02  0.50000004556E+02 0.  0.
         12    1    1    2    0    0 -0.22391315990E+02  0.14803842453E+02  0.17210334773E+02  0.31886053474E+02  0.00000000000E+00 0. -1.
         11    1    3    3    0    0 -0.28462779126E+01  0.26499220440E+01 -0.59963166399E+01  0.71469712678E+01  0.51100000000E-03 0. -1.
        -11    1    3    3    0    0  0.27940316759E+02 -0.11791082402E+02  0.84766047060E+01  0.31488787725E+02  0.51100000000E-03 0.  1.
        -12    1    3    3    0    0 -0.27027228564E+01 -0.56626820948E+01 -0.19690622839E+02  0.20666187533E+02  0.00000000000E+00 0.  1.
</event>
<event>
 7    1  0.7578565E-012  0.5930219E+02  0.7816164E-02  0.1266604E+00
        -11   -1    0    0    0    0  0.00000000000E+00  0.00000000000E+00  0.45593999997E+02  0.45594000000E+02  0.51100000000E-03 0. -1.
         11   -1    0    0    0    0 -0.00000000000E+00 -0.00000000000E+00 -0.45593999997E+02  0.45594000000E+02  0.51100000000E-03 0.  1.
    9900012    2    1    2    0    0 -0.19039178018E+01  0.99147419046E+01 -0.30245297532E+02  0.59302187594E+02  0.50000444204E+02 0.  0.
         12    1    1    2    0    0  0.19039178018E+01 -0.99147419046E+01  0.30245297532E+02  0.31885812406E+02  0.00000000000E+00 0. -1.
         11    1    3    3    0    0 -0.50542575880E+01  0.10596710848E+02  0.60187399263E+01  0.13193219135E+02  0.51100000000E-03 0. -1.
        -11    1    3    3    0    0 -0.10801696091E+02 -0.54410149578E+01 -0.24224206707E+02  0.27075698940E+02  0.51100000000E-03 0.  1.
        -12    1    3    3    0    0  0.13952035877E+02  0.47590460140E+01 -0.12039830751E+02  0.19033269519E+02  0.00000000000E+00 0.  1.
</event>
<event>
 7    1  0.7578565E-012  0.5930194E+02  0.7816164E-02  0.1266605E+00
        -11   -1    0    0    0    0  0.00000000000E+00  0.00000000000E+00  0.45593999997E+02  0.45594000000E+02  0.51100000000E-03 0. -1.
         11   -1    0    0    0    0 -0.00000000000E+00 -0.00000000000E+00 -0.45593999997E+02  0.45594000000E+02  0.51100000000E-03 0.  1.
    9900012    2    1    2    0    0  0.22749518136E+02 -0.11238648962E+02 -0.19309924849E+02  0.59301937157E+02  0.49999987470E+02 0.  0.
         12    1    1    2    0    0 -0.22749518136E+02  0.11238648962E+02  0.19309924849E+02  0.31886062843E+02  0.00000000000E+00 0. -1.
         11    1    3    3    0    0  0.28947602897E+02 -0.61785469942E+01 -0.54381746902E+01  0.30095047776E+02  0.51100000000E-03 0. -1.
        -11    1    3    3    0    0  0.75628801564E+00 -0.12405833057E+02 -0.14468381301E+02  0.19073822982E+02  0.51100000000E-03 0.  1.
         12    1    3    3    0    0 -0.69543727760E+01  0.73457310890E+01  0.59663114143E+00  0.10133066400E+02  0.00000000000E+00 0. -1.
</event>
<event>
 7    1  0.7578565E-012  0.5930193E+02  0.7816164E-02  0.1266605E+00
        -11   -1    0    0    0    0  0.00000000000E+00  0.00000000000E+00  0.45593999997E+02  0.45594000000E+02  0.51100000000E-03 0.  1.
         11   -1    0    0    0    0 -0.00000000000E+00 -0.00000000000E+00 -0.45593999997E+02  0.45594000000E+02  0.51100000000E-03 0. -1.
    9900012    2    1    2    0    0 -0.14912947018E+02  0.19314866667E+02  0.20524653707E+02  0.59301929798E+02  0.49999974048E+02 0.  0.
         12    1    1    2    0    0  0.14912947018E+02 -0.19314866667E+02 -0.20524653707E+02  0.31886070202E+02  0.00000000000E+00 0. -1.
         11    1    3    3    0    0  0.87901487675E+01  0.78645557907E+01  0.28397589653E+02  0.30749651242E+02  0.51100000000E-03 0. -1.
        -11    1    3    3    0    0 -0.10743733895E+02  0.92710664438E+01 -0.27919492921E+01  0.14462899851E+02  0.51100000000E-03 0.  1.
         12    1    3    3    0    0 -0.12959361891E+02  0.21792444323E+01 -0.50809866533E+01  0.14089378705E+02  0.00000000000E+00 0. -1.
</event>
<event>
 7    1  0.7578565E-012  0.5930196E+02  0.7816164E-02  0.1266605E+00
        -11   -1    0    0    0    0  0.00000000000E+00  0.00000000000E+00  0.45593999997E+02  0.45594000000E+02  0.51100000000E-03 0. -1.
         11   -1    0    0    0    0 -0.00000000000E+00 -0.00000000000E+00 -0.45593999997E+02  0.45594000000E+02  0.51100000000E-03 0.  1.
    9900012    2    1    2    0    0  0.53285431461E+01  0.27697312649E+02 -0.14872290301E+02  0.59301960440E+02  0.50000029932E+02 0.  0.
         12    1    1    2    0    0 -0.53285431461E+01 -0.27697312649E+02  0.14872290301E+02  0.31886039560E+02  0.00000000000E+00 0. -1.
         11    1    3    3    0    0 -0.88996962399E+01 -0.10337079451E+01  0.94089865117E+01  0.12992389030E+02  0.51100000000E-03 0. -1.
        -11    1    3    3    0    0  0.13933221297E+02  0.25965732668E+02 -0.28670252208E+02  0.41113711711E+02  0.51100000000E-03 0.  1.
        -12    1    3    3    0    0  0.29501808866E+00  0.27652879261E+01  0.43889753958E+01  0.51958596990E+01  0.00000000000E+00 0.  1.
</event>
<event>
 7    1  0.7578565E-012  0.5930195E+02  0.7816164E-02  0.1266605E+00
        -11   -1    0    0    0    0  0.00000000000E+00  0.00000000000E+00  0.45593999997E+02  0.45594000000E+02  0.51100000000E-03 0. -1.
         11   -1    0    0    0    0 -0.00000000000E+00 -0.00000000000E+00 -0.45593999997E+02  0.45594000000E+02  0.51100000000E-03 0.  1.
    9900012    2    1    2    0    0 -0.15610843698E+02  0.25035695998E+02 -0.12092799254E+02  0.59301948052E+02  0.50000007339E+02 0.  0.
         12    1    1    2    0    0  0.15610843698E+02 -0.25035695998E+02  0.12092799254E+02  0.31886051948E+02  0.00000000000E+00 0. -1.
         11    1    3    3    0    0  0.24945615006E+01 -0.41935279779E+01 -0.83257522386E+00  0.49499187616E+01  0.51100000000E-03 0. -1.
        -11    1    3    3    0    0 -0.26375070727E+02  0.28056646506E+02 -0.19022432303E+02  0.42949653084E+02  0.51100000000E-03 0.  1.
        -12    1    3    3    0    0  0.82696655291E+01  0.11725774695E+01  0.77622082730E+01  0.11402376207E+02  0.00000000000E+00 0.  1.
</event>
<event>
 7    1  0.7578565E-012  0.5930195E+02  0.7816164E-02  0.1266605E+00
        -11   -1    0    0    0    0  0.00000000000E+00  0.00000000000E+00  0.45593999997E+02  0.45594000000E+02  0.51100000000E-03 0. -1.
         11   -1    0    0    0    0 -0.00000000000E+00 -0.00000000000E+00 -0.45593999997E+02  0.45594000000E+02  0.51100000000E-03 0.  1.
    9900012    2    1    2    0    0 -0.26647816947E+02 -0.16867534180E+02  0.47011078262E+01  0.59301948628E+02  0.50000008389E+02 0.  0.
         12    1    1    2    0    0  0.26647816947E+02  0.16867534180E+02 -0.47011078262E+01  0.31886051372E+02  0.00000000000E+00 0. -1.
         11    1    3    3    0    0 -0.67923357780E+01 -0.17877377470E+02  0.19979393192E+02  0.27657053406E+02  0.51100000000E-03 0. -1.
        -11    1    3    3    0    0 -0.13828848947E+01  0.75097786226E+01 -0.70868376423E+01  0.10417889115E+02  0.51100000000E-03 0.  1.
         12    1    3    3    0    0 -0.18472596274E+02 -0.64999353326E+01 -0.81914477234E+01  0.21227006106E+02  0.00000000000E+00 0. -1.
</event>
<event>
 7    1  0.7578565E-012  0.5930184E+02  0.7816164E-02  0.1266605E+00
        -11   -1    0    0    0    0  0.00000000000E+00  0.00000000000E+00  0.45593999997E+02  0.45594000000E+02  0.51100000000E-03 0.  1.
         11   -1    0    0    0    0 -0.00000000000E+00 -0.00000000000E+00 -0.45593999997E+02  0.45594000000E+02  0.51100000000E-03 0. -1.
    9900012    2    1    2    0    0  0.63830623433E+01  0.30458961945E+02 -0.69451688743E+01  0.59301839706E+02  0.49999809741E+02 0.  0.
         12    1    1    2    0    0 -0.63830623433E+01 -0.30458961945E+02  0.69451688743E+01  0.31886160294E+02  0.00000000000E+00 0. -1.
         11    1    3    3    0    0  0.20441869660E+01  0.27569158734E+02 -0.21744162015E+02  0.35171661827E+02  0.51100000000E-03 0. -1.
        -11    1    3    3    0    0  0.62235718166E+01  0.27079470789E+01  0.18645775918E+02  0.19842650614E+02  0.51100000000E-03 0.  1.
        -12    1    3    3    0    0 -0.18846964392E+01  0.18185613179E+00 -0.38467827766E+01  0.42875272653E+01  0.00000000000E+00 0.  1.
</event>
<event>
 7    1  0.7578565E-012  0.5930190E+02  0.7816164E-02  0.1266605E+00
        -11   -1    0    0    0    0  0.00000000000E+00  0.00000000000E+00  0.45593999997E+02  0.45594000000E+02  0.51100000000E-03 0. -1.
         11   -1    0    0    0    0 -0.00000000000E+00 -0.00000000000E+00 -0.45593999997E+02  0.45594000000E+02  0.51100000000E-03 0.  1.
    9900012    2    1    2    0    0  0.37930797804E+01  0.85587984159E+01 -0.30480861803E+02  0.59301899254E+02  0.49999918343E+02 0.  0.
         12    1    1    2    0    0 -0.37930797804E+01 -0.85587984159E+01  0.30480861803E+02  0.31886100746E+02  0.00000000000E+00 0. -1.
         11    1    3    3    0    0  0.17058158436E+02  0.21111359950E+02 -0.13285071533E+02  0.30218593847E+02  0.51100000000E-03 0. -1.
        -11    1    3    3    0    0 -0.40287125882E+01 -0.44405165672E+01 -0.15568524463E+02  0.16683155179E+02  0.51100000000E-03 0.  1.
         12    1    3    3    0    0 -0.92363660673E+01 -0.81120449672E+01 -0.16272658072E+01  0.12400150228E+02  0.00000000000E+00 0. -1.
</event>
<event>
 7    1  0.7578565E-012  0.5930199E+02  0.7816164E-02  0.1266605E+00
        -11   -1    0    0    0    0  0.00000000000E+00  0.00000000000E+00  0.45593999997E+02  0.45594000000E+02  0.51100000000E-03 0. -1.
         11   -1    0    0    0    0 -0.00000000000E+00 -0.00000000000E+00 -0.45593999997E+02  0.45594000000E+02  0.51100000000E-03 0.  1.
    9900012    2    1    2    0    0 -0.65108033241E+01  0.20028418746E+02 -0.23941373532E+02  0.59301992348E+02  0.50000088124E+02 0.  0.
         12    1    1    2    0    0  0.65108033241E+01 -0.20028418746E+02  0.23941373532E+02  0.31886007652E+02  0.00000000000E+00 0. -1.
         11    1    3    3    0    0 -0.84443365863E+01  0.10094989059E+02  0.14464920521E+02  0.19556317404E+02  0.51100000000E-03 0. -1.
        -11    1    3    3    0    0  0.59603037828E+00  0.64879623237E+01 -0.23295315674E+02  0.24189267041E+02  0.51100000000E-03 0.  1.
         12    1    3    3    0    0  0.13375028839E+01  0.34454673637E+01 -0.15110978378E+02  0.15556407903E+02  0.00000000000E+00 0. -1.
</event>
<event>
 7    1  0.7578565E-012  0.5930196E+02  0.7816164E-02  0.1266605E+00
        -11   -1    0    0    0    0  0.00000000000E+00  0.00000000000E+00  0.45593999997E+02  0.45594000000E+02  0.51100000000E-03 0.  1.
         11   -1    0    0    0    0 -0.00000000000E+00 -0.00000000000E+00 -0.45593999997E+02  0.45594000000E+02  0.51100000000E-03 0. -1.
    9900012    2    1    2    0    0 -0.30199827126E+02  0.11555310397E+01 -0.10166362203E+02  0.59301957115E+02  0.50000023868E+02 0.  0.
         12    1    1    2    0    0  0.30199827126E+02 -0.11555310397E+01  0.10166362203E+02  0.31886042885E+02  0.00000000000E+00 0. -1.
         11    1    3    3    0    0 -0.34266058484E+02  0.97928984019E+01 -0.23532018079E+02  0.42706199764E+02  0.51100000000E-03 0. -1.
        -11    1    3    3    0    0  0.35074712218E+01 -0.62068435760E+01  0.82435883059E+01  0.10898807731E+02  0.51100000000E-03 0.  1.
         12    1    3    3    0    0  0.55876013616E+00 -0.24305237861E+01  0.51220675706E+01  0.56969496190E+01  0.00000000000E+00 0. -1.
</event>
<event>
 7    1  0.7578565E-012  0.5930193E+02  0.7816164E-02  0.1266605E+00
        -11   -1    0    0    0    0  0.00000000000E+00  0.00000000000E+00  0.45593999997E+02  0.45594000000E+02  0.51100000000E-03 0.  1.
         11   -1    0    0    0    0 -0.00000000000E+00 -0.00000000000E+00 -0.45593999997E+02  0.45594000000E+02  0.51100000000E-03 0. -1.
    9900012    2    1    2    0    0 -0.12605562178E+02  0.89865490232E+01  0.27875857478E+02  0.59301926374E+02  0.49999967803E+02 0.  0.
         12    1    1    2    0    0  0.12605562178E+02 -0.89865490232E+01 -0.27875857478E+02  0.31886073626E+02  0.00000000000E+00 0. -1.
         11    1    3    3    0    0 -0.44326864732E+00 -0.41320385042E+01  0.35161048855E+02  0.35405784642E+02  0.51100000000E-03 0. -1.
        -11    1    3    3    0    0 -0.15028909995E+02  0.12987650492E+02 -0.67372366162E+01  0.20974688518E+02  0.51100000000E-03 0.  1.
         12    1    3    3    0    0  0.28666164642E+01  0.13093703574E+00 -0.54795476051E+00  0.29214532137E+01  0.00000000000E+00 0. -1.
</event>
<event>
 7    1  0.7578565E-012  0.5930209E+02  0.7816164E-02  0.1266604E+00
        -11   -1    0    0    0    0  0.00000000000E+00  0.00000000000E+00  0.45593999997E+02  0.45594000000E+02  0.51100000000E-03 0.  1.
         11   -1    0    0    0    0 -0.00000000000E+00 -0.00000000000E+00 -0.45593999997E+02  0.45594000000E+02  0.51100000000E-03 0. -1.
    9900012    2    1    2    0    0  0.54895302748E+01 -0.19631206707E+02  0.24519221948E+02  0.59302086741E+02  0.50000260275E+02 0.  0.
         12    1    1    2    0    0 -0.54895302748E+01  0.19631206707E+02 -0.24519221948E+02  0.31885913259E+02  0.00000000000E+00 0. -1.
         11    1    3    3    0    0  0.83785011283E+01  0.14941988347E+02  0.16226552501E+02  0.23595832328E+02  0.51100000000E-03 0. -1.
        -11    1    3    3    0    0 -0.51952874013E+00 -0.10655861821E+02  0.19022292872E+01  0.10836778940E+02  0.51100000000E-03 0.  1.
         12    1    3    3    0    0 -0.23694421134E+01 -0.23917333233E+02  0.63904401590E+01  0.24869475473E+02  0.00000000000E+00 0. -1.
</event>
<event>
 7    1  0.7578565E-012  0.5930195E+02  0.7816164E-02  0.1266605E+00
        -11   -1    0    0    0    0  0.00000000000E+00  0.00000000000E+00  0.45593999997E+02  0.45594000000E+02  0.51100000000E-03 0. -1.
         11   -1    0    0    0    0 -0.00000000000E+00 -0.00000000000E+00 -0.45593999997E+02  0.45594000000E+02  0.51100000000E-03 0.  1.
    9900012    2    1    2    0    0 -0.76073384197E+01  0.99427547661E+01 -0.29325589680E+02  0.59301950068E+02  0.50000011016E+02 0.  0.
         12    1    1    2    0    0  0.76073384197E+01 -0.99427547661E+01  0.29325589680E+02  0.31886049932E+02  0.00000000000E+00 0. -1.
         11    1    3    3    0    0 -0.91707160875E+00  0.14589977323E+02  0.90981680586E+01  0.17218743303E+02  0.51100000000E-03 0. -1.
        -11    1    3    3    0    0 -0.95452013960E+01 -0.80527301577E+01 -0.31140404043E+02  0.33551186222E+02  0.51100000000E-03 0.  1.
        -12    1    3    3    0    0  0.28549345850E+01  0.34055076003E+01 -0.72833536957E+01  0.85320205437E+01  0.00000000000E+00 0.  1.
</event>
<event>
 7    1  0.7578565E-012  0.5930195E+02  0.7816164E-02  0.1266605E+00
        -11   -1    0    0    0    0  0.00000000000E+00  0.00000000000E+00  0.45593999997E+02  0.45594000000E+02  0.51100000000E-03 0.  1.
         11   -1    0    0    0    0 -0.00000000000E+00 -0.00000000000E+00 -0.45593999997E+02  0.45594000000E+02  0.51100000000E-03 0. -1.
    9900012    2    1    2    0    0 -0.22887176765E+02 -0.59119294857E+01  0.21399675812E+02  0.59301954535E+02  0.50000019163E+02 0.  0.
         12    1    1    2    0    0  0.22887176765E+02  0.59119294857E+01 -0.21399675812E+02  0.31886045465E+02  0.00000000000E+00 0. -1.
         11    1    3    3    0    0 -0.30912282752E+02  0.14671735105E+01  0.15548906093E+02  0.34633658542E+02  0.51100000000E-03 0. -1.
        -11    1    3    3    0    0 -0.14173455850E+00 -0.78601235167E+01 -0.62626973385E+01  0.10051020277E+02  0.51100000000E-03 0.  1.
         12    1    3    3    0    0  0.81668405454E+01  0.48102052058E+00  0.12113467057E+02  0.14617275717E+02  0.00000000000E+00 0. -1.
</event>
<event>
 7    1  0.7578565E-012  0.5930197E+02  0.7816164E-02  0.1266605E+00
        -11   -1    0    0    0    0  0.00000000000E+00  0.00000000000E+00  0.45593999997E+02  0.45594000000E+02  0.51100000000E-03 0.  1.
         11   -1    0    0    0    0 -0.00000000000E+00 -0.00000000000E+00 -0.45593999997E+02  0.45594000000E+02  0.51100000000E-03 0. -1.
    9900012    2    1    2    0    0  0.23906198117E+02 -0.20803457454E+02 -0.35254816181E+01  0.59301965892E+02  0.50000039876E+02 0.  0.
         12    1    1    2    0    0 -0.23906198117E+02  0.20803457454E+02  0.35254816181E+01  0.31886034108E+02  0.00000000000E+00 0. -1.
         11    1    3    3    0    0  0.26312478470E+02 -0.32211153790E+02 -0.85912791459E+00  0.41600998219E+02  0.51100000000E-03 0. -1.
        -11    1    3    3    0    0 -0.29147132084E+01  0.10426816222E+02 -0.72213398963E+01  0.13013907936E+02  0.51100000000E-03 0.  1.
         12    1    3    3    0    0  0.50843285539E+00  0.98088011421E+00  0.45549861928E+01  0.46870597376E+01  0.00000000000E+00 0. -1.
</event>
<event>
 7    1  0.7578565E-012  0.5930197E+02  0.7816164E-02  0.1266605E+00
        -11   -1    0    0    0    0  0.00000000000E+00  0.00000000000E+00  0.45593999997E+02  0.45594000000E+02  0.51100000000E-03 0. -1.
         11   -1    0    0    0    0 -0.00000000000E+00 -0.00000000000E+00 -0.45593999997E+02  0.45594000000E+02  0.51100000000E-03 0.  1.
    9900012    2    1    2    0    0  0.30595845970E+02 -0.53899560381E+01 -0.71806423054E+01  0.59301967939E+02  0.50000043608E+02 0.  0.
         12    1    1    2    0    0 -0.30595845970E+02  0.53899560381E+01  0.71806423054E+01  0.31886032061E+02  0.00000000000E+00 0. -1.
         11    1    3    3    0    0  0.19190263928E+02  0.99244874094E+01  0.25211984582E+01  0.21751278627E+02  0.51100000000E-03 0.  1.
        -11    1    3    3    0    0 -0.56256952844E+01 -0.13954502281E+02  0.40916227221E+01  0.15592240317E+02  0.51100000000E-03 0. -1.
        -12    1    3    3    0    0  0.17031277326E+02 -0.13599411667E+01 -0.13793463486E+02  0.21958448995E+02  0.00000000000E+00 0.  1.
</event>
<event>
 7    1  0.7578565E-012  0.5930193E+02  0.7816164E-02  0.1266605E+00
        -11   -1    0    0    0    0  0.00000000000E+00  0.00000000000E+00  0.45593999997E+02  0.45594000000E+02  0.51100000000E-03 0.  1.
         11   -1    0    0    0    0 -0.00000000000E+00 -0.00000000000E+00 -0.45593999997E+02  0.45594000000E+02  0.51100000000E-03 0. -1.
    9900012    2    1    2    0    0 -0.12235346067E+02 -0.27592980750E+02  0.10278371594E+02  0.59301934036E+02  0.49999981778E+02 0.  0.
         12    1    1    2    0    0  0.12235346067E+02  0.27592980750E+02 -0.10278371594E+02  0.31886065964E+02  0.00000000000E+00 0. -1.
         11    1    3    3    0    0  0.18345903774E+02 -0.11654273799E+02  0.88942615771E+00  0.21752824236E+02  0.51100000000E-03 0. -1.
        -11    1    3    3    0    0 -0.56894363090E+01 -0.80803971160E+01  0.50160717939E+01  0.11082575493E+02  0.51100000000E-03 0.  1.
         12    1    3    3    0    0 -0.24891813532E+02 -0.78583098340E+01  0.43728736423E+01  0.26466534307E+02  0.00000000000E+00 0. -1.
</event>
<event>
 7    1  0.7578565E-012  0.5930194E+02  0.7816164E-02  0.1266605E+00
        -11   -1    0    0    0    0  0.00000000000E+00  0.00000000000E+00  0.45593999997E+02  0.45594000000E+02  0.51100000000E-03 0.  1.
         11   -1    0    0    0    0 -0.00000000000E+00 -0.00000000000E+00 -0.45593999997E+02  0.45594000000E+02  0.51100000000E-03 0. -1.
    9900012    2    1    2    0    0 -0.27118038557E+02 -0.32617398828E+01  0.16452772896E+02  0.59301941946E+02  0.49999996203E+02 0.  0.
         12    1    1    2    0    0  0.27118038557E+02  0.32617398828E+01 -0.16452772896E+02  0.31886058054E+02  0.00000000000E+00 0. -1.
         11    1    3    3    0    0 -0.17605998839E+02  0.46105300773E+01 -0.83340848821E+01  0.20017121516E+02  0.51100000000E-03 0. -1.
        -11    1    3    3    0    0 -0.96426708637E+01 -0.17903379950E+02  0.18144348861E+02  0.27253064247E+02  0.51100000000E-03 0.  1.
        -12    1    3    3    0    0  0.13063114535E+00  0.10031109989E+02  0.66425089177E+01  0.12031756183E+02  0.00000000000E+00 0.  1.
</event>
<event>
 7    1  0.7578565E-012  0.5930190E+02  0.7816164E-02  0.1266605E+00
        -11   -1    0    0    0    0  0.00000000000E+00  0.00000000000E+00  0.45593999997E+02  0.45594000000E+02  0.51100000000E-03 0.  1.
         11   -1    0    0    0    0 -0.00000000000E+00 -0.00000000000E+00 -0.45593999997E+02  0.45594000000E+02  0.51100000000E-03 0. -1.
    9900012    2    1    2    0    0 -0.28571621931E+02  0.81577506691E+01  0.11568779625E+02  0.59301903692E+02  0.49999926438E+02 0.  0.
         12    1    1    2    0    0  0.28571621931E+02 -0.81577506691E+01 -0.11568779625E+02  0.31886096308E+02  0.00000000000E+00 0. -1.
         11    1    3    3    0    0 -0.30668948024E+02  0.18832753422E+02  0.49791050699E+01  0.36332471178E+02  0.51100000000E-03 0. -1.
        -11    1    3    3    0    0 -0.43349156423E+01  0.28461217799E+00  0.90381116970E+01  0.10027958966E+02  0.51100000000E-03 0.  1.
         12    1    3    3    0    0  0.64322417349E+01 -0.10959614931E+02 -0.24484371424E+01  0.12941473548E+02  0.00000000000E+00 0. -1.
</event>
<event>
 7    1  0.7578565E-012  0.5930195E+02  0.7816164E-02  0.1266605E+00
        -11   -1    0    0    0    0  0.00000000000E+00  0.00000000000E+00  0.45593999997E+02  0.45594000000E+02  0.51100000000E-03 0.  1.
         11   -1    0    0    0    0 -0.00000000000E+00 -0.00000000000E+00 -0.45593999997E+02  0.45594000000E+02  0.51100000000E-03 0. -1.
    9900012    2    1    2    0    0  0.12431781229E+01 -0.31809252674E+02  0.18292286830E+01  0.59301950933E+02  0.50000012594E+02 0.  0.
         12    1    1    2    0    0 -0.12431781229E+01  0.31809252674E+02 -0.18292286830E+01  0.31886049067E+02  0.00000000000E+00 0. -1.
         11    1    3    3    0    0 -0.10944569585E+02 -0.15764032368E+02  0.16057205207E+02  0.25022433119E+02  0.51100000000E-03 0. -1.
        -11    1    3    3    0    0  0.12603729889E-01 -0.17234595099E+02 -0.26518114647E+01  0.17437417566E+02  0.51100000000E-03 0.  1.
         12    1    3    3    0    0  0.12175143978E+02  0.11893747928E+01 -0.11576165059E+02  0.16842100248E+02  0.00000000000E+00 0. -1.
</event>
<event>
 7    1  0.7578565E-012  0.5930192E+02  0.7816164E-02  0.1266605E+00
        -11   -1    0    0    0    0  0.00000000000E+00  0.00000000000E+00  0.45593999997E+02  0.45594000000E+02  0.51100000000E-03 0.  1.
         11   -1    0    0    0    0 -0.00000000000E+00 -0.00000000000E+00 -0.45593999997E+02  0.45594000000E+02  0.51100000000E-03 0. -1.
    9900012    2    1    2    0    0 -0.27249219784E+02 -0.15554066710E+02  0.56809199309E+01  0.59301924335E+02  0.49999964085E+02 0.  0.
         12    1    1    2    0    0  0.27249219784E+02  0.15554066710E+02 -0.56809199309E+01  0.31886075665E+02  0.00000000000E+00 0. -1.
         11    1    3    3    0    0 -0.35489447019E+02 -0.22207102107E+01  0.56388314097E+00  0.35563328978E+02  0.51100000000E-03 0. -1.
        -11    1    3    3    0    0  0.73319886852E+01  0.18772591299E+01  0.37304925034E+01  0.84379342555E+01  0.51100000000E-03 0.  1.
         12    1    3    3    0    0  0.90823854996E+00 -0.15210615629E+02  0.13865442866E+01  0.15300661101E+02  0.00000000000E+00 0. -1.
</event>
<event>
 7    1  0.7578565E-012  0.5930194E+02  0.7816164E-02  0.1266605E+00
        -11   -1    0    0    0    0  0.00000000000E+00  0.00000000000E+00  0.45593999997E+02  0.45594000000E+02  0.51100000000E-03 0. -1.
         11   -1    0    0    0    0 -0.00000000000E+00 -0.00000000000E+00 -0.45593999997E+02  0.45594000000E+02  0.51100000000E-03 0.  1.
    9900012    2    1    2    0    0  0.31586940554E+02 -0.24047100637E+01  0.36336798536E+01  0.59301936064E+02  0.49999985476E+02 0.  0.
         12    1    1    2    0    0 -0.31586940554E+02  0.24047100637E+01 -0.36336798536E+01  0.31886063936E+02  0.00000000000E+00 0. -1.
         11    1    3    3    0    0  0.34261941051E+01 -0.83617104760E+01 -0.59110916008E+00  0.90557395297E+01  0.51100000000E-03 0. -1.
        -11    1    3    3    0    0  0.11255422094E+01  0.16126663229E+02 -0.89730056992E+01  0.18489211549E+02  0.51100000000E-03 0.  1.
        -12    1    3    3    0    0  0.27035204239E+02 -0.10169662817E+02  0.13197794713E+02  0.31756984985E+02  0.00000000000E+00 0.  1.
</event>
<event>
 7    1  0.7578565E-012  0.5930204E+02  0.7816164E-02  0.1266604E+00
        -11   -1    0    0    0    0  0.00000000000E+00  0.00000000000E+00  0.45593999997E+02  0.45594000000E+02  0.51100000000E-03 0. -1.
         11   -1    0    0    0    0 -0.00000000000E+00 -0.00000000000E+00 -0.45593999997E+02  0.45594000000E+02  0.51100000000E-03 0.  1.
    9900012    2    1    2    0    0 -0.69498454106E+01  0.23507819941E+02 -0.20391086618E+02  0.59302041286E+02  0.50000177376E+02 0.  0.
         12    1    1    2    0    0  0.69498454106E+01 -0.23507819941E+02  0.20391086618E+02  0.31885958714E+02  0.00000000000E+00 0. -1.
         11    1    3    3    0    0 -0.26955248901E+01  0.21605332872E+02  0.25812108301E+01  0.21925303021E+02  0.51100000000E-03 0. -1.
        -11    1    3    3    0    0  0.10799599355E+02  0.30298804741E+00 -0.18784028150E+02  0.21669399202E+02  0.51100000000E-03 0.  1.
         12    1    3    3    0    0 -0.15053919875E+02  0.15994990222E+01 -0.41882692981E+01  0.15707339063E+02  0.00000000000E+00 0. -1.
</event>
<event>
 7    1  0.7578565E-012  0.5930193E+02  0.7816164E-02  0.1266605E+00
        -11   -1    0    0    0    0  0.00000000000E+00  0.00000000000E+00  0.45593999997E+02  0.45594000000E+02  0.51100000000E-03 0.  1.
         11   -1    0    0    0    0 -0.00000000000E+00 -0.00000000000E+00 -0.45593999997E+02  0.45594000000E+02  0.51100000000E-03 0. -1.
    9900012    2    1    2    0    0  0.29571257594E+02  0.11598110430E+02  0.27831344181E+01  0.59301932848E+02  0.49999979611E+02 0.  0.
         12    1    1    2    0    0 -0.29571257594E+02 -0.11598110430E+02 -0.27831344181E+01  0.31886067152E+02  0.00000000000E+00 0. -1.
         11    1    3    3    0    0  0.27734620244E+00 -0.12140774453E+02 -0.66771118882E+00  0.12162284478E+02  0.51100000000E-03 0. -1.
        -11    1    3    3    0    0  0.30298417579E+02  0.16353468938E+02  0.11375493921E+02  0.36260611086E+02  0.51100000000E-03 0.  1.
         12    1    3    3    0    0 -0.10045061873E+01  0.73854159437E+01 -0.79246483141E+01  0.10879037285E+02  0.00000000000E+00 0. -1.
</event>
<event>
 7    1  0.7578565E-012  0.5930195E+02  0.7816164E-02  0.1266605E+00
        -11   -1    0    0    0    0  0.00000000000E+00  0.00000000000E+00  0.45593999997E+02  0.45594000000E+02  0.51100000000E-03 0. -1.
         11   -1    0    0    0    0 -0.00000000000E+00 -0.00000000000E+00 -0.45593999997E+02  0.45594000000E+02  0.51100000000E-03 0.  1.
    9900012    2    1    2    0    0  0.27755550695E+02  0.14486388282E+02 -0.60410153230E+01  0.59301954369E+02  0.50000018859E+02 0.  0.
         12    1    1    2    0    0 -0.27755550695E+02 -0.14486388282E+02  0.60410153230E+01  0.31886045631E+02  0.00000000000E+00 0. -1.
         11    1    3    3    0    0  0.10084283176E+02  0.82146897344E+01 -0.27630448524E+02  0.30538755386E+02  0.51100000000E-03 0.  1.
        -11    1    3    3    0    0  0.11265696589E+02  0.48432278037E+01  0.12116737407E+02  0.17239144435E+02  0.51100000000E-03 0. -1.
        -12    1    3    3    0    0  0.64055709306E+01  0.14284707441E+01  0.94726957946E+01  0.11524054548E+02  0.00000000000E+00 0.  1.
</event>
<event>
 7    1  0.7578565E-012  0.5930196E+02  0.7816164E-02  0.1266605E+00
        -11   -1    0    0    0    0  0.00000000000E+00  0.00000000000E+00  0.45593999997E+02  0.45594000000E+02  0.51100000000E-03 0. -1.
         11   -1    0    0    0    0 -0.00000000000E+00 -0.00000000000E+00 -0.45593999997E+02  0.45594000000E+02  0.51100000000E-03 0.  1.
    9900012    2    1    2    0    0 -0.21174167537E+02 -0.23460842334E+02 -0.42383057610E+01  0.59301957135E+02  0.50000023904E+02 0.  0.
         12    1    1    2    0    0  0.21174167537E+02  0.23460842334E+02  0.42383057610E+01  0.31886042865E+02  0.00000000000E+00 0. -1.
         11    1    3    3    0    0 -0.29365548184E+02 -0.26601273315E+01  0.43552708333E+01  0.29805705526E+02  0.51100000000E-03 0. -1.
        -11    1    3    3    0    0  0.84837417393E+01 -0.21378053101E+02 -0.22387867577E+01  0.23108595689E+02  0.51100000000E-03 0.  1.
        -12    1    3    3    0    0 -0.29236109200E+00  0.57733809916E+00 -0.63547898366E+01  0.63876559203E+01  0.00000000000E+00 0.  1.
</event>
<event>
 7    1  0.7578565E-012  0.5930187E+02  0.7816164E-02  0.1266605E+00
        -11   -1    0    0    0    0  0.00000000000E+00  0.00000000000E+00  0.45593999997E+02  0.45594000000E+02  0.51100000000E-03 0.  1.
         11   -1    0    0    0    0 -0.00000000000E+00 -0.00000000000E+00 -0.45593999997E+02  0.45594000000E+02  0.51100000000E-03 0. -1.
    9900012    2    1    2    0    0  0.17321268778E+01 -0.18244484497E+02  0.26093368872E+02  0.59301868577E+02  0.49999862395E+02 0.  0.
         12    1    1    2    0    0 -0.17321268778E+01  0.18244484497E+02 -0.26093368872E+02  0.31886131423E+02  0.00000000000E+00 0. -1.
         11    1    3    3    0    0  0.91754470791E+01 -0.96768959652E+01 -0.12047527893E+02  0.17971479438E+02  0.51100000000E-03 0. -1.
        -11    1    3    3    0    0 -0.78900699131E+01 -0.82291734838E+01  0.18836522785E+02  0.22017881150E+02  0.51100000000E-03 0.  1.
         12    1    3    3    0    0  0.44674971179E+00 -0.33841504765E+00  0.19304373979E+02  0.19312507988E+02  0.00000000000E+00 0. -1.
</event>
<event>
 7    1  0.7578565E-012  0.5930194E+02  0.7816164E-02  0.1266605E+00
        -11   -1    0    0    0    0  0.00000000000E+00  0.00000000000E+00  0.45593999997E+02  0.45594000000E+02  0.51100000000E-03 0.  1.
         11   -1    0    0    0    0 -0.00000000000E+00 -0.00000000000E+00 -0.45593999997E+02  0.45594000000E+02  0.51100000000E-03 0. -1.
    9900012    2    1    2    0    0  0.16837516043E+02 -0.26475663390E+02  0.56795994982E+01  0.59301944287E+02  0.50000000474E+02 0.  0.
         12    1    1    2    0    0 -0.16837516043E+02  0.26475663390E+02 -0.56795994982E+01  0.31886055713E+02  0.00000000000E+00 0. -1.
         11    1    3    3    0    0  0.20574309318E+02 -0.10465594391E+02 -0.13592796269E+02  0.26787963352E+02  0.51100000000E-03 0. -1.
        -11    1    3    3    0    0  0.32116335026E+01 -0.12968197673E+02  0.20853311013E+02  0.24765890275E+02  0.51100000000E-03 0.  1.
        -12    1    3    3    0    0 -0.69484267786E+01 -0.30418713270E+01 -0.15809152460E+01  0.77480906604E+01  0.00000000000E+00 0.  1.
</event>
<event>
 7    1  0.7578565E-012  0.5930194E+02  0.7816164E-02  0.1266605E+00
        -11   -1    0    0    0    0  0.00000000000E+00  0.00000000000E+00  0.45593999997E+02  0.45594000000E+02  0.51100000000E-03 0. -1.
         11   -1    0    0    0    0 -0.00000000000E+00 -0.00000000000E+00 -0.45593999997E+02  0.45594000000E+02  0.51100000000E-03 0.  1.
    9900012    2    1    2    0    0 -0.25380385398E+02 -0.14995342120E+02 -0.12153050325E+02  0.59301939088E+02  0.49999990991E+02 0.  0.
         12    1    1    2    0    0  0.25380385398E+02  0.14995342120E+02  0.12153050325E+02  0.31886060912E+02  0.00000000000E+00 0. -1.
         11    1    3    3    0    0  0.26406158139E+01 -0.10379466848E+01 -0.47685079381E+01  0.55487704417E+01  0.51100000000E-03 0. -1.
        -11    1    3    3    0    0 -0.19784110223E+02  0.11801550505E+02  0.56687561134E+01  0.23723878430E+02  0.51100000000E-03 0.  1.
        -12    1    3    3    0    0 -0.82368909897E+01 -0.25758945941E+02 -0.13053298501E+02  0.30029290216E+02  0.00000000000E+00 0.  1.
</event>
<event>
 7    1  0.1218031E-011  0.5930202E+02  0.7816164E-02  0.1266604E+00
        -11   -1    0    0    0    0  0.00000000000E+00  0.00000000000E+00  0.45593999997E+02  0.45594000000E+02  0.51100000000E-03 0. -1.
         11   -1    0    0    0    0 -0.00000000000E+00 -0.00000000000E+00 -0.45593999997E+02  0.45594000000E+02  0.51100000000E-03 0.  1.
    9900012    2    1    2    0    0 -0.30493011518E+02  0.35877848983E+01 -0.86034753250E+01  0.59302019702E+02  0.50000138012E+02 0.  0.
         12    1    1    2    0    0  0.30493011518E+02 -0.35877848983E+01  0.86034753250E+01  0.31885980298E+02  0.00000000000E+00 0. -1.
         11    1    3    3    0    0 -0.10543110200E+02 -0.10420055221E+02  0.12406510923E+02  0.19330189783E+02  0.51100000000E-03 0. -1.
        -11    1    3    3    0    0 -0.23178541691E+02  0.83046018955E+01 -0.88599539331E+01  0.26166963743E+02  0.51100000000E-03 0.  1.
         12    1    3    3    0    0  0.32286403737E+01  0.57032382234E+01 -0.12150032315E+02  0.13804866176E+02  0.00000000000E+00 0. -1.
</event>
<event>
 7    1  0.7578565E-012  0.5930194E+02  0.7816164E-02  0.1266605E+00
        -11   -1    0    0    0    0  0.00000000000E+00  0.00000000000E+00  0.45593999997E+02  0.45594000000E+02  0.51100000000E-03 0.  1.
         11   -1    0    0    0    0 -0.00000000000E+00 -0.00000000000E+00 -0.45593999997E+02  0.45594000000E+02  0.51100000000E-03 0. -1.
    9900012    2    1    2    0    0  0.76157098047E+01  0.23824687384E+02  0.19776399522E+02  0.59301941246E+02  0.49999994927E+02 0.  0.
         12    1    1    2    0    0 -0.76157098047E+01 -0.23824687384E+02 -0.19776399522E+02  0.31886058754E+02  0.00000000000E+00 0. -1.
         11    1    3    3    0    0 -0.42594938962E+01  0.13051316901E+02 -0.15363515789E+02  0.20603829226E+02  0.51100000000E-03 0. -1.
        -11    1    3    3    0    0  0.52397644267E+01  0.56363356603E+01  0.14456636719E+02  0.16377354988E+02  0.51100000000E-03 0.  1.
         12    1    3    3    0    0  0.66354392742E+01  0.51370348228E+01  0.20683278593E+02  0.22320757032E+02  0.00000000000E+00 0. -1.
</event>
<event>
 7    1  0.7578565E-012  0.5930200E+02  0.7816164E-02  0.1266605E+00
        -11   -1    0    0    0    0  0.00000000000E+00  0.00000000000E+00  0.45593999997E+02  0.45594000000E+02  0.51100000000E-03 0.  1.
         11   -1    0    0    0    0 -0.00000000000E+00 -0.00000000000E+00 -0.45593999997E+02  0.45594000000E+02  0.51100000000E-03 0. -1.
    9900012    2    1    2    0    0 -0.20621181151E+02  0.17781758060E+02  0.16591949791E+02  0.59302002608E+02  0.50000106837E+02 0.  0.
         12    1    1    2    0    0  0.20621181151E+02 -0.17781758060E+02 -0.16591949791E+02  0.31885997392E+02  0.00000000000E+00 0. -1.
         11    1    3    3    0    0 -0.18865442473E+01 -0.25675212063E+01 -0.84657536059E+01  0.90454518251E+01  0.51100000000E-03 0. -1.
        -11    1    3    3    0    0  0.77605943093E+00  0.10771333758E+01  0.22691749689E+02  0.22730551879E+02  0.51100000000E-03 0.  1.
        -12    1    3    3    0    0 -0.19510696335E+02  0.19272145891E+02  0.23659537086E+01  0.27525998904E+02  0.00000000000E+00 0.  1.
</event>
<event>
 7    1  0.7578565E-012  0.5930178E+02  0.7816164E-02  0.1266605E+00
        -11   -1    0    0    0    0  0.00000000000E+00  0.00000000000E+00  0.45593999997E+02  0.45594000000E+02  0.51100000000E-03 0. -1.
         11   -1    0    0    0    0 -0.00000000000E+00 -0.00000000000E+00 -0.45593999997E+02  0.45594000000E+02  0.51100000000E-03 0.  1.
    9900012    2    1    2    0    0  0.93399799061E+00  0.11816764058E+02 -0.29601056268E+02  0.59301783585E+02  0.49999707391E+02 0.  0.
         12    1    1    2    0    0 -0.93399799061E+00 -0.11816764058E+02  0.29601056268E+02  0.31886216415E+02  0.00000000000E+00 0. -1.
         11    1    3    3    0    0 -0.21690249720E+01  0.10373447800E+02 -0.36334067233E+02  0.37848084899E+02  0.51100000000E-03 0. -1.
        -11    1    3    3    0    0  0.20272502759E+01 -0.78655226341E+01 -0.22959858048E+01  0.84408376993E+01  0.51100000000E-03 0.  1.
         12    1    3    3    0    0  0.10757726866E+01  0.93088388927E+01  0.90289967697E+01  0.13012860987E+02  0.00000000000E+00 0. -1.
</event>
<event>
 7    1  0.7578565E-012  0.5930195E+02  0.7816164E-02  0.1266605E+00
        -11   -1    0    0    0    0  0.00000000000E+00  0.00000000000E+00  0.45593999997E+02  0.45594000000E+02  0.51100000000E-03 0. -1.
         11   -1    0    0    0    0 -0.00000000000E+00 -0.00000000000E+00 -0.45593999997E+02  0.45594000000E+02  0.51100000000E-03 0.  1.
    9900012    2    1    2    0    0 -0.23932065037E+02  0.15687423516E+02 -0.14067034877E+02  0.59301945623E+02  0.50000002909E+02 0.  0.
         12    1    1    2    0    0  0.23932065037E+02 -0.15687423516E+02  0.14067034877E+02  0.31886054377E+02  0.00000000000E+00 0. -1.
         11    1    3    3    0    0 -0.28775700649E+02  0.19047307848E+02 -0.14395595682E+02  0.37390828546E+02  0.51100000000E-03 0. -1.
        -11    1    3    3    0    0  0.69001740971E+01  0.66651011536E+01 -0.44987386673E+01  0.10595972151E+02  0.51100000000E-03 0.  1.
         12    1    3    3    0    0 -0.20565384852E+01 -0.10024985485E+02  0.48272994717E+01  0.11315144926E+02  0.00000000000E+00 0. -1.
</event>
<event>
 7    1  0.7578565E-012  0.5930194E+02  0.7816164E-02  0.1266605E+00
        -11   -1    0    0    0    0  0.00000000000E+00  0.00000000000E+00  0.45593999997E+02  0.45594000000E+02  0.51100000000E-03 0.  1.
         11   -1    0    0    0    0 -0.00000000000E+00 -0.00000000000E+00 -0.45593999997E+02  0.45594000000E+02  0.51100000000E-03 0. -1.
    9900012    2    1    2    0    0 -0.26043003456E+02 -0.35563742908E+01  0.18050893540E+02  0.59301943726E+02  0.49999999451E+02 0.  0.
         12    1    1    2    0    0  0.26043003456E+02  0.35563742908E+01 -0.18050893540E+02  0.31886056274E+02  0.00000000000E+00 0. -1.
         11    1    3    3    0    0  0.72527594988E+01 -0.66573269059E+01 -0.74933230325E+01  0.12372243621E+02  0.51100000000E-03 0. -1.
        -11    1    3    3    0    0 -0.27474192799E+02 -0.45177573858E+01  0.24844190604E+02  0.37315884135E+02  0.51100000000E-03 0.  1.
         12    1    3    3    0    0 -0.58215701557E+01  0.76187100010E+01  0.70002596771E+00  0.96138159704E+01  0.00000000000E+00 0. -1.
</event>
<event>
 7    1  0.7578565E-012  0.5930198E+02  0.7816164E-02  0.1266605E+00
        -11   -1    0    0    0    0  0.00000000000E+00  0.00000000000E+00  0.45593999997E+02  0.45594000000E+02  0.51100000000E-03 0.  1.
         11   -1    0    0    0    0 -0.00000000000E+00 -0.00000000000E+00 -0.45593999997E+02  0.45594000000E+02  0.51100000000E-03 0. -1.
    9900012    2    1    2    0    0  0.11496890802E+02  0.26922742426E+02  0.12637479292E+02  0.59301977346E+02  0.50000060764E+02 0.  0.
         12    1    1    2    0    0 -0.11496890802E+02 -0.26922742426E+02 -0.12637479292E+02  0.31886022654E+02  0.00000000000E+00 0. -1.
         11    1    3    3    0    0 -0.70367623582E+01 -0.37023689419E+01 -0.12499630198E+02  0.14814328051E+02  0.51100000000E-03 0. -1.
        -11    1    3    3    0    0  0.13168948880E+02  0.26823304664E+02  0.18499191042E+02  0.35144429959E+02  0.51100000000E-03 0.  1.
        -12    1    3    3    0    0  0.53647042801E+01  0.38018067041E+01  0.66379184475E+01  0.93432193351E+01  0.00000000000E+00 0.  1.
</event>
<event>
 7    1  0.7578565E-012  0.5930195E+02  0.7816164E-02  0.1266605E+00
        -11   -1    0    0    0    0  0.00000000000E+00  0.00000000000E+00  0.45593999997E+02  0.45594000000E+02  0.51100000000E-03 0.  1.
         11   -1    0    0    0    0 -0.00000000000E+00 -0.00000000000E+00 -0.45593999997E+02  0.45594000000E+02  0.51100000000E-03 0. -1.
    9900012    2    1    2    0    0  0.20850040758E+02 -0.66262780768E+01  0.23196728471E+02  0.59301953326E+02  0.50000016958E+02 0.  0.
         12    1    1    2    0    0 -0.20850040758E+02  0.66262780768E+01 -0.23196728471E+02  0.31886046674E+02  0.00000000000E+00 0. -1.
         11    1    3    3    0    0  0.61531951631E+01  0.95864458046E+01 -0.73447884414E-02  0.11391304056E+02  0.51100000000E-03 0. -1.
        -11    1    3    3    0    0  0.22396805283E+02 -0.10275085325E+02  0.21685306197E+01  0.24736547671E+02  0.51100000000E-03 0.  1.
        -12    1    3    3    0    0 -0.76999596885E+01 -0.59376385562E+01  0.21035542639E+02  0.23174101600E+02  0.00000000000E+00 0.  1.
</event>
<event>
 7    1  0.7578565E-012  0.5930196E+02  0.7816164E-02  0.1266605E+00
        -11   -1    0    0    0    0  0.00000000000E+00  0.00000000000E+00  0.45593999997E+02  0.45594000000E+02  0.51100000000E-03 0.  1.
         11   -1    0    0    0    0 -0.00000000000E+00 -0.00000000000E+00 -0.45593999997E+02  0.45594000000E+02  0.51100000000E-03 0. -1.
    9900012    2    1    2    0    0 -0.21665234918E+02 -0.19889758312E+02  0.12318067255E+02  0.59301958059E+02  0.50000025589E+02 0.  0.
         12    1    1    2    0    0  0.21665234918E+02  0.19889758312E+02 -0.12318067255E+02  0.31886041941E+02  0.00000000000E+00 0. -1.
         11    1    3    3    0    0 -0.11528552976E+02 -0.28725045428E+02  0.32553461026E+00  0.30953864727E+02  0.51100000000E-03 0. -1.
        -11    1    3    3    0    0 -0.21925455458E+00  0.14126886107E+02  0.88680203671E+01  0.16681090166E+02  0.51100000000E-03 0.  1.
         12    1    3    3    0    0 -0.99174273878E+01 -0.52915989917E+01  0.31245122781E+01  0.11667003165E+02  0.00000000000E+00 0. -1.
</event>
<event>
 7    1  0.7578565E-012  0.5930196E+02  0.7816164E-02  0.1266605E+00
        -11   -1    0    0    0    0  0.00000000000E+00  0.00000000000E+00  0.45593999997E+02  0.45594000000E+02  0.51100000000E-03 0.  1.
         11   -1    0    0    0    0 -0.00000000000E+00 -0.00000000000E+00 -0.45593999997E+02  0.45594000000E+02  0.51100000000E-03 0. -1.
    9900012    2    1    2    0    0  0.21687207745E+02 -0.35645574619E+01  0.23101489364E+02  0.59301955081E+02  0.50000020159E+02 0.  0.
         12    1    1    2    0    0 -0.21687207745E+02  0.35645574619E+01 -0.23101489364E+02  0.31886044919E+02  0.00000000000E+00 0. -1.
         11    1    3    3    0    0 -0.28610607663E+01  0.13189239907E+02  0.55696088588E+01  0.14600077436E+02  0.51100000000E-03 0. -1.
        -11    1    3    3    0    0  0.12171044814E+02 -0.18074515634E+02  0.22479307136E+02  0.31307214774E+02  0.51100000000E-03 0.  1.
         12    1    3    3    0    0  0.12377223697E+02  0.13207182653E+01 -0.49474266309E+01  0.13394662872E+02  0.00000000000E+00 0. -1.
</event>
<event>
 7    1  0.7578565E-012  0.5930200E+02  0.7816164E-02  0.1266605E+00
        -11   -1    0    0    0    0  0.00000000000E+00  0.00000000000E+00  0.45593999997E+02  0.45594000000E+02  0.51100000000E-03 0. -1.
         11   -1    0    0    0    0 -0.00000000000E+00 -0.00000000000E+00 -0.45593999997E+02  0.45594000000E+02  0.51100000000E-03 0.  1.
    9900012    2    1    2    0    0 -0.14996944623E+02  0.59661594058E+01 -0.27499333832E+02  0.59302003586E+02  0.50000108621E+02 0.  0.
         12    1    1    2    0    0  0.14996944623E+02 -0.59661594058E+01  0.27499333832E+02  0.31885996414E+02  0.00000000000E+00 0. -1.
         11    1    3    3    0    0  0.93163415222E+01  0.11984276356E+01  0.52211331570E+01  0.10746659009E+02  0.51100000000E-03 0. -1.
        -11    1    3    3    0    0 -0.31345652943E+01 -0.53406313441E+01 -0.21816685142E+02  0.22678527147E+02  0.51100000000E-03 0.  1.
         12    1    3    3    0    0 -0.21178720851E+02  0.10108363114E+02 -0.10903781848E+02  0.25876817430E+02  0.00000000000E+00 0. -1.
</event>
<event>
 7    1  0.7578565E-012  0.5930220E+02  0.7816164E-02  0.1266604E+00
        -11   -1    0    0    0    0  0.00000000000E+00  0.00000000000E+00  0.45593999997E+02  0.45594000000E+02  0.51100000000E-03 0.  1.
         11   -1    0    0    0    0 -0.00000000000E+00 -0.00000000000E+00 -0.45593999997E+02  0.45594000000E+02  0.51100000000E-03 0. -1.
    9900012    2    1    2    0    0  0.34830659989E+01 -0.80912905404E+01  0.30644797455E+02  0.59302198420E+02  0.50000463949E+02 0.  0.
         12    1    1    2    0    0 -0.34830659989E+01  0.80912905404E+01 -0.30644797455E+02  0.31885801580E+02  0.00000000000E+00 0. -1.
         11    1    3    3    0    0 -0.16445156888E+02 -0.59206209638E+01  0.25010434403E+02  0.30512600135E+02  0.51100000000E-03 0. -1.
        -11    1    3    3    0    0  0.14262132846E+02 -0.19404108585E+01  0.13067370574E+02  0.19440416703E+02  0.51100000000E-03 0.  1.
         12    1    3    3    0    0  0.56660900406E+01 -0.23025871813E+00 -0.74330075227E+01  0.93491815823E+01  0.00000000000E+00 0. -1.
</event>
<event>
 7    1  0.7578565E-012  0.5930188E+02  0.7816164E-02  0.1266605E+00
        -11   -1    0    0    0    0  0.00000000000E+00  0.00000000000E+00  0.45593999997E+02  0.45594000000E+02  0.51100000000E-03 0.  1.
         11   -1    0    0    0    0 -0.00000000000E+00 -0.00000000000E+00 -0.45593999997E+02  0.45594000000E+02  0.51100000000E-03 0. -1.
    9900012    2    1    2    0    0  0.15714561519E+02 -0.72582013984E+01  0.26778641016E+02  0.59301881611E+02  0.49999886167E+02 0.  0.
         12    1    1    2    0    0 -0.15714561519E+02  0.72582013984E+01 -0.26778641016E+02  0.31886118389E+02  0.00000000000E+00 0. -1.
         11    1    3    3    0    0  0.27829188880E+02  0.26178988916E+01  0.17402383579E+02  0.32926586565E+02  0.51100000000E-03 0. -1.
        -11    1    3    3    0    0 -0.94696050441E+01 -0.12786038062E+02  0.13361123675E+02  0.20776809551E+02  0.51100000000E-03 0.  1.
         12    1    3    3    0    0 -0.26450223172E+01  0.29099377721E+01 -0.39848662379E+01  0.55984854944E+01  0.00000000000E+00 0. -1.
</event>
<event>
 7    1  0.7578565E-012  0.5930196E+02  0.7816164E-02  0.1266605E+00
        -11   -1    0    0    0    0  0.00000000000E+00  0.00000000000E+00  0.45593999997E+02  0.45594000000E+02  0.51100000000E-03 0. -1.
         11   -1    0    0    0    0 -0.00000000000E+00 -0.00000000000E+00 -0.45593999997E+02  0.45594000000E+02  0.51100000000E-03 0.  1.
    9900012    2    1    2    0    0 -0.27024738539E+01 -0.31171576544E+02 -0.61440443444E+01  0.59301955559E+02  0.50000021030E+02 0.  0.
         12    1    1    2    0    0  0.27024738539E+01  0.31171576544E+02  0.61440443444E+01  0.31886044441E+02  0.00000000000E+00 0. -1.
         11    1    3    3    0    0  0.31472141320E+01 -0.54188633492E+00 -0.64115975099E+01  0.71629030765E+01  0.51100000000E-03 0. -1.
        -11    1    3    3    0    0 -0.16794082532E+02 -0.20712764917E+02 -0.15248530733E+02  0.30717707082E+02  0.51100000000E-03 0.  1.
        -12    1    3    3    0    0  0.10944394546E+02 -0.99169252929E+01  0.15516083899E+02  0.21421345401E+02  0.00000000000E+00 0.  1.
</event>
<event>
 7    1  0.7578565E-012  0.5930196E+02  0.7816164E-02  0.1266605E+00
        -11   -1    0    0    0    0  0.00000000000E+00  0.00000000000E+00  0.45593999997E+02  0.45594000000E+02  0.51100000000E-03 0. -1.
         11   -1    0    0    0    0 -0.00000000000E+00 -0.00000000000E+00 -0.45593999997E+02  0.45594000000E+02  0.51100000000E-03 0.  1.
    9900012    2    1    2    0    0  0.17671218143E+02 -0.20760925214E+02 -0.16535767739E+02  0.59301959463E+02  0.50000028151E+02 0.  0.
         12    1    1    2    0    0 -0.17671218143E+02  0.20760925214E+02  0.16535767739E+02  0.31886040537E+02  0.00000000000E+00 0. -1.
         11    1    3    3    0    0  0.21442749256E+02 -0.10607442259E+02  0.79630674190E+01  0.25213483891E+02  0.51100000000E-03 0. -1.
        -11    1    3    3    0    0  0.43774490467E+01 -0.13661708808E+02 -0.18358000083E+02  0.23298508858E+02  0.51100000000E-03 0.  1.
         12    1    3    3    0    0 -0.81489801597E+01  0.35082258527E+01 -0.61408350746E+01  0.10789966714E+02  0.00000000000E+00 0. -1.
</event>
<event>
 7    1  0.7578565E-012  0.5930190E+02  0.7816164E-02  0.1266605E+00
        -11   -1    0    0    0    0  0.00000000000E+00  0.00000000000E+00  0.45593999997E+02  0.45594000000E+02  0.51100000000E-03 0.  1.
         11   -1    0    0    0    0 -0.00000000000E+00 -0.00000000000E+00 -0.45593999997E+02  0.45594000000E+02  0.51100000000E-03 0. -1.
    9900012    2    1    2    0    0 -0.11066769045E+02  0.21918060418E+02  0.20343265621E+02  0.59301902627E+02  0.49999924495E+02 0.  0.
         12    1    1    2    0    0  0.11066769045E+02 -0.21918060418E+02 -0.20343265621E+02  0.31886097373E+02  0.00000000000E+00 0. -1.
         11    1    3    3    0    0  0.21954387162E+01  0.27064015098E+02  0.46964767409E+01  0.27556083873E+02  0.51100000000E-03 0. -1.
        -11    1    3    3    0    0 -0.23786958097E+01 -0.13595207308E+02  0.87050123822E+01  0.16317631456E+02  0.51100000000E-03 0.  1.
         12    1    3    3    0    0 -0.10883511951E+02  0.84492526270E+01  0.69417764975E+01  0.15428187298E+02  0.00000000000E+00 0. -1.
</event>
<event>
 7    1  0.7578565E-012  0.5930194E+02  0.7816164E-02  0.1266605E+00
        -11   -1    0    0    0    0  0.00000000000E+00  0.00000000000E+00  0.45593999997E+02  0.45594000000E+02  0.51100000000E-03 0. -1.
         11   -1    0    0    0    0 -0.00000000000E+00 -0.00000000000E+00 -0.45593999997E+02  0.45594000000E+02  0.51100000000E-03 0.  1.
    9900012    2    1    2    0    0  0.27285763998E+02  0.15604794247E+02  0.53570522928E+01  0.59301944589E+02  0.50000001023E+02 0.  0.
         12    1    1    2    0    0 -0.27285763998E+02 -0.15604794247E+02 -0.53570522928E+01  0.31886055411E+02  0.00000000000E+00 0. -1.
         11    1    3    3    0    0  0.27002280105E+02  0.23410411513E+02  0.17276836639E+02  0.39694578755E+02  0.51100000000E-03 0.  1.
        -11    1    3    3    0    0  0.44229853024E+00 -0.10802391779E+02 -0.12525192692E+02  0.16545928453E+02  0.51100000000E-03 0. -1.
         12    1    3    3    0    0 -0.15881463718E+00  0.29967745127E+01  0.60540834594E+00  0.30614373805E+01  0.00000000000E+00 0. -1.
</event>
<event>
 7    1  0.7578565E-012  0.5930191E+02  0.7816164E-02  0.1266605E+00
        -11   -1    0    0    0    0  0.00000000000E+00  0.00000000000E+00  0.45593999997E+02  0.45594000000E+02  0.51100000000E-03 0.  1.
         11   -1    0    0    0    0 -0.00000000000E+00 -0.00000000000E+00 -0.45593999997E+02  0.45594000000E+02  0.51100000000E-03 0. -1.
    9900012    2    1    2    0    0  0.26645842987E+02  0.34364973340E+01  0.17173015664E+02  0.59301906959E+02  0.49999932396E+02 0.  0.
         12    1    1    2    0    0 -0.26645842987E+02 -0.34364973340E+01 -0.17173015664E+02  0.31886093041E+02  0.00000000000E+00 0. -1.
         11    1    3    3    0    0  0.33617992698E+02 -0.74181471846E+01 -0.30963980110E+01  0.34565676929E+02  0.51100000000E-03 0. -1.
        -11    1    3    3    0    0 -0.63296658562E+01  0.11583402199E+02  0.18673817427E+02  0.22868129217E+02  0.51100000000E-03 0.  1.
         12    1    3    3    0    0 -0.64248385433E+00 -0.72875768036E+00  0.15955962480E+01  0.18681008127E+01  0.00000000000E+00 0. -1.
</event>
<event>
 7    1  0.7578565E-012  0.5930204E+02  0.7816164E-02  0.1266604E+00
        -11   -1    0    0    0    0  0.00000000000E+00  0.00000000000E+00  0.45593999997E+02  0.45594000000E+02  0.51100000000E-03 0.  1.
         11   -1    0    0    0    0 -0.00000000000E+00 -0.00000000000E+00 -0.45593999997E+02  0.45594000000E+02  0.51100000000E-03 0. -1.
    9900012    2    1    2    0    0  0.21368417807E+02 -0.36408345046E+00  0.23663735052E+02  0.59302043955E+02  0.50000182242E+02 0.  0.
         12    1    1    2    0    0 -0.21368417807E+02  0.36408345046E+00 -0.23663735052E+02  0.31885956045E+02  0.00000000000E+00 0. -1.
         11    1    3    3    0    0  0.29067635406E+00  0.38387362222E+01  0.16718208491E+01  0.41970672784E+01  0.51100000000E-03 0. -1.
        -11    1    3    3    0    0  0.16873917372E+02 -0.11842168219E+02  0.34301786544E+02  0.40019727585E+02  0.51100000000E-03 0.  1.
        -12    1    3    3    0    0  0.42038240807E+01  0.76393485462E+01 -0.12309872341E+02  0.15085249092E+02  0.00000000000E+00 0.  1.
</event>
<event>
 7    1  0.7578565E-012  0.5930190E+02  0.7816164E-02  0.1266605E+00
        -11   -1    0    0    0    0  0.00000000000E+00  0.00000000000E+00  0.45593999997E+02  0.45594000000E+02  0.51100000000E-03 0.  1.
         11   -1    0    0    0    0 -0.00000000000E+00 -0.00000000000E+00 -0.45593999997E+02  0.45594000000E+02  0.51100000000E-03 0. -1.
    9900012    2    1    2    0    0 -0.24609599102E+02 -0.61830611958E+01  0.19309600885E+02  0.59301901147E+02  0.49999921796E+02 0.  0.
         12    1    1    2    0    0  0.24609599102E+02  0.61830611958E+01 -0.19309600885E+02  0.31886098853E+02  0.00000000000E+00 0. -1.
         11    1    3    3    0    0  0.56944065391E+01 -0.48128465598E+01  0.66362788918E+01  0.99814806332E+01  0.51100000000E-03 0. -1.
        -11    1    3    3    0    0 -0.23946308804E+02 -0.14818312516E+02 -0.22493795726E+01  0.28250093803E+02  0.51100000000E-03 0.  1.
        -12    1    3    3    0    0 -0.63576968368E+01  0.13448097880E+02  0.14922701566E+02  0.21070326710E+02  0.00000000000E+00 0.  1.
</event>
<event>
 7    1  0.1067140E-011  0.5930188E+02  0.7816164E-02  0.1266605E+00
        -11   -1    0    0    0    0  0.00000000000E+00  0.00000000000E+00  0.45593999997E+02  0.45594000000E+02  0.51100000000E-03 0. -1.
         11   -1    0    0    0    0 -0.00000000000E+00 -0.00000000000E+00 -0.45593999997E+02  0.45594000000E+02  0.51100000000E-03 0.  1.
    9900012    2    1    2    0    0  0.18792495012E+02 -0.22169174535E+02  0.13118470703E+02  0.59301883241E+02  0.49999889140E+02 0.  0.
         12    1    1    2    0    0 -0.18792495012E+02  0.22169174535E+02 -0.13118470703E+02  0.31886116759E+02  0.00000000000E+00 0. -1.
         11    1    3    3    0    0  0.45859143959E+01  0.10224975597E+02 -0.39729323483E+01  0.11889698419E+02  0.51100000000E-03 0. -1.
        -11    1    3    3    0    0  0.21459065230E+02 -0.22304889097E+02  0.16250700685E+02  0.34958329926E+02  0.51100000000E-03 0.  1.
         12    1    3    3    0    0 -0.72524846138E+01 -0.10089261035E+02  0.84070236616E+00  0.12453854896E+02  0.00000000000E+00 0. -1.
</event>
<event>
 7    1  0.7578565E-012  0.5930194E+02  0.7816164E-02  0.1266605E+00
        -11   -1    0    0    0    0  0.00000000000E+00  0.00000000000E+00  0.45593999997E+02  0.45594000000E+02  0.51100000000E-03 0.  1.
         11   -1    0    0    0    0 -0.00000000000E+00 -0.00000000000E+00 -0.45593999997E+02  0.45594000000E+02  0.51100000000E-03 0. -1.
    9900012    2    1    2    0    0 -0.21475094910E+02 -0.24444190178E+01  0.23442820527E+02  0.59301941604E+02  0.49999995580E+02 0.  0.
         12    1    1    2    0    0  0.21475094910E+02  0.24444190178E+01 -0.23442820527E+02  0.31886058396E+02  0.00000000000E+00 0. -1.
         11    1    3    3    0    0 -0.60773320139E+01 -0.87063620934E+01 -0.16653385323E+01  0.10747467515E+02  0.51100000000E-03 0. -1.
        -11    1    3    3    0    0 -0.25774517852E+01  0.17657485662E+02  0.25820649714E+02  0.31386876390E+02  0.51100000000E-03 0.  1.
        -12    1    3    3    0    0 -0.12820311111E+02 -0.11395542586E+02 -0.71249065464E+00  0.17167597699E+02  0.00000000000E+00 0.  1.
</event>
<event>
 7    1  0.7578565E-012  0.5930196E+02  0.7816164E-02  0.1266605E+00
        -11   -1    0    0    0    0  0.00000000000E+00  0.00000000000E+00  0.45593999997E+02  0.45594000000E+02  0.51100000000E-03 0. -1.
         11   -1    0    0    0    0 -0.00000000000E+00 -0.00000000000E+00 -0.45593999997E+02  0.45594000000E+02  0.51100000000E-03 0.  1.
    9900012    2    1    2    0    0  0.12436254804E+02  0.27253467825E+02 -0.10922793152E+02  0.59301963051E+02  0.50000034695E+02 0.  0.
         12    1    1    2    0    0 -0.12436254804E+02 -0.27253467825E+02  0.10922793152E+02  0.31886036949E+02  0.00000000000E+00 0. -1.
         11    1    3    3    0    0 -0.79627192223E+01 -0.58651309602E+01  0.80622241772E+01  0.12759471679E+02  0.51100000000E-03 0. -1.
        -11    1    3    3    0    0  0.10692044745E+02  0.30006997515E+02 -0.17173414325E+02  0.36189306162E+02  0.51100000000E-03 0.  1.
        -12    1    3    3    0    0  0.97069292813E+01  0.31116012706E+01 -0.18116030044E+01  0.10353185210E+02  0.00000000000E+00 0.  1.
</event>
<event>
 7    1  0.7578565E-012  0.5930168E+02  0.7816164E-02  0.1266606E+00
        -11   -1    0    0    0    0  0.00000000000E+00  0.00000000000E+00  0.45593999997E+02  0.45594000000E+02  0.51100000000E-03 0.  1.
         11   -1    0    0    0    0 -0.00000000000E+00 -0.00000000000E+00 -0.45593999997E+02  0.45594000000E+02  0.51100000000E-03 0. -1.
    9900012    2    1    2    0    0 -0.20794570174E+01 -0.77085138973E+01  0.30870569470E+02  0.59301680247E+02  0.49999518925E+02 0.  0.
         12    1    1    2    0    0  0.20794570174E+01  0.77085138973E+01 -0.30870569470E+02  0.31886319753E+02  0.00000000000E+00 0. -1.
         11    1    3    3    0    0  0.16564557009E+02 -0.15595634804E+02  0.30492064432E+01  0.22954433865E+02  0.51100000000E-03 0. -1.
        -11    1    3    3    0    0 -0.16139262923E+02  0.89712487717E+01  0.16702965120E+02  0.24898758127E+02  0.51100000000E-03 0.  1.
         12    1    3    3    0    0 -0.25047511039E+01 -0.10841278647E+01  0.11118397907E+02  0.11448488255E+02  0.00000000000E+00 0. -1.
</event>
<event>
 7    1  0.7578565E-012  0.5930195E+02  0.7816164E-02  0.1266605E+00
        -11   -1    0    0    0    0  0.00000000000E+00  0.00000000000E+00  0.45593999997E+02  0.45594000000E+02  0.51100000000E-03 0. -1.
         11   -1    0    0    0    0 -0.00000000000E+00 -0.00000000000E+00 -0.45593999997E+02  0.45594000000E+02  0.51100000000E-03 0.  1.
    9900012    2    1    2    0    0 -0.26248990568E+02  0.12872290314E+02 -0.12728494696E+02  0.59301953820E+02  0.50000017858E+02 0.  0.
         12    1    1    2    0    0  0.26248990568E+02 -0.12872290314E+02  0.12728494696E+02  0.31886046180E+02  0.00000000000E+00 0. -1.
         11    1    3    3    0    0 -0.21854261110E+02 -0.99858012970E+01 -0.17109189126E+02  0.29496598262E+02  0.51100000000E-03 0.  1.
        -11    1    3    3    0    0 -0.41180968836E+01  0.22713254758E+02 -0.22265909833E+01  0.23190695791E+02  0.51100000000E-03 0. -1.
        -12    1    3    3    0    0 -0.27663257422E+00  0.14483685372E+00  0.66072854131E+01  0.66146597664E+01  0.00000000000E+00 0.  1.
</event>
<event>
 7    1  0.7578565E-012  0.5930199E+02  0.7816164E-02  0.1266605E+00
        -11   -1    0    0    0    0  0.00000000000E+00  0.00000000000E+00  0.45593999997E+02  0.45594000000E+02  0.51100000000E-03 0. -1.
         11   -1    0    0    0    0 -0.00000000000E+00 -0.00000000000E+00 -0.45593999997E+02  0.45594000000E+02  0.51100000000E-03 0.  1.
    9900012    2    1    2    0    0 -0.28728268998E+01  0.28116961391E+02 -0.14761461129E+02  0.59301993870E+02  0.50000090900E+02 0.  0.
         12    1    1    2    0    0  0.28728268998E+01 -0.28116961391E+02  0.14761461129E+02  0.31886006130E+02  0.00000000000E+00 0. -1.
         11    1    3    3    0    0 -0.11560445699E+02 -0.47635660609E+01  0.37980801823E+01  0.13067550640E+02  0.51100000000E-03 0. -1.
        -11    1    3    3    0    0  0.11965035578E+02  0.17101053463E+02 -0.21374330809E+02  0.29874238463E+02  0.51100000000E-03 0.  1.
        -12    1    3    3    0    0 -0.32774167784E+01  0.15779473989E+02  0.28147894983E+01  0.16360204767E+02  0.00000000000E+00 0.  1.
</event>
<event>
 7    1  0.7578565E-012  0.5930194E+02  0.7816164E-02  0.1266605E+00
        -11   -1    0    0    0    0  0.00000000000E+00  0.00000000000E+00  0.45593999997E+02  0.45594000000E+02  0.51100000000E-03 0.  1.
         11   -1    0    0    0    0 -0.00000000000E+00 -0.00000000000E+00 -0.45593999997E+02  0.45594000000E+02  0.51100000000E-03 0. -1.
    9900012    2    1    2    0    0 -0.26619689510E+02 -0.37183933470E+01  0.17154776319E+02  0.59301942401E+02  0.49999997033E+02 0.  0.
         12    1    1    2    0    0  0.26619689510E+02  0.37183933470E+01 -0.17154776319E+02  0.31886057599E+02  0.00000000000E+00 0. -1.
         11    1    3    3    0    0 -0.20254451027E+02  0.11482632937E+02 -0.14834589669E+01  0.23330115652E+02  0.51100000000E-03 0. -1.
        -11    1    3    3    0    0  0.94211669561E+01 -0.91439413632E+01  0.12064453016E+02  0.17830341480E+02  0.51100000000E-03 0.  1.
        -12    1    3    3    0    0 -0.15786405438E+02 -0.60570849207E+01  0.65737822702E+01  0.18141485268E+02  0.00000000000E+00 0.  1.
</event>
<event>
 7    1  0.7578565E-012  0.5930195E+02  0.7816164E-02  0.1266605E+00
        -11   -1    0    0    0    0  0.00000000000E+00  0.00000000000E+00  0.45593999997E+02  0.45594000000E+02  0.51100000000E-03 0. -1.
         11   -1    0    0    0    0 -0.00000000000E+00 -0.00000000000E+00 -0.45593999997E+02  0.45594000000E+02  0.51100000000E-03 0.  1.
    9900012    2    1    2    0    0 -0.15108205756E+02  0.22949805146E+02 -0.16179265078E+02  0.59301952018E+02  0.50000014572E+02 0.  0.
         12    1    1    2    0    0  0.15108205756E+02 -0.22949805146E+02  0.16179265078E+02  0.31886047982E+02  0.00000000000E+00 0. -1.
         11    1    3    3    0    0 -0.23614775249E+02  0.21966839230E+02  0.71628727126E+00  0.32260079100E+02  0.51100000000E-03 0. -1.
        -11    1    3    3    0    0 -0.25355072890E+01 -0.36168903154E+01 -0.14075204604E+02  0.14752019444E+02  0.51100000000E-03 0.  1.
         12    1    3    3    0    0  0.11042076782E+02  0.45998562319E+01 -0.28203477454E+01  0.12289853474E+02  0.00000000000E+00 0. -1.
</event>
<event>
 7    1  0.7578565E-012  0.5930194E+02  0.7816164E-02  0.1266605E+00
        -11   -1    0    0    0    0  0.00000000000E+00  0.00000000000E+00  0.45593999997E+02  0.45594000000E+02  0.51100000000E-03 0. -1.
         11   -1    0    0    0    0 -0.00000000000E+00 -0.00000000000E+00 -0.45593999997E+02  0.45594000000E+02  0.51100000000E-03 0.  1.
    9900012    2    1    2    0    0 -0.22768372629E+02  0.22309280941E+02 -0.78616287599E+00  0.59301939404E+02  0.49999991567E+02 0.  0.
         12    1    1    2    0    0  0.22768372629E+02 -0.22309280941E+02  0.78616287599E+00  0.31886060596E+02  0.00000000000E+00 0. -1.
         11    1    3    3    0    0 -0.14015158429E+02  0.24040121741E+02 -0.41860621238E+01  0.28140277814E+02  0.51100000000E-03 0. -1.
        -11    1    3    3    0    0 -0.17633755045E+02 -0.64283927884E+01 -0.33400327811E+01  0.19063823595E+02  0.51100000000E-03 0.  1.
        -12    1    3    3    0    0  0.88805408450E+01  0.46975519889E+01  0.67399320290E+01  0.12097837995E+02  0.00000000000E+00 0.  1.
</event>
<event>
 7    1  0.7578565E-012  0.5930176E+02  0.7816164E-02  0.1266605E+00
        -11   -1    0    0    0    0  0.00000000000E+00  0.00000000000E+00  0.45593999997E+02  0.45594000000E+02  0.51100000000E-03 0.  1.
         11   -1    0    0    0    0 -0.00000000000E+00 -0.00000000000E+00 -0.45593999997E+02  0.45594000000E+02  0.51100000000E-03 0. -1.
    9900012    2    1    2    0    0 -0.11975373627E+02  0.57266797497E+01  0.28991863915E+02  0.59301755196E+02  0.49999655615E+02 0.  0.
         12    1    1    2    0    0  0.11975373627E+02 -0.57266797497E+01 -0.28991863915E+02  0.31886244804E+02  0.00000000000E+00 0. -1.
         11    1    3    3    0    0  0.16557328244E+02 -0.39411739053E+01  0.11016122455E+02  0.20273946940E+02  0.51100000000E-03 0. -1.
        -11    1    3    3    0    0 -0.10334838483E+02  0.28695880539E+01 -0.22765569352E+01  0.10964767841E+02  0.51100000000E-03 0.  1.
         12    1    3    3    0    0 -0.18197863388E+02  0.67982656010E+01  0.20252298395E+02  0.28063040415E+02  0.00000000000E+00 0. -1.
</event>
<event>
 7    1  0.7578565E-012  0.5930194E+02  0.7816164E-02  0.1266605E+00
        -11   -1    0    0    0    0  0.00000000000E+00  0.00000000000E+00  0.45593999997E+02  0.45594000000E+02  0.51100000000E-03 0.  1.
         11   -1    0    0    0    0 -0.00000000000E+00 -0.00000000000E+00 -0.45593999997E+02  0.45594000000E+02  0.51100000000E-03 0. -1.
    9900012    2    1    2    0    0  0.66339896995E+01  0.13010488305E+02  0.28344988310E+02  0.59301937409E+02  0.49999987929E+02 0.  0.
         12    1    1    2    0    0 -0.66339896995E+01 -0.13010488305E+02 -0.28344988310E+02  0.31886062591E+02  0.00000000000E+00 0. -1.
         11    1    3    3    0    0  0.17034949718E+02 -0.89149975265E+01  0.19368675977E+02  0.27291249553E+02  0.51100000000E-03 0. -1.
        -11    1    3    3    0    0 -0.69528963403E+00  0.53732137718E+01  0.11446857430E+02  0.12664335719E+02  0.51100000000E-03 0.  1.
         12    1    3    3    0    0 -0.97056703839E+01  0.16552272060E+02 -0.24705450977E+01  0.19346352138E+02  0.00000000000E+00 0. -1.
</event>
<event>
 7    1  0.7578565E-012  0.5930195E+02  0.7816164E-02  0.1266605E+00
        -11   -1    0    0    0    0  0.00000000000E+00  0.00000000000E+00  0.45593999997E+02  0.45594000000E+02  0.51100000000E-03 0. -1.
         11   -1    0    0    0    0 -0.00000000000E+00 -0.00000000000E+00 -0.45593999997E+02  0.45594000000E+02  0.51100000000E-03 0.  1.
    9900012    2    1    2    0    0  0.27651435634E+02  0.59778967310E+01 -0.14709966020E+02  0.59301949096E+02  0.50000009243E+02 0.  0.
         12    1    1    2    0    0 -0.27651435634E+02 -0.59778967310E+01  0.14709966020E+02  0.31886050904E+02  0.00000000000E+00 0. -1.
         11    1    3    3    0    0 -0.29414795285E+01  0.23856190408E+01  0.34112079343E+00  0.38026101143E+01  0.51100000000E-03 0. -1.
        -11    1    3    3    0    0  0.13449886283E+02 -0.14891452027E+02 -0.21569890919E+02  0.29460396790E+02  0.51100000000E-03 0.  1.
        -12    1    3    3    0    0  0.17143028880E+02  0.18483729718E+02  0.65188041060E+01  0.26038942191E+02  0.00000000000E+00 0.  1.
</event>
<event>
 7    1  0.7578565E-012  0.5930194E+02  0.7816164E-02  0.1266605E+00
        -11   -1    0    0    0    0  0.00000000000E+00  0.00000000000E+00  0.45593999997E+02  0.45594000000E+02  0.51100000000E-03 0.  1.
         11   -1    0    0    0    0 -0.00000000000E+00 -0.00000000000E+00 -0.45593999997E+02  0.45594000000E+02  0.51100000000E-03 0. -1.
    9900012    2    1    2    0    0  0.19485208548E+02  0.15943078092E+02  0.19566950157E+02  0.59301943021E+02  0.49999998164E+02 0.  0.
         12    1    1    2    0    0 -0.19485208548E+02 -0.15943078092E+02 -0.19566950157E+02  0.31886056979E+02  0.00000000000E+00 0. -1.
         11    1    3    3    0    0 -0.89907593953E+01  0.23938919904E+01  0.15891850191E+02  0.18415085558E+02  0.51100000000E-03 0.  1.
        -11    1    3    3    0    0  0.24606565664E+02  0.12587998355E+02 -0.78163197476E+01  0.28723433482E+02  0.51100000000E-03 0. -1.
        -12    1    3    3    0    0  0.38694022790E+01  0.96118774740E+00  0.11491419714E+02  0.12163423980E+02  0.00000000000E+00 0.  1.
</event>
<event>
 7    1  0.7578565E-012  0.5930196E+02  0.7816164E-02  0.1266605E+00
        -11   -1    0    0    0    0  0.00000000000E+00  0.00000000000E+00  0.45593999997E+02  0.45594000000E+02  0.51100000000E-03 0.  1.
         11   -1    0    0    0    0 -0.00000000000E+00 -0.00000000000E+00 -0.45593999997E+02  0.45594000000E+02  0.51100000000E-03 0. -1.
    9900012    2    1    2    0    0  0.17706358108E+02  0.26189032190E+02  0.41639773494E+01  0.59301964940E+02  0.50000038138E+02 0.  0.
         12    1    1    2    0    0 -0.17706358108E+02 -0.26189032190E+02 -0.41639773494E+01  0.31886035060E+02  0.00000000000E+00 0. -1.
         11    1    3    3    0    0  0.63392833240E+01 -0.12188345320E+02 -0.63125909568E+01  0.15119228802E+02  0.51100000000E-03 0. -1.
        -11    1    3    3    0    0  0.10896179264E+02  0.24667038101E+02  0.74560433142E-01  0.26966554299E+02  0.51100000000E-03 0.  1.
         12    1    3    3    0    0  0.47089551941E+00  0.13710339409E+02  0.10402007873E+02  0.17216181839E+02  0.00000000000E+00 0. -1.
</event>
<event>
 7    1  0.7578565E-012  0.5930195E+02  0.7816164E-02  0.1266605E+00
        -11   -1    0    0    0    0  0.00000000000E+00  0.00000000000E+00  0.45593999997E+02  0.45594000000E+02  0.51100000000E-03 0.  1.
         11   -1    0    0    0    0 -0.00000000000E+00 -0.00000000000E+00 -0.45593999997E+02  0.45594000000E+02  0.51100000000E-03 0. -1.
    9900012    2    1    2    0    0  0.12107612333E+02  0.63890079922E+01  0.28797678139E+02  0.59301953432E+02  0.50000017151E+02 0.  0.
         12    1    1    2    0    0 -0.12107612333E+02 -0.63890079922E+01 -0.28797678139E+02  0.31886046568E+02  0.00000000000E+00 0. -1.
         11    1    3    3    0    0 -0.63339368712E+01 -0.16333571521E+02  0.17811130673E+02  0.24982807910E+02  0.51100000000E-03 0. -1.
        -11    1    3    3    0    0  0.10785444382E+02  0.40998367652E+01  0.34184775049E+00  0.11543454083E+02  0.51100000000E-03 0.  1.
         12    1    3    3    0    0  0.76561048214E+01  0.18622742748E+02  0.10644699715E+02  0.22775691439E+02  0.00000000000E+00 0. -1.
</event>
<event>
 7    1  0.7578565E-012  0.5930196E+02  0.7816164E-02  0.1266605E+00
        -11   -1    0    0    0    0  0.00000000000E+00  0.00000000000E+00  0.45593999997E+02  0.45594000000E+02  0.51100000000E-03 0.  1.
         11   -1    0    0    0    0 -0.00000000000E+00 -0.00000000000E+00 -0.45593999997E+02  0.45594000000E+02  0.51100000000E-03 0. -1.
    9900012    2    1    2    0    0 -0.18189027518E+02 -0.36153638001E+01  0.25938540444E+02  0.59301961396E+02  0.50000031676E+02 0.  0.
         12    1    1    2    0    0  0.18189027518E+02  0.36153638001E+01 -0.25938540444E+02  0.31886038604E+02  0.00000000000E+00 0. -1.
         11    1    3    3    0    0 -0.38000637577E+01  0.21857562913E+02  0.12015565789E+02  0.25230286613E+02  0.51100000000E-03 0. -1.
        -11    1    3    3    0    0 -0.32044279679E+01 -0.10154226869E+02  0.18080169415E+00  0.10649383617E+02  0.51100000000E-03 0.  1.
         12    1    3    3    0    0 -0.11184535792E+02 -0.15318699844E+02  0.13742172961E+02  0.23422291167E+02  0.00000000000E+00 0. -1.
</event>
<event>
 7    1  0.7578565E-012  0.5930190E+02  0.7816164E-02  0.1266605E+00
        -11   -1    0    0    0    0  0.00000000000E+00  0.00000000000E+00  0.45593999997E+02  0.45594000000E+02  0.51100000000E-03 0. -1.
         11   -1    0    0    0    0 -0.00000000000E+00 -0.00000000000E+00 -0.45593999997E+02  0.45594000000E+02  0.51100000000E-03 0.  1.
    9900012    2    1    2    0    0 -0.50664616293E+00 -0.17366710842E+02 -0.26736938478E+02  0.59301902481E+02  0.49999924229E+02 0.  0.
         12    1    1    2    0    0  0.50664616293E+00  0.17366710842E+02  0.26736938478E+02  0.31886097519E+02  0.00000000000E+00 0. -1.
         11    1    3    3    0    0  0.67274428783E+01 -0.13878371798E+01  0.12874831454E+02  0.14592664765E+02  0.51100000000E-03 0. -1.
        -11    1    3    3    0    0 -0.71061399973E+01 -0.35690526969E+01 -0.19726762051E+02  0.21269238447E+02  0.51100000000E-03 0.  1.
        -12    1    3    3    0    0 -0.12794904393E+00 -0.12409820965E+02 -0.19885007881E+02  0.23439999269E+02  0.00000000000E+00 0.  1.
</event>
<event>
 7    1  0.7578565E-012  0.5930191E+02  0.7816164E-02  0.1266605E+00
        -11   -1    0    0    0    0  0.00000000000E+00  0.00000000000E+00  0.45593999997E+02  0.45594000000E+02  0.51100000000E-03 0.  1.
         11   -1    0    0    0    0 -0.00000000000E+00 -0.00000000000E+00 -0.45593999997E+02  0.45594000000E+02  0.51100000000E-03 0. -1.
    9900012    2    1    2    0    0  0.20691520892E+02  0.15520314132E+02 -0.18646814839E+02  0.59301907558E+02  0.49999933488E+02 0.  0.
         12    1    1    2    0    0 -0.20691520892E+02 -0.15520314132E+02  0.18646814839E+02  0.31886092442E+02  0.00000000000E+00 0. -1.
         11    1    3    3    0    0 -0.21827520250E+01 -0.46844260061E+00  0.39808819264E+01  0.45641281802E+01  0.51100000000E-03 0. -1.
        -11    1    3    3    0    0  0.23347877899E+02  0.10909399647E+02 -0.33771862459E+02  0.42481491232E+02  0.51100000000E-03 0.  1.
        -12    1    3    3    0    0 -0.47360498173E+00  0.50793570856E+01  0.11144165694E+02  0.12256288145E+02  0.00000000000E+00 0.  1.
</event>
<event>
 7    1  0.7578565E-012  0.5930189E+02  0.7816164E-02  0.1266605E+00
        -11   -1    0    0    0    0  0.00000000000E+00  0.00000000000E+00  0.45593999997E+02  0.45594000000E+02  0.51100000000E-03 0. -1.
         11   -1    0    0    0    0 -0.00000000000E+00 -0.00000000000E+00 -0.45593999997E+02  0.45594000000E+02  0.51100000000E-03 0.  1.
    9900012    2    1    2    0    0 -0.43344587082E+01  0.98843072909E+01 -0.30003946841E+02  0.59301891912E+02  0.49999904954E+02 0.  0.
         12    1    1    2    0    0  0.43344587082E+01 -0.98843072909E+01  0.30003946841E+02  0.31886108088E+02  0.00000000000E+00 0. -1.
         11    1    3    3    0    0 -0.14805165029E+02  0.19014151647E+02 -0.90697062510E+01  0.25748600858E+02  0.51100000000E-03 0. -1.
        -11    1    3    3    0    0  0.19095490940E+01 -0.14743058072E+02 -0.74650605713E+01  0.16635241767E+02  0.51100000000E-03 0.  1.
         12    1    3    3    0    0  0.85611572274E+01  0.56132137155E+01 -0.13469180019E+02  0.16918049287E+02  0.00000000000E+00 0. -1.
</event>
<event>
 7    1  0.7578565E-012  0.5930195E+02  0.7816164E-02  0.1266605E+00
        -11   -1    0    0    0    0  0.00000000000E+00  0.00000000000E+00  0.45593999997E+02  0.45594000000E+02  0.51100000000E-03 0.  1.
         11   -1    0    0    0    0 -0.00000000000E+00 -0.00000000000E+00 -0.45593999997E+02  0.45594000000E+02  0.51100000000E-03 0. -1.
    9900012    2    1    2    0    0  0.28533788945E+02  0.10316877146E+02  0.98033199636E+01  0.59301950575E+02  0.50000011941E+02 0.  0.
         12    1    1    2    0    0 -0.28533788945E+02 -0.10316877146E+02 -0.98033199636E+01  0.31886049425E+02  0.00000000000E+00 0. -1.
         11    1    3    3    0    0  0.26551319747E+02  0.16028650629E+02 -0.11204465524E+02  0.32976207624E+02  0.51100000000E-03 0. -1.
        -11    1    3    3    0    0 -0.14307017570E+01 -0.40534437637E+01  0.21989828680E+02  0.22406023286E+02  0.51100000000E-03 0.  1.
        -12    1    3    3    0    0  0.34131709552E+01 -0.16583297192E+01 -0.98204319210E+00  0.39197196657E+01  0.00000000000E+00 0.  1.
</event>
<event>
 7    1  0.7578565E-012  0.5930196E+02  0.7816164E-02  0.1266605E+00
        -11   -1    0    0    0    0  0.00000000000E+00  0.00000000000E+00  0.45593999997E+02  0.45594000000E+02  0.51100000000E-03 0.  1.
         11   -1    0    0    0    0 -0.00000000000E+00 -0.00000000000E+00 -0.45593999997E+02  0.45594000000E+02  0.51100000000E-03 0. -1.
    9900012    2    1    2    0    0  0.15123820459E+02 -0.60820900336E+01  0.27404334323E+02  0.59301963806E+02  0.50000036071E+02 0.  0.
         12    1    1    2    0    0 -0.15123820459E+02  0.60820900336E+01 -0.27404334323E+02  0.31886036194E+02  0.00000000000E+00 0. -1.
         11    1    3    3    0    0  0.17138865885E+02  0.19900729818E+01  0.12357633459E+02  0.21222917312E+02  0.51100000000E-03 0. -1.
        -11    1    3    3    0    0 -0.11242701639E+02 -0.12455421463E+02 -0.32807124064E+01  0.17096752268E+02  0.51100000000E-03 0.  1.
        -12    1    3    3    0    0  0.92276562129E+01  0.43832584471E+01  0.18327413271E+02  0.20982294226E+02  0.00000000000E+00 0.  1.
</event>
<event>
 7    1  0.7578565E-012  0.5930194E+02  0.7816164E-02  0.1266605E+00
        -11   -1    0    0    0    0  0.00000000000E+00  0.00000000000E+00  0.45593999997E+02  0.45594000000E+02  0.51100000000E-03 0.  1.
         11   -1    0    0    0    0 -0.00000000000E+00 -0.00000000000E+00 -0.45593999997E+02  0.45594000000E+02  0.51100000000E-03 0. -1.
    9900012    2    1    2    0    0  0.23700720936E+02 -0.11059630207E+02  0.18239552480E+02  0.59301939285E+02  0.49999991351E+02 0.  0.
         12    1    1    2    0    0 -0.23700720936E+02  0.11059630207E+02 -0.18239552480E+02  0.31886060715E+02  0.00000000000E+00 0. -1.
         11    1    3    3    0    0 -0.12503150958E+02  0.26436018703E+01  0.76285753238E+01  0.14883298575E+02  0.51100000000E-03 0. -1.
        -11    1    3    3    0    0  0.31560628674E+02 -0.89601124508E+01  0.15391407822E+02  0.36238823552E+02  0.51100000000E-03 0.  1.
        -12    1    3    3    0    0  0.46432432211E+01 -0.47431196270E+01 -0.47804306658E+01  0.81798171591E+01  0.00000000000E+00 0.  1.
</event>
<event>
 7    1  0.7578565E-012  0.5930193E+02  0.7816164E-02  0.1266605E+00
        -11   -1    0    0    0    0  0.00000000000E+00  0.00000000000E+00  0.45593999997E+02  0.45594000000E+02  0.51100000000E-03 0. -1.
         11   -1    0    0    0    0 -0.00000000000E+00 -0.00000000000E+00 -0.45593999997E+02  0.45594000000E+02  0.51100000000E-03 0.  1.
    9900012    2    1    2    0    0 -0.58622181161E+01  0.10074850066E+02 -0.29679172395E+02  0.59301929700E+02  0.49999973870E+02 0.  0.
         12    1    1    2    0    0  0.58622181161E+01 -0.10074850066E+02  0.29679172395E+02  0.31886070300E+02  0.00000000000E+00 0. -1.
         11    1    3    3    0    0 -0.18985932545E+02 -0.56638435508E+00  0.35628879641E+01  0.19325646088E+02  0.51100000000E-03 0. -1.
        -11    1    3    3    0    0  0.69747315487E+01 -0.87516106770E+00 -0.20745857335E+02  0.21904414712E+02  0.51100000000E-03 0.  1.
        -12    1    3    3    0    0  0.61489828798E+01  0.11516395489E+02 -0.12496203024E+02  0.18071868900E+02  0.00000000000E+00 0.  1.
</event>
<event>
 7    1  0.7578565E-012  0.5930195E+02  0.7816164E-02  0.1266605E+00
        -11   -1    0    0    0    0  0.00000000000E+00  0.00000000000E+00  0.45593999997E+02  0.45594000000E+02  0.51100000000E-03 0. -1.
         11   -1    0    0    0    0 -0.00000000000E+00 -0.00000000000E+00 -0.45593999997E+02  0.45594000000E+02  0.51100000000E-03 0.  1.
    9900012    2    1    2    0    0  0.17977900204E+02 -0.19503631141E+02  0.17695295651E+02  0.59301952713E+02  0.50000015839E+02 0.  0.
         12    1    1    2    0    0 -0.17977900204E+02  0.19503631141E+02 -0.17695295651E+02  0.31886047287E+02  0.00000000000E+00 0. -1.
         11    1    3    3    0    0 -0.78620528671E+01 -0.15062758622E+02 -0.25333801738E+01  0.17178957709E+02  0.51100000000E-03 0.  1.
        -11    1    3    3    0    0  0.14370727807E+02  0.10726135978E+02  0.99024948865E+01  0.20484804514E+02  0.51100000000E-03 0. -1.
        -12    1    3    3    0    0  0.11469225264E+02 -0.15167008497E+02  0.10326180939E+02  0.21638190490E+02  0.00000000000E+00 0.  1.
</event>
<event>
 7    1  0.7578565E-012  0.5930194E+02  0.7816164E-02  0.1266605E+00
        -11   -1    0    0    0    0  0.00000000000E+00  0.00000000000E+00  0.45593999997E+02  0.45594000000E+02  0.51100000000E-03 0.  1.
         11   -1    0    0    0    0 -0.00000000000E+00 -0.00000000000E+00 -0.45593999997E+02  0.45594000000E+02  0.51100000000E-03 0. -1.
    9900012    2    1    2    0    0  0.16552394260E+02 -0.20521124334E+02  0.17933836056E+02  0.59301940737E+02  0.49999993998E+02 0.  0.
         12    1    1    2    0    0 -0.16552394260E+02  0.20521124334E+02 -0.17933836056E+02  0.31886059263E+02  0.00000000000E+00 0. -1.
         11    1    3    3    0    0  0.98146294470E+00 -0.21376725587E+01 -0.15084702542E+02  0.15266995923E+02  0.51100000000E-03 0. -1.
        -11    1    3    3    0    0  0.17842747635E+02 -0.17848386372E+02  0.33189194609E+02  0.41694738017E+02  0.51100000000E-03 0.  1.
        -12    1    3    3    0    0 -0.22718163198E+01 -0.53506540365E+00 -0.17065601120E+00  0.23402067967E+01  0.00000000000E+00 0.  1.
</event>
<event>
 7    1  0.7578565E-012  0.5930193E+02  0.7816164E-02  0.1266605E+00
        -11   -1    0    0    0    0  0.00000000000E+00  0.00000000000E+00  0.45593999997E+02  0.45594000000E+02  0.51100000000E-03 0.  1.
         11   -1    0    0    0    0 -0.00000000000E+00 -0.00000000000E+00 -0.45593999997E+02  0.45594000000E+02  0.51100000000E-03 0. -1.
    9900012    2    1    2    0    0 -0.15178750411E+02 -0.98052042004E+01  0.26271367084E+02  0.59301933734E+02  0.49999981227E+02 0.  0.
         12    1    1    2    0    0  0.15178750411E+02  0.98052042004E+01 -0.26271367084E+02  0.31886066266E+02  0.00000000000E+00 0. -1.
         11    1    3    3    0    0  0.79335470695E+01 -0.50238100369E+01 -0.74535657167E+00  0.94199465535E+01  0.51100000000E-03 0. -1.
        -11    1    3    3    0    0 -0.15740922892E+01  0.66354770991E+01  0.24434793139E+02  0.25368611291E+02  0.51100000000E-03 0.  1.
        -12    1    3    3    0    0 -0.21538205192E+02 -0.11416871263E+02  0.25819305170E+01  0.24513375889E+02  0.00000000000E+00 0.  1.
</event>
<event>
 7    1  0.7578565E-012  0.5930193E+02  0.7816164E-02  0.1266605E+00
        -11   -1    0    0    0    0  0.00000000000E+00  0.00000000000E+00  0.45593999997E+02  0.45594000000E+02  0.51100000000E-03 0.  1.
         11   -1    0    0    0    0 -0.00000000000E+00 -0.00000000000E+00 -0.45593999997E+02  0.45594000000E+02  0.51100000000E-03 0. -1.
    9900012    2    1    2    0    0 -0.19435151824E+02  0.15086366053E+02  0.20282938362E+02  0.59301934772E+02  0.49999983120E+02 0.  0.
         12    1    1    2    0    0  0.19435151824E+02 -0.15086366053E+02 -0.20282938362E+02  0.31886065228E+02  0.00000000000E+00 0. -1.
         11    1    3    3    0    0  0.39320229127E+01  0.53325329413E+01  0.14810656405E+02  0.16225050236E+02  0.51100000000E-03 0. -1.
        -11    1    3    3    0    0 -0.21938192102E+02 -0.50131425303E+01 -0.71349874288E+01  0.23607708839E+02  0.51100000000E-03 0.  1.
        -12    1    3    3    0    0 -0.14289826347E+01  0.14766975642E+02  0.12607269386E+02  0.19469175698E+02  0.00000000000E+00 0.  1.
</event>
<event>
 7    1  0.7578565E-012  0.5930195E+02  0.7816164E-02  0.1266605E+00
        -11   -1    0    0    0    0  0.00000000000E+00  0.00000000000E+00  0.45593999997E+02  0.45594000000E+02  0.51100000000E-03 0.  1.
         11   -1    0    0    0    0 -0.00000000000E+00 -0.00000000000E+00 -0.45593999997E+02  0.45594000000E+02  0.51100000000E-03 0. -1.
    9900012    2    1    2    0    0 -0.20028072689E+02  0.76296279995E+01  0.23609010118E+02  0.59301948539E+02  0.50000008227E+02 0.  0.
         12    1    1    2    0    0  0.20028072689E+02 -0.76296279995E+01 -0.23609010118E+02  0.31886051461E+02  0.00000000000E+00 0. -1.
         11    1    3    3    0    0  0.54550431311E+01  0.30504814477E+01  0.15513737618E+02  0.16725399480E+02  0.51100000000E-03 0.  1.
        -11    1    3    3    0    0 -0.20479450887E+02  0.38103159433E+01 -0.10483678063E+02  0.23320247044E+02  0.51100000000E-03 0. -1.
         12    1    3    3    0    0 -0.50036649333E+01  0.76883060850E+00  0.18578950562E+02  0.19256302014E+02  0.00000000000E+00 0. -1.
</event>
<event>
 7    1  0.7578565E-012  0.5930195E+02  0.7816164E-02  0.1266605E+00
        -11   -1    0    0    0    0  0.00000000000E+00  0.00000000000E+00  0.45593999997E+02  0.45594000000E+02  0.51100000000E-03 0.  1.
         11   -1    0    0    0    0 -0.00000000000E+00 -0.00000000000E+00 -0.45593999997E+02  0.45594000000E+02  0.51100000000E-03 0. -1.
    9900012    2    1    2    0    0 -0.31192713761E+02 -0.16475818551E+01 -0.64047100543E+01  0.59301949310E+02  0.50000009633E+02 0.  0.
         12    1    1    2    0    0  0.31192713761E+02  0.16475818551E+01  0.64047100543E+01  0.31886050690E+02  0.00000000000E+00 0. -1.
         11    1    3    3    0    0  0.23250621240E+01 -0.12323367492E+02  0.80190330215E+01  0.14885435535E+02  0.51100000000E-03 0. -1.
        -11    1    3    3    0    0 -0.26178836989E+02  0.12562930791E+01 -0.69069011447E+00  0.26218063077E+02  0.51100000000E-03 0.  1.
         12    1    3    3    0    0 -0.73389388958E+01  0.94194925577E+01 -0.13733052961E+02  0.18198450698E+02  0.00000000000E+00 0. -1.
</event>
<event>
 7    1  0.7578565E-012  0.5930196E+02  0.7816164E-02  0.1266605E+00
        -11   -1    0    0    0    0  0.00000000000E+00  0.00000000000E+00  0.45593999997E+02  0.45594000000E+02  0.51100000000E-03 0.  1.
         11   -1    0    0    0    0 -0.00000000000E+00 -0.00000000000E+00 -0.45593999997E+02  0.45594000000E+02  0.51100000000E-03 0. -1.
    9900012    2    1    2    0    0  0.65431099242E+01 -0.56817299743E+01  0.30685909636E+02  0.59301962410E+02  0.50000033526E+02 0.  0.
         12    1    1    2    0    0 -0.65431099242E+01  0.56817299743E+01 -0.30685909636E+02  0.31886037590E+02  0.00000000000E+00 0. -1.
         11    1    3    3    0    0  0.10023218964E+02 -0.24445995090E+02  0.30209786259E+02  0.40133561771E+02  0.51100000000E-03 0. -1.
        -11    1    3    3    0    0 -0.13948333500E+01  0.10980074992E+02 -0.30059540402E+00  0.11072396523E+02  0.51100000000E-03 0.  1.
         12    1    3    3    0    0 -0.20852756899E+01  0.77841901245E+01  0.77671878114E+00  0.80960041170E+01  0.00000000000E+00 0. -1.
</event>
<event>
 7    1  0.7578565E-012  0.5930196E+02  0.7816164E-02  0.1266605E+00
        -11   -1    0    0    0    0  0.00000000000E+00  0.00000000000E+00  0.45593999997E+02  0.45594000000E+02  0.51100000000E-03 0.  1.
         11   -1    0    0    0    0 -0.00000000000E+00 -0.00000000000E+00 -0.45593999997E+02  0.45594000000E+02  0.51100000000E-03 0. -1.
    9900012    2    1    2    0    0  0.15549369032E+02  0.23731936790E+02  0.14551015909E+02  0.59301956579E+02  0.50000022890E+02 0.  0.
         12    1    1    2    0    0 -0.15549369032E+02 -0.23731936790E+02 -0.14551015909E+02  0.31886043421E+02  0.00000000000E+00 0. -1.
         11    1    3    3    0    0 -0.85028255649E+00 -0.18181619433E+00 -0.77125199917E+00  0.11622682400E+01  0.51100000000E-03 0. -1.
        -11    1    3    3    0    0  0.28607997823E+02  0.43865960925E+01 -0.24560172228E+01  0.29046373020E+02  0.51100000000E-03 0.  1.
        -12    1    3    3    0    0 -0.12208346235E+02  0.19527156891E+02  0.17778285131E+02  0.29093315319E+02  0.00000000000E+00 0.  1.
</event>
<event>
 7    1  0.7578565E-012  0.5930192E+02  0.7816164E-02  0.1266605E+00
        -11   -1    0    0    0    0  0.00000000000E+00  0.00000000000E+00  0.45593999997E+02  0.45594000000E+02  0.51100000000E-03 0.  1.
         11   -1    0    0    0    0 -0.00000000000E+00 -0.00000000000E+00 -0.45593999997E+02  0.45594000000E+02  0.51100000000E-03 0. -1.
    9900012    2    1    2    0    0  0.63532536072E+01 -0.65389469975E+01  0.30554873196E+02  0.59301922549E+02  0.49999960827E+02 0.  0.
         12    1    1    2    0    0 -0.63532536072E+01  0.65389469975E+01 -0.30554873196E+02  0.31886077451E+02  0.00000000000E+00 0. -1.
         11    1    3    3    0    0  0.92334727092E+01 -0.18755227298E+02  0.26738656497E+02  0.33940703010E+02  0.51100000000E-03 0. -1.
        -11    1    3    3    0    0 -0.31525929636E+01  0.75871948147E+01  0.12823844424E+02  0.15230080552E+02  0.51100000000E-03 0.  1.
         12    1    3    3    0    0  0.27237386152E+00  0.46290854857E+01 -0.90076277247E+01  0.10131138987E+02  0.00000000000E+00 0. -1.
</event>
<event>
 7    1  0.7578565E-012  0.5930179E+02  0.7816164E-02  0.1266605E+00
        -11   -1    0    0    0    0  0.00000000000E+00  0.00000000000E+00  0.45593999997E+02  0.45594000000E+02  0.51100000000E-03 0.  1.
         11   -1    0    0    0    0 -0.00000000000E+00 -0.00000000000E+00 -0.45593999997E+02  0.45594000000E+02  0.51100000000E-03 0. -1.
    9900012    2    1    2    0    0 -0.15969862369E+02  0.10094896230E+02  0.25686321545E+02  0.59301787486E+02  0.49999714505E+02 0.  0.
         12    1    1    2    0    0  0.15969862369E+02 -0.10094896230E+02 -0.25686321545E+02  0.31886212514E+02  0.00000000000E+00 0. -1.
         11    1    3    3    0    0 -0.23096563800E+02  0.83071444607E+01  0.33435610058E+02  0.41477703995E+02  0.51100000000E-03 0.  1.
        -11    1    3    3    0    0  0.72086447912E+01  0.46135182933E+01 -0.10723876166E+02  0.13720445731E+02  0.51100000000E-03 0. -1.
         12    1    3    3    0    0 -0.81943359584E-01 -0.28257665241E+01  0.29745876535E+01  0.41036377607E+01  0.00000000000E+00 0. -1.
</event>
<event>
 7    1  0.7578565E-012  0.5930196E+02  0.7816164E-02  0.1266605E+00
        -11   -1    0    0    0    0  0.00000000000E+00  0.00000000000E+00  0.45593999997E+02  0.45594000000E+02  0.51100000000E-03 0.  1.
         11   -1    0    0    0    0 -0.00000000000E+00 -0.00000000000E+00 -0.45593999997E+02  0.45594000000E+02  0.51100000000E-03 0. -1.
    9900012    2    1    2    0    0 -0.23702380539E+02 -0.48102033363E+00  0.21323348277E+02  0.59301962217E+02  0.50000033172E+02 0.  0.
         12    1    1    2    0    0  0.23702380539E+02  0.48102033363E+00 -0.21323348277E+02  0.31886037783E+02  0.00000000000E+00 0. -1.
         11    1    3    3    0    0  0.60970178958E+01  0.10656216392E+01  0.61073497899E+01  0.86953377403E+01  0.51100000000E-03 0. -1.
        -11    1    3    3    0    0 -0.28149309577E+02  0.14257227993E+02  0.56389408883E+01  0.32053858337E+02  0.51100000000E-03 0.  1.
        -12    1    3    3    0    0 -0.16500888582E+01 -0.15803869966E+02  0.95770575987E+01  0.18552766139E+02  0.00000000000E+00 0.  1.
</event>
<event>
 7    1  0.7578565E-012  0.5930193E+02  0.7816164E-02  0.1266605E+00
        -11   -1    0    0    0    0  0.00000000000E+00  0.00000000000E+00  0.45593999997E+02  0.45594000000E+02  0.51100000000E-03 0. -1.
         11   -1    0    0    0    0 -0.00000000000E+00 -0.00000000000E+00 -0.45593999997E+02  0.45594000000E+02  0.51100000000E-03 0.  1.
    9900012    2    1    2    0    0  0.21147507289E+02  0.12011994757E+02 -0.20620779177E+02  0.59301927548E+02  0.49999969944E+02 0.  0.
         12    1    1    2    0    0 -0.21147507289E+02 -0.12011994757E+02  0.20620779177E+02  0.31886072452E+02  0.00000000000E+00 0. -1.
         11    1    3    3    0    0  0.16796695411E+02 -0.10229505940E+01  0.13124679783E+01  0.16878921088E+02  0.51100000000E-03 0. -1.
        -11    1    3    3    0    0 -0.71276500401E+01 -0.87615807498E+01 -0.98433292114E+01  0.14981983265E+02  0.51100000000E-03 0.  1.
         12    1    3    3    0    0  0.11478461918E+02  0.21796526100E+02 -0.12089917944E+02  0.27441023194E+02  0.00000000000E+00 0. -1.
</event>
<event>
 7    1  0.7578565E-012  0.5930194E+02  0.7816164E-02  0.1266605E+00
        -11   -1    0    0    0    0  0.00000000000E+00  0.00000000000E+00  0.45593999997E+02  0.45594000000E+02  0.51100000000E-03 0. -1.
         11   -1    0    0    0    0 -0.00000000000E+00 -0.00000000000E+00 -0.45593999997E+02  0.45594000000E+02  0.51100000000E-03 0.  1.
    9900012    2    1    2    0    0 -0.35203120533E+01 -0.63533050803E+00 -0.31684773134E+02  0.59301935797E+02  0.49999984988E+02 0.  0.
         12    1    1    2    0    0  0.35203120533E+01  0.63533050803E+00  0.31684773134E+02  0.31886064203E+02  0.00000000000E+00 0. -1.
         11    1    3    3    0    0  0.13788445554E+02  0.13094266343E+02 -0.76196513615E+01  0.20485119697E+02  0.51100000000E-03 0. -1.
        -11    1    3    3    0    0 -0.14080438573E+02 -0.19333917918E+02 -0.17822083881E+02  0.29827601422E+02  0.51100000000E-03 0.  1.
         12    1    3    3    0    0 -0.32283190347E+01  0.56043210663E+01 -0.62430378916E+01  0.89892146776E+01  0.00000000000E+00 0. -1.
</event>
<event>
 7    1  0.7578565E-012  0.5930195E+02  0.7816164E-02  0.1266605E+00
        -11   -1    0    0    0    0  0.00000000000E+00  0.00000000000E+00  0.45593999997E+02  0.45594000000E+02  0.51100000000E-03 0.  1.
         11   -1    0    0    0    0 -0.00000000000E+00 -0.00000000000E+00 -0.45593999997E+02  0.45594000000E+02  0.51100000000E-03 0. -1.
    9900012    2    1    2    0    0  0.29790654701E+02 -0.96389656503E+00  0.11327320934E+02  0.59301946566E+02  0.50000004628E+02 0.  0.
         12    1    1    2    0    0 -0.29790654701E+02  0.96389656503E+00 -0.11327320934E+02  0.31886053434E+02  0.00000000000E+00 0. -1.
         11    1    3    3    0    0 -0.11895814508E+02 -0.29790170356E+01  0.10293426156E+02  0.16010607971E+02  0.51100000000E-03 0. -1.
        -11    1    3    3    0    0  0.36837176180E+02  0.18690651373E+01 -0.29659150774E+01  0.37003616119E+02  0.51100000000E-03 0.  1.
        -12    1    3    3    0    0  0.48492930294E+01  0.14605533330E+00  0.39998098553E+01  0.62877224751E+01  0.00000000000E+00 0.  1.
</event>
<event>
 7    1  0.7578565E-012  0.5930156E+02  0.7816164E-02  0.1266606E+00
        -11   -1    0    0    0    0  0.00000000000E+00  0.00000000000E+00  0.45593999997E+02  0.45594000000E+02  0.51100000000E-03 0.  1.
         11   -1    0    0    0    0 -0.00000000000E+00 -0.00000000000E+00 -0.45593999997E+02  0.45594000000E+02  0.51100000000E-03 0. -1.
    9900012    2    1    2    0    0  0.85331588844E+01  0.17994970221E+02 -0.24902032882E+02  0.59301560947E+02  0.49999301348E+02 0.  0.
         12    1    1    2    0    0 -0.85331588844E+01 -0.17994970221E+02  0.24902032882E+02  0.31886439053E+02  0.00000000000E+00 0. -1.
         11    1    3    3    0    0 -0.82822725466E+01  0.23904703401E+02 -0.90357978304E+01  0.26864037781E+02  0.51100000000E-03 0. -1.
        -11    1    3    3    0    0  0.16322030228E+02  0.44998829940E+01 -0.56629340655E+01  0.17852911253E+02  0.51100000000E-03 0.  1.
         12    1    3    3    0    0  0.49340120299E+00 -0.10409616174E+02 -0.10203300986E+02  0.14584611913E+02  0.00000000000E+00 0. -1.
</event>
<event>
 7    1  0.7578565E-012  0.5930196E+02  0.7816164E-02  0.1266605E+00
        -11   -1    0    0    0    0  0.00000000000E+00  0.00000000000E+00  0.45593999997E+02  0.45594000000E+02  0.51100000000E-03 0.  1.
         11   -1    0    0    0    0 -0.00000000000E+00 -0.00000000000E+00 -0.45593999997E+02  0.45594000000E+02  0.51100000000E-03 0. -1.
    9900012    2    1    2    0    0  0.22215797198E+02  0.10399623258E+01  0.22849430593E+02  0.59301958458E+02  0.50000026318E+02 0.  0.
         12    1    1    2    0    0 -0.22215797198E+02 -0.10399623258E+01 -0.22849430593E+02  0.31886041542E+02  0.00000000000E+00 0. -1.
         11    1    3    3    0    0 -0.34442106392E+01  0.17575289796E+02  0.70015541297E+01  0.19229538705E+02  0.51100000000E-03 0. -1.
        -11    1    3    3    0    0  0.13620940291E+02 -0.10353075252E+02 -0.24816288071E+01  0.17287991884E+02  0.51100000000E-03 0.  1.
         12    1    3    3    0    0  0.12039067546E+02 -0.61822522176E+01  0.18329505270E+02  0.22784427869E+02  0.00000000000E+00 0. -1.
</event>
<event>
 7    1  0.7578565E-012  0.5930195E+02  0.7816164E-02  0.1266605E+00
        -11   -1    0    0    0    0  0.00000000000E+00  0.00000000000E+00  0.45593999997E+02  0.45594000000E+02  0.51100000000E-03 0. -1.
         11   -1    0    0    0    0 -0.00000000000E+00 -0.00000000000E+00 -0.45593999997E+02  0.45594000000E+02  0.51100000000E-03 0.  1.
    9900012    2    1    2    0    0 -0.90267231028E+01 -0.13913764125E+01 -0.30550002111E+02  0.59301948390E+02  0.50000007956E+02 0.  0.
         12    1    1    2    0    0  0.90267231028E+01  0.13913764125E+01  0.30550002111E+02  0.31886051610E+02  0.00000000000E+00 0. -1.
         11    1    3    3    0    0 -0.11171382564E+02  0.97447513532E+00  0.15871668727E+01  0.11325567939E+02  0.51100000000E-03 0. -1.
        -11    1    3    3    0    0  0.16961134081E+02  0.34262096897E+01 -0.25322213126E+02  0.30669748288E+02  0.51100000000E-03 0.  1.
        -12    1    3    3    0    0 -0.14816474619E+02 -0.57920612375E+01 -0.68149558571E+01  0.17306632164E+02  0.00000000000E+00 0.  1.
</event>
<event>
 7    1  0.7578565E-012  0.5930185E+02  0.7816164E-02  0.1266605E+00
        -11   -1    0    0    0    0  0.00000000000E+00  0.00000000000E+00  0.45593999997E+02  0.45594000000E+02  0.51100000000E-03 0. -1.
         11   -1    0    0    0    0 -0.00000000000E+00 -0.00000000000E+00 -0.45593999997E+02  0.45594000000E+02  0.51100000000E-03 0.  1.
    9900012    2    1    2    0    0  0.13662729941E+02  0.28805378573E+02  0.55374035932E+00  0.59301848577E+02  0.49999825921E+02 0.  0.
         12    1    1    2    0    0 -0.13662729941E+02 -0.28805378573E+02 -0.55374035932E+00  0.31886151423E+02  0.00000000000E+00 0. -1.
         11    1    3    3    0    0 -0.37170790374E+01  0.57114419870E+01  0.62885477813E+01  0.92727061637E+01  0.51100000000E-03 0. -1.
        -11    1    3    3    0    0  0.87665960284E+01  0.94138766505E+01 -0.23015119658E+02  0.26366076929E+02  0.51100000000E-03 0.  1.
        -12    1    3    3    0    0  0.86132129497E+01  0.13680059935E+02  0.17280312236E+02  0.23663065484E+02  0.00000000000E+00 0.  1.
</event>
<event>
 7    1  0.7578565E-012  0.5930195E+02  0.7816164E-02  0.1266605E+00
        -11   -1    0    0    0    0  0.00000000000E+00  0.00000000000E+00  0.45593999997E+02  0.45594000000E+02  0.51100000000E-03 0.  1.
         11   -1    0    0    0    0 -0.00000000000E+00 -0.00000000000E+00 -0.45593999997E+02  0.45594000000E+02  0.51100000000E-03 0. -1.
    9900012    2    1    2    0    0 -0.20114692274E+01  0.31822147296E+02 -0.15799216907E+00  0.59301952447E+02  0.50000015356E+02 0.  0.
         12    1    1    2    0    0  0.20114692274E+01 -0.31822147296E+02  0.15799216907E+00  0.31886047553E+02  0.00000000000E+00 0. -1.
         11    1    3    3    0    0 -0.32140599215E+01  0.24827770689E+02 -0.18789101899E+02  0.31301417364E+02  0.51100000000E-03 0. -1.
        -11    1    3    3    0    0  0.17191927694E+01  0.82878212697E+01  0.22419573717E+02  0.23964158468E+02  0.51100000000E-03 0.  1.
        -12    1    3    3    0    0 -0.51660207533E+00 -0.12934446621E+01 -0.37884639873E+01  0.40363766154E+01  0.00000000000E+00 0.  1.
</event>
<event>
 7    1  0.7578565E-012  0.5930193E+02  0.7816164E-02  0.1266605E+00
        -11   -1    0    0    0    0  0.00000000000E+00  0.00000000000E+00  0.45593999997E+02  0.45594000000E+02  0.51100000000E-03 0.  1.
         11   -1    0    0    0    0 -0.00000000000E+00 -0.00000000000E+00 -0.45593999997E+02  0.45594000000E+02  0.51100000000E-03 0. -1.
    9900012    2    1    2    0    0 -0.91948008882E+01  0.28097859724E+02 -0.11945175236E+02  0.59301932574E+02  0.49999979111E+02 0.  0.
         12    1    1    2    0    0  0.91948008882E+01 -0.28097859724E+02  0.11945175236E+02  0.31886067426E+02  0.00000000000E+00 0. -1.
         11    1    3    3    0    0  0.16094109802E+02  0.15942975650E+02  0.15859563366E+01  0.22709339503E+02  0.51100000000E-03 0. -1.
        -11    1    3    3    0    0 -0.14464992653E+02 -0.30597022551E+01 -0.27720263206E+01  0.15042669993E+02  0.51100000000E-03 0.  1.
        -12    1    3    3    0    0 -0.10823918037E+02  0.15214586330E+02 -0.10759105252E+02  0.21549923078E+02  0.00000000000E+00 0.  1.
</event>
<event>
 7    1  0.7578565E-012  0.5930195E+02  0.7816164E-02  0.1266605E+00
        -11   -1    0    0    0    0  0.00000000000E+00  0.00000000000E+00  0.45593999997E+02  0.45594000000E+02  0.51100000000E-03 0.  1.
         11   -1    0    0    0    0 -0.00000000000E+00 -0.00000000000E+00 -0.45593999997E+02  0.45594000000E+02  0.51100000000E-03 0. -1.
    9900012    2    1    2    0    0  0.15561678637E+02 -0.22439703476E+02  0.16462501406E+02  0.59301951536E+02  0.50000013694E+02 0.  0.
         12    1    1    2    0    0 -0.15561678637E+02  0.22439703476E+02 -0.16462501406E+02  0.31886048464E+02  0.00000000000E+00 0. -1.
         11    1    3    3    0    0 -0.69700945391E+00 -0.37768032701E+01 -0.26623220257E+01  0.46731171555E+01  0.51100000000E-03 0. -1.
        -11    1    3    3    0    0  0.19816611227E+01  0.10028408389E+02  0.20118108400E+02  0.22566219033E+02  0.51100000000E-03 0.  1.
        -12    1    3    3    0    0  0.14277026968E+02 -0.28691308594E+02 -0.99328496801E+00  0.32062615348E+02  0.00000000000E+00 0.  1.
</event>
<event>
 7    1  0.7578565E-012  0.5930195E+02  0.7816164E-02  0.1266605E+00
        -11   -1    0    0    0    0  0.00000000000E+00  0.00000000000E+00  0.45593999997E+02  0.45594000000E+02  0.51100000000E-03 0.  1.
         11   -1    0    0    0    0 -0.00000000000E+00 -0.00000000000E+00 -0.45593999997E+02  0.45594000000E+02  0.51100000000E-03 0. -1.
    9900012    2    1    2    0    0 -0.28484706171E+02 -0.13695978788E+02  0.42144693264E+01  0.59301951761E+02  0.50000014103E+02 0.  0.
         12    1    1    2    0    0  0.28484706171E+02  0.13695978788E+02 -0.42144693264E+01  0.31886048239E+02  0.00000000000E+00 0. -1.
         11    1    3    3    0    0 -0.34747106906E+02 -0.10826237692E+02 -0.13135989088E+02  0.38692674636E+02  0.51100000000E-03 0. -1.
        -11    1    3    3    0    0  0.27541562772E+01 -0.20653295771E+01  0.16573285443E+02  0.16927042083E+02  0.51100000000E-03 0.  1.
         12    1    3    3    0    0  0.35082444585E+01 -0.80441151921E+00  0.77717297179E+00  0.36822350415E+01  0.00000000000E+00 0. -1.
</event>
<event>
 7    1  0.7578565E-012  0.5930197E+02  0.7816164E-02  0.1266605E+00
        -11   -1    0    0    0    0  0.00000000000E+00  0.00000000000E+00  0.45593999997E+02  0.45594000000E+02  0.51100000000E-03 0.  1.
         11   -1    0    0    0    0 -0.00000000000E+00 -0.00000000000E+00 -0.45593999997E+02  0.45594000000E+02  0.51100000000E-03 0. -1.
    9900012    2    1    2    0    0  0.23026757272E+01 -0.14975220306E+02  0.28056365432E+02  0.59301965754E+02  0.50000039623E+02 0.  0.
         12    1    1    2    0    0 -0.23026757272E+01  0.14975220306E+02 -0.28056365432E+02  0.31886034246E+02  0.00000000000E+00 0. -1.
         11    1    3    3    0    0 -0.80031475294E+01 -0.25422971675E+02  0.10013705072E+02  0.28471953721E+02  0.51100000000E-03 0. -1.
        -11    1    3    3    0    0  0.48863176489E+01  0.14450436610E+02  0.48332240494E+01  0.16001602212E+02  0.51100000000E-03 0.  1.
        -12    1    3    3    0    0  0.54195056077E+01 -0.40026852417E+01  0.13209436310E+02  0.14828409820E+02  0.00000000000E+00 0.  1.
</event>
<event>
 7    1  0.7578565E-012  0.5930194E+02  0.7816164E-02  0.1266605E+00
        -11   -1    0    0    0    0  0.00000000000E+00  0.00000000000E+00  0.45593999997E+02  0.45594000000E+02  0.51100000000E-03 0. -1.
         11   -1    0    0    0    0 -0.00000000000E+00 -0.00000000000E+00 -0.45593999997E+02  0.45594000000E+02  0.51100000000E-03 0.  1.
    9900012    2    1    2    0    0 -0.21423027930E+02  0.22592405853E+02  0.68817207101E+01  0.59301937091E+02  0.49999987349E+02 0.  0.
         12    1    1    2    0    0  0.21423027930E+02 -0.22592405853E+02 -0.68817207101E+01  0.31886062909E+02  0.00000000000E+00 0. -1.
         11    1    3    3    0    0 -0.23742164262E+02  0.15084768966E+02 -0.52335939020E+01  0.28611730531E+02  0.51100000000E-03 0.  1.
        -11    1    3    3    0    0  0.99583877423E+01 -0.54217797133E+01 -0.88822511349E-01  0.11339006631E+02  0.51100000000E-03 0. -1.
        -12    1    3    3    0    0 -0.76392514106E+01  0.12929416600E+02  0.12204137123E+02  0.19351199928E+02  0.00000000000E+00 0.  1.
</event>
<event>
 7    1  0.7578565E-012  0.5930200E+02  0.7816164E-02  0.1266605E+00
        -11   -1    0    0    0    0  0.00000000000E+00  0.00000000000E+00  0.45593999997E+02  0.45594000000E+02  0.51100000000E-03 0.  1.
         11   -1    0    0    0    0 -0.00000000000E+00 -0.00000000000E+00 -0.45593999997E+02  0.45594000000E+02  0.51100000000E-03 0. -1.
    9900012    2    1    2    0    0  0.13559185773E+02  0.31286525858E+01  0.28689321724E+02  0.59301997321E+02  0.50000097195E+02 0.  0.
         12    1    1    2    0    0 -0.13559185773E+02 -0.31286525858E+01 -0.28689321724E+02  0.31886002679E+02  0.00000000000E+00 0. -1.
         11    1    3    3    0    0  0.13538804996E+02 -0.11313944260E+01 -0.48068650746E+01  0.14411288845E+02  0.51100000000E-03 0. -1.
        -11    1    3    3    0    0 -0.12974167235E+02  0.40300292226E+01  0.27297951119E+02  0.30491774080E+02  0.51100000000E-03 0.  1.
        -12    1    3    3    0    0  0.12994548012E+02  0.23001778924E+00  0.61982356804E+01  0.14398934397E+02  0.00000000000E+00 0.  1.
</event>
<event>
 7    1  0.7578565E-012  0.5930194E+02  0.7816164E-02  0.1266605E+00
        -11   -1    0    0    0    0  0.00000000000E+00  0.00000000000E+00  0.45593999997E+02  0.45594000000E+02  0.51100000000E-03 0. -1.
         11   -1    0    0    0    0 -0.00000000000E+00 -0.00000000000E+00 -0.45593999997E+02  0.45594000000E+02  0.51100000000E-03 0.  1.
    9900012    2    1    2    0    0  0.31804022528E+01  0.15004211129E+02 -0.27954951105E+02  0.59301943465E+02  0.49999998974E+02 0.  0.
         12    1    1    2    0    0 -0.31804022528E+01 -0.15004211129E+02  0.27954951105E+02  0.31886056535E+02  0.00000000000E+00 0. -1.
         11    1    3    3    0    0 -0.10213276150E+02  0.89806589169E+01  0.51143610635E+01  0.14529966746E+02  0.51100000000E-03 0. -1.
        -11    1    3    3    0    0  0.14597492698E+02  0.31749961456E+00 -0.35552276188E+02  0.38433734421E+02  0.51100000000E-03 0.  1.
         12    1    3    3    0    0 -0.12038142954E+01  0.57060525974E+01  0.24829640201E+01  0.63382422979E+01  0.00000000000E+00 0. -1.
</event>
<event>
 7    1  0.7578565E-012  0.5930210E+02  0.7816164E-02  0.1266604E+00
        -11   -1    0    0    0    0  0.00000000000E+00  0.00000000000E+00  0.45593999997E+02  0.45594000000E+02  0.51100000000E-03 0.  1.
         11   -1    0    0    0    0 -0.00000000000E+00 -0.00000000000E+00 -0.45593999997E+02  0.45594000000E+02  0.51100000000E-03 0. -1.
    9900012    2    1    2    0    0 -0.52508245393E+01 -0.25083001192E+02  0.18973199854E+02  0.59302103120E+02  0.50000290146E+02 0.  0.
         12    1    1    2    0    0  0.52508245393E+01  0.25083001192E+02 -0.18973199854E+02  0.31885896880E+02  0.00000000000E+00 0. -1.
         11    1    3    3    0    0 -0.77067872215E+01 -0.61309820230E+01 -0.91559265939E+01  0.13446728297E+02  0.51100000000E-03 0. -1.
        -11    1    3    3    0    0 -0.77780099113E+01 -0.15549513377E+02  0.30225008666E+02  0.34868839292E+02  0.51100000000E-03 0.  1.
        -12    1    3    3    0    0  0.10233972593E+02 -0.34025057922E+01 -0.20958822186E+01  0.10986535531E+02  0.00000000000E+00 0.  1.
</event>
<event>
 7    1  0.7578565E-012  0.5930194E+02  0.7816164E-02  0.1266605E+00
        -11   -1    0    0    0    0  0.00000000000E+00  0.00000000000E+00  0.45593999997E+02  0.45594000000E+02  0.51100000000E-03 0. -1.
         11   -1    0    0    0    0 -0.00000000000E+00 -0.00000000000E+00 -0.45593999997E+02  0.45594000000E+02  0.51100000000E-03 0.  1.
    9900012    2    1    2    0    0  0.10315722133E+02  0.22531149263E+02 -0.20066238259E+02  0.59301941477E+02  0.49999995348E+02 0.  0.
         12    1    1    2    0    0 -0.10315722133E+02 -0.22531149263E+02  0.20066238259E+02  0.31886058523E+02  0.00000000000E+00 0. -1.
         11    1    3    3    0    0  0.65591381341E+01 -0.22573916993E+01 -0.16791529700E+00  0.69387539339E+01  0.51100000000E-03 0. -1.
        -11    1    3    3    0    0  0.13522844639E+01  0.26032452240E+02 -0.31248990683E+02  0.40694184620E+02  0.51100000000E-03 0.  1.
        -12    1    3    3    0    0  0.24042995351E+01 -0.12439112777E+01  0.11350667721E+02  0.11669002923E+02  0.00000000000E+00 0.  1.
</event>
<event>
 7    1  0.7578565E-012  0.5930195E+02  0.7816164E-02  0.1266605E+00
        -11   -1    0    0    0    0  0.00000000000E+00  0.00000000000E+00  0.45593999997E+02  0.45594000000E+02  0.51100000000E-03 0. -1.
         11   -1    0    0    0    0 -0.00000000000E+00 -0.00000000000E+00 -0.45593999997E+02  0.45594000000E+02  0.51100000000E-03 0.  1.
    9900012    2    1    2    0    0  0.28647889075E+02  0.13806102872E+02 -0.23260158814E+01  0.59301947017E+02  0.50000005451E+02 0.  0.
         12    1    1    2    0    0 -0.28647889075E+02 -0.13806102872E+02  0.23260158814E+01  0.31886052983E+02  0.00000000000E+00 0. -1.
         11    1    3    3    0    0  0.29659056598E+02  0.55152444493E+01 -0.12685802521E+02  0.32726245515E+02  0.51100000000E-03 0. -1.
        -11    1    3    3    0    0  0.33127445366E+01 -0.71941792725E+01  0.10289829332E+01  0.79868202626E+01  0.51100000000E-03 0.  1.
         12    1    3    3    0    0 -0.43239120596E+01  0.15485037695E+02  0.93308037064E+01  0.18588881239E+02  0.00000000000E+00 0. -1.
</event>
<event>
 7    1  0.7578565E-012  0.5930214E+02  0.7816164E-02  0.1266604E+00
        -11   -1    0    0    0    0  0.00000000000E+00  0.00000000000E+00  0.45593999997E+02  0.45594000000E+02  0.51100000000E-03 0.  1.
         11   -1    0    0    0    0 -0.00000000000E+00 -0.00000000000E+00 -0.45593999997E+02  0.45594000000E+02  0.51100000000E-03 0. -1.
    9900012    2    1    2    0    0 -0.22168511524E+02 -0.22823788965E+02 -0.20831680375E+01  0.59302143653E+02  0.50000364067E+02 0.  0.
         12    1    1    2    0    0  0.22168511524E+02  0.22823788965E+02  0.20831680375E+01  0.31885856347E+02  0.00000000000E+00 0. -1.
         11    1    3    3    0    0  0.13336595891E+01 -0.30693548203E+02 -0.68782674508E+01  0.31483060724E+02  0.51100000000E-03 0. -1.
        -11    1    3    3    0    0 -0.18542249626E+02  0.26076093580E+01 -0.69852417844E+00  0.18737731560E+02  0.51100000000E-03 0.  1.
         12    1    3    3    0    0 -0.49599214872E+01  0.52621498794E+01  0.54936235918E+01  0.90813513686E+01  0.00000000000E+00 0. -1.
</event>
<event>
 7    1  0.7578565E-012  0.5930202E+02  0.7816164E-02  0.1266605E+00
        -11   -1    0    0    0    0  0.00000000000E+00  0.00000000000E+00  0.45593999997E+02  0.45594000000E+02  0.51100000000E-03 0.  1.
         11   -1    0    0    0    0 -0.00000000000E+00 -0.00000000000E+00 -0.45593999997E+02  0.45594000000E+02  0.51100000000E-03 0. -1.
    9900012    2    1    2    0    0 -0.15816564141E+02 -0.14697516641E+02  0.23463488514E+02  0.59302015776E+02  0.50000130852E+02 0.  0.
         12    1    1    2    0    0  0.15816564141E+02  0.14697516641E+02 -0.23463488514E+02  0.31885984224E+02  0.00000000000E+00 0. -1.
         11    1    3    3    0    0 -0.37029010626E+01 -0.14208711787E+02 -0.10249069543E+02  0.17906490267E+02  0.51100000000E-03 0. -1.
        -11    1    3    3    0    0  0.46082546255E+01  0.86440147912E+00  0.17306589385E+02  0.17930455572E+02  0.51100000000E-03 0.  1.
        -12    1    3    3    0    0 -0.16721917704E+02 -0.13532063327E+01  0.16405968672E+02  0.23465069937E+02  0.00000000000E+00 0.  1.
</event>
<event>
 7    1  0.7578565E-012  0.5930194E+02  0.7816164E-02  0.1266605E+00
        -11   -1    0    0    0    0  0.00000000000E+00  0.00000000000E+00  0.45593999997E+02  0.45594000000E+02  0.51100000000E-03 0.  1.
         11   -1    0    0    0    0 -0.00000000000E+00 -0.00000000000E+00 -0.45593999997E+02  0.45594000000E+02  0.51100000000E-03 0. -1.
    9900012    2    1    2    0    0 -0.14691684601E+02 -0.41228459324E+01  0.27997806598E+02  0.59301943027E+02  0.49999998175E+02 0.  0.
         12    1    1    2    0    0  0.14691684601E+02  0.41228459324E+01 -0.27997806598E+02  0.31886056973E+02  0.00000000000E+00 0. -1.
         11    1    3    3    0    0 -0.56902852680E+01 -0.54063452523E+00 -0.59267008831E+01  0.82339186139E+01  0.51100000000E-03 0. -1.
        -11    1    3    3    0    0  0.13143177384E+02 -0.72521785356E+01  0.18540504300E+02  0.23855555019E+02  0.51100000000E-03 0.  1.
        -12    1    3    3    0    0 -0.22144576717E+02  0.36699671284E+01  0.15384003180E+02  0.27212469395E+02  0.00000000000E+00 0.  1.
</event>
<event>
 7    1  0.7578565E-012  0.5930196E+02  0.7816164E-02  0.1266605E+00
        -11   -1    0    0    0    0  0.00000000000E+00  0.00000000000E+00  0.45593999997E+02  0.45594000000E+02  0.51100000000E-03 0. -1.
         11   -1    0    0    0    0 -0.00000000000E+00 -0.00000000000E+00 -0.45593999997E+02  0.45594000000E+02  0.51100000000E-03 0.  1.
    9900012    2    1    2    0    0 -0.47729221264E+01 -0.31154675958E+02 -0.48295958366E+01  0.59301958922E+02  0.50000027164E+02 0.  0.
         12    1    1    2    0    0  0.47729221264E+01  0.31154675958E+02  0.48295958366E+01  0.31886041078E+02  0.00000000000E+00 0. -1.
         11    1    3    3    0    0  0.10871005354E+02 -0.83104264525E+01 -0.12570323746E+02  0.18581038307E+02  0.51100000000E-03 0. -1.
        -11    1    3    3    0    0 -0.17934961922E+02 -0.16694907722E+01  0.72503360034E+01  0.19416936705E+02  0.51100000000E-03 0.  1.
         12    1    3    3    0    0  0.22910344413E+01 -0.21174758733E+02  0.49039190605E+00  0.21303983910E+02  0.00000000000E+00 0. -1.
</event>
<event>
 7    1  0.7578565E-012  0.5930193E+02  0.7816164E-02  0.1266605E+00
        -11   -1    0    0    0    0  0.00000000000E+00  0.00000000000E+00  0.45593999997E+02  0.45594000000E+02  0.51100000000E-03 0.  1.
         11   -1    0    0    0    0 -0.00000000000E+00 -0.00000000000E+00 -0.45593999997E+02  0.45594000000E+02  0.51100000000E-03 0. -1.
    9900012    2    1    2    0    0  0.23133169827E+02 -0.15007808670E+02  0.16010732907E+02  0.59301930384E+02  0.49999975116E+02 0.  0.
         12    1    1    2    0    0 -0.23133169827E+02  0.15007808670E+02 -0.16010732907E+02  0.31886069616E+02  0.00000000000E+00 0. -1.
         11    1    3    3    0    0  0.10103011685E+02  0.11983132057E+02  0.19512832244E+02  0.25028322386E+02  0.51100000000E-03 0. -1.
        -11    1    3    3    0    0  0.84861953060E+01 -0.22093500150E+02  0.42437406883E+01  0.24044699935E+02  0.51100000000E-03 0.  1.
         12    1    3    3    0    0  0.45439628361E+01 -0.48974405770E+01 -0.77458400250E+01  0.10228908063E+02  0.00000000000E+00 0. -1.
</event>
<event>
 7    1  0.7578565E-012  0.5930197E+02  0.7816164E-02  0.1266605E+00
        -11   -1    0    0    0    0  0.00000000000E+00  0.00000000000E+00  0.45593999997E+02  0.45594000000E+02  0.51100000000E-03 0.  1.
         11   -1    0    0    0    0 -0.00000000000E+00 -0.00000000000E+00 -0.45593999997E+02  0.45594000000E+02  0.51100000000E-03 0. -1.
    9900012    2    1    2    0    0  0.49424039058E+01  0.29038053544E+02  0.12209967836E+02  0.59301965054E+02  0.50000038347E+02 0.  0.
         12    1    1    2    0    0 -0.49424039058E+01 -0.29038053544E+02 -0.12209967836E+02  0.31886034946E+02  0.00000000000E+00 0. -1.
         11    1    3    3    0    0 -0.50466200245E+01  0.61936288589E+01 -0.15140018604E+02  0.17118690829E+02  0.51100000000E-03 0. -1.
        -11    1    3    3    0    0  0.14418183795E+02  0.22194696543E+02  0.26811913209E+02  0.37674490956E+02  0.51100000000E-03 0.  1.
         12    1    3    3    0    0 -0.44291598651E+01  0.64972814278E+00  0.53807323070E+00  0.45087832695E+01  0.00000000000E+00 0. -1.
</event>
<event>
 7    1  0.7578565E-012  0.5930193E+02  0.7816164E-02  0.1266605E+00
        -11   -1    0    0    0    0  0.00000000000E+00  0.00000000000E+00  0.45593999997E+02  0.45594000000E+02  0.51100000000E-03 0.  1.
         11   -1    0    0    0    0 -0.00000000000E+00 -0.00000000000E+00 -0.45593999997E+02  0.45594000000E+02  0.51100000000E-03 0. -1.
    9900012    2    1    2    0    0 -0.14376848677E+02  0.17293164497E+02  0.22604735869E+02  0.59301930943E+02  0.49999976137E+02 0.  0.
         12    1    1    2    0    0  0.14376848677E+02 -0.17293164497E+02 -0.22604735869E+02  0.31886069057E+02  0.00000000000E+00 0. -1.
         11    1    3    3    0    0 -0.74388881735E+01  0.15525485774E+02 -0.13826557587E+02  0.22080567491E+02  0.51100000000E-03 0. -1.
        -11    1    3    3    0    0 -0.28708339612E+01  0.19318013234E+01  0.19734839456E+02  0.20035903588E+02  0.51100000000E-03 0.  1.
         12    1    3    3    0    0 -0.40671265422E+01 -0.16412260041E+00  0.16696454000E+02  0.17185459864E+02  0.00000000000E+00 0. -1.
</event>
<event>
 7    1  0.7578565E-012  0.5930195E+02  0.7816164E-02  0.1266605E+00
        -11   -1    0    0    0    0  0.00000000000E+00  0.00000000000E+00  0.45593999997E+02  0.45594000000E+02  0.51100000000E-03 0.  1.
         11   -1    0    0    0    0 -0.00000000000E+00 -0.00000000000E+00 -0.45593999997E+02  0.45594000000E+02  0.51100000000E-03 0. -1.
    9900012    2    1    2    0    0  0.15284304417E+02 -0.26052696580E+02  0.10216015725E+02  0.59301953868E+02  0.50000017947E+02 0.  0.
         12    1    1    2    0    0 -0.15284304417E+02  0.26052696580E+02 -0.10216015725E+02  0.31886046132E+02  0.00000000000E+00 0. -1.
         11    1    3    3    0    0 -0.13313318473E+02 -0.45352796747E+01  0.32505609428E+01  0.14435350955E+02  0.51100000000E-03 0. -1.
        -11    1    3    3    0    0  0.23547855373E+02 -0.24839557633E+02  0.12726186938E+02  0.36516584593E+02  0.51100000000E-03 0.  1.
         12    1    3    3    0    0  0.50497675168E+01  0.33221407278E+01 -0.57607321552E+01  0.83500183205E+01  0.00000000000E+00 0. -1.
</event>
<event>
 7    1  0.7578565E-012  0.5930189E+02  0.7816164E-02  0.1266605E+00
        -11   -1    0    0    0    0  0.00000000000E+00  0.00000000000E+00  0.45593999997E+02  0.45594000000E+02  0.51100000000E-03 0. -1.
         11   -1    0    0    0    0 -0.00000000000E+00 -0.00000000000E+00 -0.45593999997E+02  0.45594000000E+02  0.51100000000E-03 0.  1.
    9900012    2    1    2    0    0  0.10609649229E+02 -0.25197515066E+02 -0.16408666511E+02  0.59301893952E+02  0.49999908673E+02 0.  0.
         12    1    1    2    0    0 -0.10609649229E+02  0.25197515066E+02  0.16408666511E+02  0.31886106048E+02  0.00000000000E+00 0. -1.
         11    1    3    3    0    0  0.14905290710E+02  0.41345608468E+01 -0.10327886001E+02  0.18599126702E+02  0.51100000000E-03 0. -1.
        -11    1    3    3    0    0 -0.81053489466E+01 -0.10964553686E+02  0.92498490311E+01  0.16476584186E+02  0.51100000000E-03 0.  1.
        -12    1    3    3    0    0  0.38097074657E+01 -0.18367522227E+02 -0.15330629541E+02  0.24226183064E+02  0.00000000000E+00 0.  1.
</event>
<event>
 7    1  0.7578565E-012  0.5930195E+02  0.7816164E-02  0.1266605E+00
        -11   -1    0    0    0    0  0.00000000000E+00  0.00000000000E+00  0.45593999997E+02  0.45594000000E+02  0.51100000000E-03 0.  1.
         11   -1    0    0    0    0 -0.00000000000E+00 -0.00000000000E+00 -0.45593999997E+02  0.45594000000E+02  0.51100000000E-03 0. -1.
    9900012    2    1    2    0    0 -0.20196584340E+02 -0.19107791389E+02  0.15611226636E+02  0.59301951203E+02  0.50000013086E+02 0.  0.
         12    1    1    2    0    0  0.20196584340E+02  0.19107791389E+02 -0.15611226636E+02  0.31886048797E+02  0.00000000000E+00 0. -1.
         11    1    3    3    0    0  0.17913257619E+01 -0.12801038679E+02 -0.77287477332E+01  0.15060178652E+02  0.51100000000E-03 0. -1.
        -11    1    3    3    0    0 -0.27437763419E+02 -0.24228182468E+01  0.25160666977E+02  0.37306300710E+02  0.51100000000E-03 0.  1.
        -12    1    3    3    0    0  0.54498533169E+01 -0.38839344629E+01 -0.18206926070E+01  0.69354718410E+01  0.00000000000E+00 0.  1.
</event>
<event>
 7    1  0.7578565E-012  0.5930192E+02  0.7816164E-02  0.1266605E+00
        -11   -1    0    0    0    0  0.00000000000E+00  0.00000000000E+00  0.45593999997E+02  0.45594000000E+02  0.51100000000E-03 0.  1.
         11   -1    0    0    0    0 -0.00000000000E+00 -0.00000000000E+00 -0.45593999997E+02  0.45594000000E+02  0.51100000000E-03 0. -1.
    9900012    2    1    2    0    0 -0.22925449007E+02 -0.28663901505E+01  0.21975654296E+02  0.59301924883E+02  0.49999965084E+02 0.  0.
         12    1    1    2    0    0  0.22925449007E+02  0.28663901505E+01 -0.21975654296E+02  0.31886075117E+02  0.00000000000E+00 0. -1.
         11    1    3    3    0    0 -0.10385893076E+02 -0.19405299367E+02 -0.27574256926E+01  0.22181880335E+02  0.51100000000E-03 0. -1.
        -11    1    3    3    0    0 -0.14682663263E+02  0.19015187803E+02  0.23539872531E+02  0.33634559113E+02  0.51100000000E-03 0.  1.
        -12    1    3    3    0    0  0.21431073320E+01 -0.24762785869E+01  0.11932074578E+01  0.34854854344E+01  0.00000000000E+00 0.  1.
</event>
<event>
 7    1  0.7578565E-012  0.5930194E+02  0.7816164E-02  0.1266605E+00
        -11   -1    0    0    0    0  0.00000000000E+00  0.00000000000E+00  0.45593999997E+02  0.45594000000E+02  0.51100000000E-03 0. -1.
         11   -1    0    0    0    0 -0.00000000000E+00 -0.00000000000E+00 -0.45593999997E+02  0.45594000000E+02  0.51100000000E-03 0.  1.
    9900012    2    1    2    0    0  0.17114797655E+02  0.26233237576E+02  0.59683902986E+01  0.59301941366E+02  0.49999995145E+02 0.  0.
         12    1    1    2    0    0 -0.17114797655E+02 -0.26233237576E+02 -0.59683902986E+01  0.31886058634E+02  0.00000000000E+00 0. -1.
         11    1    3    3    0    0  0.34559736680E+01 -0.11839780828E+02  0.10585920680E+02  0.16253795893E+02  0.51100000000E-03 0. -1.
        -11    1    3    3    0    0  0.68520750985E+01  0.26387053825E+02  0.31643347644E+01  0.27445228319E+02  0.51100000000E-03 0.  1.
         12    1    3    3    0    0  0.68067488880E+01  0.11685964578E+02 -0.77818651459E+01  0.15602917154E+02  0.00000000000E+00 0. -1.
</event>
<event>
 7    1  0.7578565E-012  0.5930195E+02  0.7816164E-02  0.1266605E+00
        -11   -1    0    0    0    0  0.00000000000E+00  0.00000000000E+00  0.45593999997E+02  0.45594000000E+02  0.51100000000E-03 0. -1.
         11   -1    0    0    0    0 -0.00000000000E+00 -0.00000000000E+00 -0.45593999997E+02  0.45594000000E+02  0.51100000000E-03 0.  1.
    9900012    2    1    2    0    0  0.19845167212E+02 -0.20373937901E+02 -0.14414990649E+02  0.59301953480E+02  0.50000017239E+02 0.  0.
         12    1    1    2    0    0 -0.19845167212E+02  0.20373937901E+02  0.14414990649E+02  0.31886046520E+02  0.00000000000E+00 0. -1.
         11    1    3    3    0    0  0.10235417585E+02 -0.65235587166E+01  0.55167892352E+01  0.13332499961E+02  0.51100000000E-03 0. -1.
        -11    1    3    3    0    0  0.32937932751E+01  0.12375895707E+02 -0.12710579492E+02  0.18043577805E+02  0.51100000000E-03 0.  1.
        -12    1    3    3    0    0  0.63159563512E+01 -0.26226274892E+02 -0.72212003919E+01  0.27925875715E+02  0.00000000000E+00 0.  1.
</event>
<event>
 7    1  0.7578565E-012  0.5930195E+02  0.7816164E-02  0.1266605E+00
        -11   -1    0    0    0    0  0.00000000000E+00  0.00000000000E+00  0.45593999997E+02  0.45594000000E+02  0.51100000000E-03 0. -1.
         11   -1    0    0    0    0 -0.00000000000E+00 -0.00000000000E+00 -0.45593999997E+02  0.45594000000E+02  0.51100000000E-03 0.  1.
    9900012    2    1    2    0    0  0.61398278240E+01  0.30169511962E+02 -0.82959896376E+01  0.59301946908E+02  0.50000005252E+02 0.  0.
         12    1    1    2    0    0 -0.61398278240E+01 -0.30169511962E+02  0.82959896376E+01  0.31886053092E+02  0.00000000000E+00 0. -1.
         11    1    3    3    0    0 -0.28449287252E+01  0.28944083552E+02  0.89857677716E+01  0.30440065947E+02  0.51100000000E-03 0. -1.
        -11    1    3    3    0    0 -0.54361648434E+01 -0.44280231452E+01 -0.24795447568E+01  0.74368958337E+01  0.51100000000E-03 0.  1.
         12    1    3    3    0    0  0.14420921393E+02  0.56534515552E+01 -0.14802212652E+02  0.21424985127E+02  0.00000000000E+00 0. -1.
</event>
<event>
 7    1  0.7578565E-012  0.5930195E+02  0.7816164E-02  0.1266605E+00
        -11   -1    0    0    0    0  0.00000000000E+00  0.00000000000E+00  0.45593999997E+02  0.45594000000E+02  0.51100000000E-03 0.  1.
         11   -1    0    0    0    0 -0.00000000000E+00 -0.00000000000E+00 -0.45593999997E+02  0.45594000000E+02  0.51100000000E-03 0. -1.
    9900012    2    1    2    0    0 -0.28637835528E+02 -0.11873144378E+02  0.74580858084E+01  0.59301949365E+02  0.50000009734E+02 0.  0.
         12    1    1    2    0    0  0.28637835528E+02  0.11873144378E+02 -0.74580858084E+01  0.31886050635E+02  0.00000000000E+00 0. -1.
         11    1    3    3    0    0  0.68810678291E+01  0.11601913573E+01 -0.46835507710E+00  0.69938898471E+01  0.51100000000E-03 0. -1.
        -11    1    3    3    0    0 -0.39500562450E+02 -0.15290667385E+01  0.60303579044E+01  0.39987469233E+02  0.51100000000E-03 0.  1.
        -12    1    3    3    0    0  0.39816590929E+01 -0.11504268997E+02  0.18960829811E+01  0.12320590285E+02  0.00000000000E+00 0.  1.
</event>
<event>
 7    1  0.7578565E-012  0.5930194E+02  0.7816164E-02  0.1266605E+00
        -11   -1    0    0    0    0  0.00000000000E+00  0.00000000000E+00  0.45593999997E+02  0.45594000000E+02  0.51100000000E-03 0. -1.
         11   -1    0    0    0    0 -0.00000000000E+00 -0.00000000000E+00 -0.45593999997E+02  0.45594000000E+02  0.51100000000E-03 0.  1.
    9900012    2    1    2    0    0  0.29604230330E+02 -0.49770155965E+01 -0.10748933911E+02  0.59301941638E+02  0.49999995642E+02 0.  0.
         12    1    1    2    0    0 -0.29604230330E+02  0.49770155965E+01  0.10748933911E+02  0.31886058362E+02  0.00000000000E+00 0. -1.
         11    1    3    3    0    0  0.10046012034E+02  0.27337577616E+01  0.14518782525E+02  0.17865912670E+02  0.51100000000E-03 0. -1.
        -11    1    3    3    0    0 -0.38114994586E+01  0.40459417709E+01 -0.91591761550E+01  0.10713901299E+02  0.51100000000E-03 0.  1.
         12    1    3    3    0    0  0.23369717754E+02 -0.11756715129E+02 -0.16108540280E+02  0.30722127669E+02  0.00000000000E+00 0. -1.
</event>
<event>
 7    1  0.7578565E-012  0.5930202E+02  0.7816164E-02  0.1266605E+00
        -11   -1    0    0    0    0  0.00000000000E+00  0.00000000000E+00  0.45593999997E+02  0.45594000000E+02  0.51100000000E-03 0. -1.
         11   -1    0    0    0    0 -0.00000000000E+00 -0.00000000000E+00 -0.45593999997E+02  0.45594000000E+02  0.51100000000E-03 0.  1.
    9900012    2    1    2    0    0 -0.14026456146E+02 -0.25878766640E+02 -0.12258216752E+02  0.59302016986E+02  0.50000133059E+02 0.  0.
         12    1    1    2    0    0  0.14026456146E+02  0.25878766640E+02  0.12258216752E+02  0.31885983014E+02  0.00000000000E+00 0. -1.
         11    1    3    3    0    0 -0.17098146512E+01  0.88219903737E+01  0.59942187264E+01  0.10801927545E+02  0.51100000000E-03 0. -1.
        -11    1    3    3    0    0 -0.12082860915E+02 -0.36772144770E+02 -0.99845335881E+01  0.39973454568E+02  0.51100000000E-03 0.  1.
        -12    1    3    3    0    0 -0.23378057962E+00  0.20713877560E+01 -0.82679018903E+01  0.85266348733E+01  0.00000000000E+00 0.  1.
</event>
<event>
 7    1  0.7578565E-012  0.5930192E+02  0.7816164E-02  0.1266605E+00
        -11   -1    0    0    0    0  0.00000000000E+00  0.00000000000E+00  0.45593999997E+02  0.45594000000E+02  0.51100000000E-03 0.  1.
         11   -1    0    0    0    0 -0.00000000000E+00 -0.00000000000E+00 -0.45593999997E+02  0.45594000000E+02  0.51100000000E-03 0. -1.
    9900012    2    1    2    0    0  0.14240560909E+01  0.30578854155E+02 -0.89234604957E+01  0.59301915192E+02  0.49999947410E+02 0.  0.
         12    1    1    2    0    0 -0.14240560909E+01 -0.30578854155E+02  0.89234604957E+01  0.31886084808E+02  0.00000000000E+00 0. -1.
         11    1    3    3    0    0  0.11886472487E+02  0.26516175845E+01 -0.20874724233E+02  0.24167610889E+02  0.51100000000E-03 0. -1.
        -11    1    3    3    0    0 -0.65421721887E+01  0.24069329253E+02  0.36965362239E+01  0.25215015526E+02  0.51100000000E-03 0.  1.
         12    1    3    3    0    0 -0.39202442076E+01  0.38579073173E+01  0.82547275139E+01  0.99192887772E+01  0.00000000000E+00 0. -1.
</event>
<event>
 7    1  0.7578565E-012  0.5930195E+02  0.7816164E-02  0.1266605E+00
        -11   -1    0    0    0    0  0.00000000000E+00  0.00000000000E+00  0.45593999997E+02  0.45594000000E+02  0.51100000000E-03 0.  1.
         11   -1    0    0    0    0 -0.00000000000E+00 -0.00000000000E+00 -0.45593999997E+02  0.45594000000E+02  0.51100000000E-03 0. -1.
    9900012    2    1    2    0    0  0.23544058803E+01  0.25479447392E+02  0.19025629794E+02  0.59301952025E+02  0.50000014584E+02 0.  0.
         12    1    1    2    0    0 -0.23544058803E+01 -0.25479447392E+02 -0.19025629794E+02  0.31886047975E+02  0.00000000000E+00 0. -1.
         11    1    3    3    0    0 -0.20840994577E+02  0.10593533385E+02  0.12872563118E+02  0.26688441056E+02  0.51100000000E-03 0. -1.
        -11    1    3    3    0    0  0.13996166158E+02  0.15475333040E+02  0.93390478232E+01  0.22860367765E+02  0.51100000000E-03 0.  1.
         12    1    3    3    0    0  0.91992342989E+01 -0.58941903287E+00 -0.31859811470E+01  0.97531432037E+01  0.00000000000E+00 0. -1.
</event>
<event>
 7    1  0.7578565E-012  0.5930199E+02  0.7816164E-02  0.1266605E+00
        -11   -1    0    0    0    0  0.00000000000E+00  0.00000000000E+00  0.45593999997E+02  0.45594000000E+02  0.51100000000E-03 0.  1.
         11   -1    0    0    0    0 -0.00000000000E+00 -0.00000000000E+00 -0.45593999997E+02  0.45594000000E+02  0.51100000000E-03 0. -1.
    9900012    2    1    2    0    0  0.24150513609E+02  0.17225643100E+02  0.11693911847E+02  0.59301989555E+02  0.50000083031E+02 0.  0.
         12    1    1    2    0    0 -0.24150513609E+02 -0.17225643100E+02 -0.11693911847E+02  0.31886010445E+02  0.00000000000E+00 0. -1.
         11    1    3    3    0    0  0.11534058773E+02  0.24196723078E+01 -0.14068190584E+02  0.18352201842E+02  0.51100000000E-03 0. -1.
        -11    1    3    3    0    0 -0.16463839759E+01  0.17056543631E+02  0.16544020250E+02  0.23818918261E+02  0.51100000000E-03 0.  1.
        -12    1    3    3    0    0  0.14262838813E+02 -0.22505728387E+01  0.92180821813E+01  0.17130869452E+02  0.00000000000E+00 0.  1.
</event>
<event>
 7    1  0.7578565E-012  0.5930192E+02  0.7816164E-02  0.1266605E+00
        -11   -1    0    0    0    0  0.00000000000E+00  0.00000000000E+00  0.45593999997E+02  0.45594000000E+02  0.51100000000E-03 0. -1.
         11   -1    0    0    0    0 -0.00000000000E+00 -0.00000000000E+00 -0.45593999997E+02  0.45594000000E+02  0.51100000000E-03 0.  1.
    9900012    2    1    2    0    0  0.28295238765E+02  0.12318945410E+02 -0.80215566902E+01  0.59301916444E+02  0.49999949694E+02 0.  0.
         12    1    1    2    0    0 -0.28295238765E+02 -0.12318945410E+02  0.80215566902E+01  0.31886083556E+02  0.00000000000E+00 0. -1.
         11    1    3    3    0    0  0.94646723628E+01  0.27565431545E+01  0.40998390284E+01  0.10676480385E+02  0.51100000000E-03 0. -1.
        -11    1    3    3    0    0 -0.76067923355E+01 -0.10692083492E+02  0.17655039929E+00  0.13123075453E+02  0.51100000000E-03 0.  1.
        -12    1    3    3    0    0  0.26437358738E+02  0.20254485747E+02 -0.12297946118E+02  0.35502360606E+02  0.00000000000E+00 0.  1.
</event>
<event>
 7    1  0.7578565E-012  0.5930189E+02  0.7816164E-02  0.1266605E+00
        -11   -1    0    0    0    0  0.00000000000E+00  0.00000000000E+00  0.45593999997E+02  0.45594000000E+02  0.51100000000E-03 0.  1.
         11   -1    0    0    0    0 -0.00000000000E+00 -0.00000000000E+00 -0.45593999997E+02  0.45594000000E+02  0.51100000000E-03 0. -1.
    9900012    2    1    2    0    0 -0.15500429368E+02  0.42883425446E+01  0.27533082801E+02  0.59301892666E+02  0.49999906329E+02 0.  0.
         12    1    1    2    0    0  0.15500429368E+02 -0.42883425446E+01 -0.27533082801E+02  0.31886107334E+02  0.00000000000E+00 0. -1.
         11    1    3    3    0    0  0.53779838604E+01 -0.17997476743E+02  0.27406737554E+01  0.18982707194E+02  0.51100000000E-03 0. -1.
        -11    1    3    3    0    0 -0.16083926203E+01  0.19691288107E+01  0.62159011444E+01  0.67157890372E+01  0.51100000000E-03 0.  1.
         12    1    3    3    0    0 -0.19270020608E+02  0.20316690477E+02  0.18576507901E+02  0.33603396435E+02  0.00000000000E+00 0. -1.
</event>
<event>
 7    1  0.7578565E-012  0.5930195E+02  0.7816164E-02  0.1266605E+00
        -11   -1    0    0    0    0  0.00000000000E+00  0.00000000000E+00  0.45593999997E+02  0.45594000000E+02  0.51100000000E-03 0. -1.
         11   -1    0    0    0    0 -0.00000000000E+00 -0.00000000000E+00 -0.45593999997E+02  0.45594000000E+02  0.51100000000E-03 0.  1.
    9900012    2    1    2    0    0  0.12854182029E+02  0.45255120819E+01 -0.28827242424E+02  0.59301950370E+02  0.50000011567E+02 0.  0.
         12    1    1    2    0    0 -0.12854182029E+02 -0.45255120819E+01  0.28827242424E+02  0.31886049630E+02  0.00000000000E+00 0. -1.
         11    1    3    3    0    0  0.26315809885E+02  0.10942731784E+02 -0.24558465220E+02  0.37621582144E+02  0.51100000000E-03 0.  1.
        -11    1    3    3    0    0 -0.52962410860E+01 -0.10768619797E+02 -0.25889061453E+01  0.12276635422E+02  0.51100000000E-03 0. -1.
        -12    1    3    3    0    0 -0.81653867700E+01  0.43514000955E+01 -0.16798710587E+01  0.94037328050E+01  0.00000000000E+00 0.  1.
</event>
<event>
 7    1  0.7578565E-012  0.5930194E+02  0.7816164E-02  0.1266605E+00
        -11   -1    0    0    0    0  0.00000000000E+00  0.00000000000E+00  0.45593999997E+02  0.45594000000E+02  0.51100000000E-03 0.  1.
         11   -1    0    0    0    0 -0.00000000000E+00 -0.00000000000E+00 -0.45593999997E+02  0.45594000000E+02  0.51100000000E-03 0. -1.
    9900012    2    1    2    0    0  0.82058462637E+01 -0.80585205029E+01  0.29739626593E+02  0.59301936344E+02  0.49999985986E+02 0.  0.
         12    1    1    2    0    0 -0.82058462637E+01  0.80585205029E+01 -0.29739626593E+02  0.31886063656E+02  0.00000000000E+00 0. -1.
         11    1    3    3    0    0  0.19575291719E+02  0.13056742643E+01  0.17745446307E+02  0.26453689650E+02  0.51100000000E-03 0. -1.
        -11    1    3    3    0    0 -0.10306834076E+02 -0.17175181764E+02  0.14327634272E+02  0.24627196377E+02  0.51100000000E-03 0.  1.
        -12    1    3    3    0    0 -0.10626113797E+01  0.78109869967E+01 -0.23334539864E+01  0.82210503169E+01  0.00000000000E+00 0.  1.
</event>
<event>
 7    1  0.7578565E-012  0.5930194E+02  0.7816164E-02  0.1266605E+00
        -11   -1    0    0    0    0  0.00000000000E+00  0.00000000000E+00  0.45593999997E+02  0.45594000000E+02  0.51100000000E-03 0.  1.
         11   -1    0    0    0    0 -0.00000000000E+00 -0.00000000000E+00 -0.45593999997E+02  0.45594000000E+02  0.51100000000E-03 0. -1.
    9900012    2    1    2    0    0 -0.20585191933E+02  0.13607645435E+01  0.24312944859E+02  0.59301935728E+02  0.49999984863E+02 0.  0.
         12    1    1    2    0    0  0.20585191933E+02 -0.13607645435E+01 -0.24312944859E+02  0.31886064272E+02  0.00000000000E+00 0. -1.
         11    1    3    3    0    0 -0.61589515266E+01  0.55709856454E+01 -0.34531736044E+00  0.83119076817E+01  0.51100000000E-03 0. -1.
        -11    1    3    3    0    0 -0.16562153054E+02 -0.21159535043E+02  0.10674728103E+02  0.28913330098E+02  0.51100000000E-03 0.  1.
        -12    1    3    3    0    0  0.21359126477E+01  0.16949313941E+02  0.13983534116E+02  0.22076697948E+02  0.00000000000E+00 0.  1.
</event>
<event>
 7    1  0.7578565E-012  0.5930192E+02  0.7816164E-02  0.1266605E+00
        -11   -1    0    0    0    0  0.00000000000E+00  0.00000000000E+00  0.45593999997E+02  0.45594000000E+02  0.51100000000E-03 0.  1.
         11   -1    0    0    0    0 -0.00000000000E+00 -0.00000000000E+00 -0.45593999997E+02  0.45594000000E+02  0.51100000000E-03 0. -1.
    9900012    2    1    2    0    0  0.28187752047E+02 -0.20574587927E+01  0.14762767095E+02  0.59301924757E+02  0.49999964854E+02 0.  0.
         12    1    1    2    0    0 -0.28187752047E+02  0.20574587927E+01 -0.14762767095E+02  0.31886075243E+02  0.00000000000E+00 0. -1.
         11    1    3    3    0    0 -0.76159748088E+01 -0.11653941735E+01 -0.75148404484E+01  0.10762622501E+02  0.51100000000E-03 0. -1.
        -11    1    3    3    0    0  0.13216061881E+02  0.99268783335E+01  0.15341763845E+02  0.22551650122E+02  0.51100000000E-03 0.  1.
        -12    1    3    3    0    0  0.22587664975E+02 -0.10818942953E+02  0.69358436978E+01  0.25987652134E+02  0.00000000000E+00 0.  1.
</event>
<event>
 7    1  0.7578565E-012  0.5930194E+02  0.7816164E-02  0.1266605E+00
        -11   -1    0    0    0    0  0.00000000000E+00  0.00000000000E+00  0.45593999997E+02  0.45594000000E+02  0.51100000000E-03 0. -1.
         11   -1    0    0    0    0 -0.00000000000E+00 -0.00000000000E+00 -0.45593999997E+02  0.45594000000E+02  0.51100000000E-03 0.  1.
    9900012    2    1    2    0    0  0.31411246493E+02  0.54095135384E+01  0.88987420802E+00  0.59301935346E+02  0.49999984167E+02 0.  0.
         12    1    1    2    0    0 -0.31411246493E+02 -0.54095135384E+01 -0.88987420802E+00  0.31886064654E+02  0.00000000000E+00 0. -1.
         11    1    3    3    0    0  0.37893594337E+01  0.77582855990E+01  0.13540543845E+02  0.16059158391E+02  0.51100000000E-03 0. -1.
        -11    1    3    3    0    0  0.32039196066E+02 -0.44048274363E+01 -0.30595034232E+01  0.32484968074E+02  0.51100000000E-03 0.  1.
        -12    1    3    3    0    0 -0.44173090067E+01  0.20560553756E+01 -0.95911662141E+01  0.10757808881E+02  0.00000000000E+00 0.  1.
</event>
<event>
 7    1  0.7578565E-012  0.5930195E+02  0.7816164E-02  0.1266605E+00
        -11   -1    0    0    0    0  0.00000000000E+00  0.00000000000E+00  0.45593999997E+02  0.45594000000E+02  0.51100000000E-03 0.  1.
         11   -1    0    0    0    0 -0.00000000000E+00 -0.00000000000E+00 -0.45593999997E+02  0.45594000000E+02  0.51100000000E-03 0. -1.
    9900012    2    1    2    0    0 -0.14895866885E+02  0.18564339617E+02  0.21217887778E+02  0.59301947917E+02  0.50000007094E+02 0.  0.
         12    1    1    2    0    0  0.14895866885E+02 -0.18564339617E+02 -0.21217887778E+02  0.31886052083E+02  0.00000000000E+00 0. -1.
         11    1    3    3    0    0 -0.12543722976E+02 -0.80480099154E+01 -0.92718840961E+01  0.17552301406E+02  0.51100000000E-03 0. -1.
        -11    1    3    3    0    0  0.13726418377E+01  0.68892565762E+00  0.48943367503E+01  0.51296487855E+01  0.51100000000E-03 0.  1.
         12    1    3    3    0    0 -0.37247857462E+01  0.25923423874E+02  0.25595435124E+02  0.36619997726E+02  0.00000000000E+00 0. -1.
</event>
<event>
 7    1  0.7578565E-012  0.5930194E+02  0.7816164E-02  0.1266605E+00
        -11   -1    0    0    0    0  0.00000000000E+00  0.00000000000E+00  0.45593999997E+02  0.45594000000E+02  0.51100000000E-03 0.  1.
         11   -1    0    0    0    0 -0.00000000000E+00 -0.00000000000E+00 -0.45593999997E+02  0.45594000000E+02  0.51100000000E-03 0. -1.
    9900012    2    1    2    0    0  0.14446009634E+02  0.20809797015E+02  0.19364562820E+02  0.59301935028E+02  0.49999983587E+02 0.  0.
         12    1    1    2    0    0 -0.14446009634E+02 -0.20809797015E+02 -0.19364562820E+02  0.31886064972E+02  0.00000000000E+00 0. -1.
         11    1    3    3    0    0 -0.66268243648E+01  0.94587478754E+01  0.20718612475E+02  0.23720109943E+02  0.51100000000E-03 0.  1.
        -11    1    3    3    0    0  0.17178606233E+02  0.23918561611E+01 -0.12032230311E+02  0.21109240975E+02  0.51100000000E-03 0. -1.
         12    1    3    3    0    0  0.38942277659E+01  0.89591929788E+01  0.10678180656E+02  0.14472584111E+02  0.00000000000E+00 0. -1.
</event>
<event>
 7    1  0.7578565E-012  0.5930189E+02  0.7816164E-02  0.1266605E+00
        -11   -1    0    0    0    0  0.00000000000E+00  0.00000000000E+00  0.45593999997E+02  0.45594000000E+02  0.51100000000E-03 0.  1.
         11   -1    0    0    0    0 -0.00000000000E+00 -0.00000000000E+00 -0.45593999997E+02  0.45594000000E+02  0.51100000000E-03 0. -1.
    9900012    2    1    2    0    0 -0.11263158701E+02 -0.19848496890E+02  0.22268862497E+02  0.59301893156E+02  0.49999907223E+02 0.  0.
         12    1    1    2    0    0  0.11263158701E+02  0.19848496890E+02 -0.22268862497E+02  0.31886106844E+02  0.00000000000E+00 0. -1.
         11    1    3    3    0    0 -0.27909294885E+02 -0.21363405519E+02  0.10080920338E+02  0.36564310352E+02  0.51100000000E-03 0. -1.
        -11    1    3    3    0    0  0.80744564720E+01 -0.26585798071E+01  0.96733280012E+01  0.12877816926E+02  0.51100000000E-03 0.  1.
         12    1    3    3    0    0  0.85716797120E+01  0.41734884360E+01  0.25146141580E+01  0.98597658783E+01  0.00000000000E+00 0. -1.
</event>
<event>
 7    1  0.7578565E-012  0.5930202E+02  0.7816164E-02  0.1266604E+00
        -11   -1    0    0    0    0  0.00000000000E+00  0.00000000000E+00  0.45593999997E+02  0.45594000000E+02  0.51100000000E-03 0.  1.
         11   -1    0    0    0    0 -0.00000000000E+00 -0.00000000000E+00 -0.45593999997E+02  0.45594000000E+02  0.51100000000E-03 0. -1.
    9900012    2    1    2    0    0 -0.13695872712E+02 -0.10940503362E+02  0.26635391128E+02  0.59302021832E+02  0.50000141897E+02 0.  0.
         12    1    1    2    0    0  0.13695872712E+02  0.10940503362E+02 -0.26635391128E+02  0.31885978168E+02  0.00000000000E+00 0. -1.
         11    1    3    3    0    0  0.16674354972E+01 -0.25535041266E+02  0.16880263987E+01  0.25645040592E+02  0.51100000000E-03 0. -1.
        -11    1    3    3    0    0 -0.12353814030E+02  0.15071008753E+02  0.20698469742E+02  0.28428483531E+02  0.51100000000E-03 0.  1.
         12    1    3    3    0    0 -0.30094941790E+01 -0.47647084963E+00  0.42488949870E+01  0.52284977091E+01  0.00000000000E+00 0. -1.
</event>
<event>
 7    1  0.7578565E-012  0.5930193E+02  0.7816164E-02  0.1266605E+00
        -11   -1    0    0    0    0  0.00000000000E+00  0.00000000000E+00  0.45593999997E+02  0.45594000000E+02  0.51100000000E-03 0.  1.
         11   -1    0    0    0    0 -0.00000000000E+00 -0.00000000000E+00 -0.45593999997E+02  0.45594000000E+02  0.51100000000E-03 0. -1.
    9900012    2    1    2    0    0 -0.19115470273E+02  0.11568320013E+01 -0.25494747099E+02  0.59301927905E+02  0.49999970595E+02 0.  0.
         12    1    1    2    0    0  0.19115470273E+02 -0.11568320013E+01  0.25494747099E+02  0.31886072095E+02  0.00000000000E+00 0. -1.
         11    1    3    3    0    0  0.98725188342E+01 -0.52815568706E+01 -0.12319646298E+02  0.16647376859E+02  0.51100000000E-03 0. -1.
        -11    1    3    3    0    0 -0.23299671016E+02 -0.73041259375E+01 -0.13250096252E+02  0.27781108259E+02  0.51100000000E-03 0.  1.
        -12    1    3    3    0    0 -0.56883180915E+01  0.13742514809E+02  0.74995451806E-01  0.14873442786E+02  0.00000000000E+00 0.  1.
</event>
<event>
 7    1  0.7578565E-012  0.5930195E+02  0.7816164E-02  0.1266605E+00
        -11   -1    0    0    0    0  0.00000000000E+00  0.00000000000E+00  0.45593999997E+02  0.45594000000E+02  0.51100000000E-03 0.  1.
         11   -1    0    0    0    0 -0.00000000000E+00 -0.00000000000E+00 -0.45593999997E+02  0.45594000000E+02  0.51100000000E-03 0. -1.
    9900012    2    1    2    0    0 -0.19933899737E+02 -0.15299293024E+02  0.19628850446E+02  0.59301945124E+02  0.50000001999E+02 0.  0.
         12    1    1    2    0    0  0.19933899737E+02  0.15299293024E+02 -0.19628850446E+02  0.31886054876E+02  0.00000000000E+00 0. -1.
         11    1    3    3    0    0 -0.44308076186E+01  0.70313801432E+01 -0.11453496458E+02  0.14151146393E+02  0.51100000000E-03 0. -1.
        -11    1    3    3    0    0 -0.61387324094E+01 -0.22339730078E+02  0.19697728792E+02  0.30409671083E+02  0.51100000000E-03 0.  1.
         12    1    3    3    0    0 -0.93643597090E+01  0.90569106096E-02  0.11384618111E+02  0.14741127648E+02  0.00000000000E+00 0. -1.
</event>
<event>
 7    1  0.7578565E-012  0.5930188E+02  0.7816164E-02  0.1266605E+00
        -11   -1    0    0    0    0  0.00000000000E+00  0.00000000000E+00  0.45593999997E+02  0.45594000000E+02  0.51100000000E-03 0.  1.
         11   -1    0    0    0    0 -0.00000000000E+00 -0.00000000000E+00 -0.45593999997E+02  0.45594000000E+02  0.51100000000E-03 0. -1.
    9900012    2    1    2    0    0  0.20761401210E+02 -0.21448744032E+02  0.11208940277E+02  0.59301878523E+02  0.49999880535E+02 0.  0.
         12    1    1    2    0    0 -0.20761401210E+02  0.21448744032E+02 -0.11208940277E+02  0.31886121477E+02  0.00000000000E+00 0. -1.
         11    1    3    3    0    0  0.29641655829E+01 -0.51880583888E+01 -0.26554194443E+01  0.65386145425E+01  0.51100000000E-03 0. -1.
        -11    1    3    3    0    0 -0.14703012608E+00 -0.57962465988E+01  0.27375767703E+02  0.27983043974E+02  0.51100000000E-03 0.  1.
        -12    1    3    3    0    0  0.17944265753E+02 -0.10464439044E+02 -0.13511407982E+02  0.24780220006E+02  0.00000000000E+00 0.  1.
</event>
<event>
 7    1  0.7578565E-012  0.5930187E+02  0.7816164E-02  0.1266605E+00
        -11   -1    0    0    0    0  0.00000000000E+00  0.00000000000E+00  0.45593999997E+02  0.45594000000E+02  0.51100000000E-03 0.  1.
         11   -1    0    0    0    0 -0.00000000000E+00 -0.00000000000E+00 -0.45593999997E+02  0.45594000000E+02  0.51100000000E-03 0. -1.
    9900012    2    1    2    0    0  0.12555359181E+02 -0.34052198675E+00  0.29308226689E+02  0.59301872122E+02  0.49999868861E+02 0.  0.
         12    1    1    2    0    0 -0.12555359181E+02  0.34052198675E+00 -0.29308226689E+02  0.31886127878E+02  0.00000000000E+00 0. -1.
         11    1    3    3    0    0  0.15283814361E+02  0.13644262823E+02  0.15727043328E+01  0.20548340288E+02  0.51100000000E-03 0. -1.
        -11    1    3    3    0    0 -0.12138329673E+02 -0.12700373807E+02  0.18155423318E+02  0.25263767300E+02  0.51100000000E-03 0.  1.
        -12    1    3    3    0    0  0.94098744926E+01 -0.12844110028E+01  0.95800990385E+01  0.13489764534E+02  0.00000000000E+00 0.  1.
</event>
<event>
 7    1  0.8229109E-012  0.5930186E+02  0.7816164E-02  0.1266605E+00
        -11   -1    0    0    0    0  0.00000000000E+00  0.00000000000E+00  0.45593999997E+02  0.45594000000E+02  0.51100000000E-03 0. -1.
         11   -1    0    0    0    0 -0.00000000000E+00 -0.00000000000E+00 -0.45593999997E+02  0.45594000000E+02  0.51100000000E-03 0.  1.
    9900012    2    1    2    0    0  0.53463934058E+01 -0.53732804670E+01 -0.30972084799E+02  0.59301857207E+02  0.49999841660E+02 0.  0.
         12    1    1    2    0    0 -0.53463934058E+01  0.53732804670E+01  0.30972084799E+02  0.31886142793E+02  0.00000000000E+00 0. -1.
         11    1    3    3    0    0 -0.14570695880E+00 -0.81706751146E+00  0.12200247740E+02  0.12228445323E+02  0.51100000000E-03 0. -1.
        -11    1    3    3    0    0  0.64476273743E+01 -0.10712493005E+02 -0.30045136231E+02  0.32542888878E+02  0.51100000000E-03 0.  1.
         12    1    3    3    0    0 -0.95552700966E+00  0.61562800494E+01 -0.13127196308E+02  0.14530523006E+02  0.00000000000E+00 0. -1.
</event>
<event>
 7    1  0.7578565E-012  0.5930191E+02  0.7816164E-02  0.1266605E+00
        -11   -1    0    0    0    0  0.00000000000E+00  0.00000000000E+00  0.45593999997E+02  0.45594000000E+02  0.51100000000E-03 0.  1.
         11   -1    0    0    0    0 -0.00000000000E+00 -0.00000000000E+00 -0.45593999997E+02  0.45594000000E+02  0.51100000000E-03 0. -1.
    9900012    2    1    2    0    0 -0.31423685731E+02  0.98035809237E-01 -0.54097126649E+01  0.59301911700E+02  0.49999941043E+02 0.  0.
         12    1    1    2    0    0  0.31423685731E+02 -0.98035809237E-01  0.54097126649E+01  0.31886088300E+02  0.00000000000E+00 0. -1.
         11    1    3    3    0    0  0.24062999909E+01  0.38477433584E+01  0.14307290129E+01  0.47584025017E+01  0.51100000000E-03 0.  1.
        -11    1    3    3    0    0  0.18594582237E+00 -0.15926554675E+02  0.47149509511E+01  0.16610854354E+02  0.51100000000E-03 0. -1.
        -12    1    3    3    0    0 -0.34015931544E+02  0.12176847125E+02 -0.11555392629E+02  0.37932654844E+02  0.00000000000E+00 0.  1.
</event>
<event>
 7    1  0.7578565E-012  0.5930195E+02  0.7816164E-02  0.1266605E+00
        -11   -1    0    0    0    0  0.00000000000E+00  0.00000000000E+00  0.45593999997E+02  0.45594000000E+02  0.51100000000E-03 0. -1.
         11   -1    0    0    0    0 -0.00000000000E+00 -0.00000000000E+00 -0.45593999997E+02  0.45594000000E+02  0.51100000000E-03 0.  1.
    9900012    2    1    2    0    0  0.41268287818E+01 -0.15312817146E+02 -0.27662376192E+02  0.59301950679E+02  0.50000012130E+02 0.  0.
         12    1    1    2    0    0 -0.41268287818E+01  0.15312817146E+02  0.27662376192E+02  0.31886049321E+02  0.00000000000E+00 0. -1.
         11    1    3    3    0    0  0.15580541289E+02 -0.21379464256E+02 -0.51336187810E+01  0.26947890470E+02  0.51100000000E-03 0. -1.
        -11    1    3    3    0    0 -0.11986500991E+02  0.67151720078E+01 -0.25662971341E+02  0.29109411526E+02  0.51100000000E-03 0.  1.
        -12    1    3    3    0    0  0.53278848340E+00 -0.64852489762E+00  0.31342139303E+01  0.32446486824E+01  0.00000000000E+00 0.  1.
</event>
<event>
 7    1  0.7578565E-012  0.5930195E+02  0.7816164E-02  0.1266605E+00
        -11   -1    0    0    0    0  0.00000000000E+00  0.00000000000E+00  0.45593999997E+02  0.45594000000E+02  0.51100000000E-03 0. -1.
         11   -1    0    0    0    0 -0.00000000000E+00 -0.00000000000E+00 -0.45593999997E+02  0.45594000000E+02  0.51100000000E-03 0.  1.
    9900012    2    1    2    0    0  0.14139895995E+02  0.27971281195E+02 -0.58643742119E+01  0.59301951086E+02  0.50000012872E+02 0.  0.
         12    1    1    2    0    0 -0.14139895995E+02 -0.27971281195E+02  0.58643742119E+01  0.31886048914E+02  0.00000000000E+00 0. -1.
         11    1    3    3    0    0 -0.93828213975E+01  0.10321981502E+02 -0.25796974146E+01  0.14185749135E+02  0.51100000000E-03 0. -1.
        -11    1    3    3    0    0  0.24637294730E+02  0.24829658277E+02 -0.87113097469E+01  0.36047123873E+02  0.51100000000E-03 0.  1.
        -12    1    3    3    0    0 -0.11145773378E+01 -0.71803585826E+01  0.54266329496E+01  0.90690780781E+01  0.00000000000E+00 0.  1.
</event>
<event>
 7    1  0.7700625E-012  0.5930190E+02  0.7816164E-02  0.1266605E+00
        -11   -1    0    0    0    0  0.00000000000E+00  0.00000000000E+00  0.45593999997E+02  0.45594000000E+02  0.51100000000E-03 0. -1.
         11   -1    0    0    0    0 -0.00000000000E+00 -0.00000000000E+00 -0.45593999997E+02  0.45594000000E+02  0.51100000000E-03 0.  1.
    9900012    2    1    2    0    0  0.23485022728E+02 -0.22003975367E+01 -0.21455420876E+02  0.59301903863E+02  0.49999926749E+02 0.  0.
         12    1    1    2    0    0 -0.23485022728E+02  0.22003975367E+01  0.21455420876E+02  0.31886096137E+02  0.00000000000E+00 0. -1.
         11    1    3    3    0    0  0.19653879288E+02 -0.64842956541E+01  0.10483971170E+02  0.23199886055E+02  0.51100000000E-03 0. -1.
        -11    1    3    3    0    0  0.86545332892E+01 -0.19960744720E+01 -0.15821029186E+02  0.18143600098E+02  0.51100000000E-03 0.  1.
         12    1    3    3    0    0 -0.48233898489E+01  0.62799725893E+01 -0.16118362861E+02  0.17958417711E+02  0.00000000000E+00 0. -1.
</event>
<event>
 7    1  0.7578565E-012  0.5930192E+02  0.7816164E-02  0.1266605E+00
        -11   -1    0    0    0    0  0.00000000000E+00  0.00000000000E+00  0.45593999997E+02  0.45594000000E+02  0.51100000000E-03 0.  1.
         11   -1    0    0    0    0 -0.00000000000E+00 -0.00000000000E+00 -0.45593999997E+02  0.45594000000E+02  0.51100000000E-03 0. -1.
    9900012    2    1    2    0    0 -0.41356448673E+00 -0.31081377788E+02 -0.71062442039E+01  0.59301924866E+02  0.49999965053E+02 0.  0.
         12    1    1    2    0    0  0.41356448673E+00  0.31081377788E+02  0.71062442039E+01  0.31886075134E+02  0.00000000000E+00 0. -1.
         11    1    3    3    0    0  0.72454392645E+00 -0.70601500318E+01 -0.18304287241E+01  0.73294714644E+01  0.51100000000E-03 0. -1.
        -11    1    3    3    0    0  0.13669268995E+00  0.70200218752E+01  0.13822974670E+02  0.15504000161E+02  0.51100000000E-03 0.  1.
        -12    1    3    3    0    0 -0.12748011031E+01 -0.31041249631E+02 -0.19098790150E+02  0.36468453240E+02  0.00000000000E+00 0.  1.
</event>
<event>
 7    1  0.7578565E-012  0.5930217E+02  0.7816164E-02  0.1266604E+00
        -11   -1    0    0    0    0  0.00000000000E+00  0.00000000000E+00  0.45593999997E+02  0.45594000000E+02  0.51100000000E-03 0. -1.
         11   -1    0    0    0    0 -0.00000000000E+00 -0.00000000000E+00 -0.45593999997E+02  0.45594000000E+02  0.51100000000E-03 0.  1.
    9900012    2    1    2    0    0 -0.66468291413E+01 -0.22616591835E+02 -0.21471274468E+02  0.59302169431E+02  0.50000411079E+02 0.  0.
         12    1    1    2    0    0  0.66468291413E+01  0.22616591835E+02  0.21471274468E+02  0.31885830569E+02  0.00000000000E+00 0. -1.
         11    1    3    3    0    0 -0.12578442301E+02 -0.53195386042E+01  0.13223526717E+02  0.19009901651E+02  0.51100000000E-03 0. -1.
        -11    1    3    3    0    0  0.28737373904E+00 -0.13776653987E+02 -0.24758299069E+02  0.28334645786E+02  0.51100000000E-03 0.  1.
         12    1    3    3    0    0  0.56442394202E+01 -0.35203992429E+01 -0.99365021158E+01  0.11957621994E+02  0.00000000000E+00 0. -1.
</event>
<event>
 7    1  0.7578565E-012  0.5930194E+02  0.7816164E-02  0.1266605E+00
        -11   -1    0    0    0    0  0.00000000000E+00  0.00000000000E+00  0.45593999997E+02  0.45594000000E+02  0.51100000000E-03 0.  1.
         11   -1    0    0    0    0 -0.00000000000E+00 -0.00000000000E+00 -0.45593999997E+02  0.45594000000E+02  0.51100000000E-03 0. -1.
    9900012    2    1    2    0    0  0.10942321027E+02 -0.25582367206E+02  0.15573346863E+02  0.59301936683E+02  0.49999986605E+02 0.  0.
         12    1    1    2    0    0 -0.10942321027E+02  0.25582367206E+02 -0.15573346863E+02  0.31886063317E+02  0.00000000000E+00 0. -1.
         11    1    3    3    0    0 -0.71051657189E+01  0.48819870950E+01 -0.78460699625E+00  0.86563725826E+01  0.51100000000E-03 0. -1.
        -11    1    3    3    0    0  0.43559374249E+01 -0.33390391784E+02  0.13906240731E+02  0.36431799102E+02  0.51100000000E-03 0.  1.
        -12    1    3    3    0    0  0.13691549321E+02  0.29260374822E+01  0.24517131286E+01  0.14213764998E+02  0.00000000000E+00 0.  1.
</event>
<event>
 7    1  0.7578565E-012  0.5930194E+02  0.7816164E-02  0.1266605E+00
        -11   -1    0    0    0    0  0.00000000000E+00  0.00000000000E+00  0.45593999997E+02  0.45594000000E+02  0.51100000000E-03 0.  1.
         11   -1    0    0    0    0 -0.00000000000E+00 -0.00000000000E+00 -0.45593999997E+02  0.45594000000E+02  0.51100000000E-03 0. -1.
    9900012    2    1    2    0    0 -0.29896757028E+02 -0.70797498302E+01  0.85312176801E+01  0.59301943273E+02  0.49999998624E+02 0.  0.
         12    1    1    2    0    0  0.29896757028E+02  0.70797498302E+01 -0.85312176801E+01  0.31886056727E+02  0.00000000000E+00 0. -1.
         11    1    3    3    0    0 -0.27652079851E+02  0.12421797926E+02 -0.54439721330E+01  0.30798951551E+02  0.51100000000E-03 0. -1.
        -11    1    3    3    0    0  0.57779804767E+01 -0.13788957941E+02  0.76046939210E+01  0.16773544329E+02  0.51100000000E-03 0.  1.
         12    1    3    3    0    0 -0.80226576539E+01 -0.57125898151E+01  0.63704958922E+01  0.11729447393E+02  0.00000000000E+00 0. -1.
</event>
<event>
 7    1  0.7578565E-012  0.5930193E+02  0.7816164E-02  0.1266605E+00
        -11   -1    0    0    0    0  0.00000000000E+00  0.00000000000E+00  0.45593999997E+02  0.45594000000E+02  0.51100000000E-03 0.  1.
         11   -1    0    0    0    0 -0.00000000000E+00 -0.00000000000E+00 -0.45593999997E+02  0.45594000000E+02  0.51100000000E-03 0. -1.
    9900012    2    1    2    0    0 -0.12196845042E+02  0.24059196094E+02  0.17003336446E+02  0.59301931004E+02  0.49999976249E+02 0.  0.
         12    1    1    2    0    0  0.12196845042E+02 -0.24059196094E+02 -0.17003336446E+02  0.31886068996E+02  0.00000000000E+00 0. -1.
         11    1    3    3    0    0  0.10632220571E+02 -0.58756359523E+01 -0.55974962888E+01  0.13375319700E+02  0.51100000000E-03 0. -1.
        -11    1    3    3    0    0 -0.23657863382E+02  0.24475778455E+02  0.16954203101E+02  0.38028978869E+02  0.51100000000E-03 0.  1.
         12    1    3    3    0    0  0.82879776917E+00  0.54590535918E+01  0.56466296340E+01  0.78976324353E+01  0.00000000000E+00 0. -1.
</event>
<event>
 7    1  0.7578565E-012  0.5930193E+02  0.7816164E-02  0.1266605E+00
        -11   -1    0    0    0    0  0.00000000000E+00  0.00000000000E+00  0.45593999997E+02  0.45594000000E+02  0.51100000000E-03 0.  1.
         11   -1    0    0    0    0 -0.00000000000E+00 -0.00000000000E+00 -0.45593999997E+02  0.45594000000E+02  0.51100000000E-03 0. -1.
    9900012    2    1    2    0    0  0.45469785394E+01 -0.99642180971E+01  0.29945963433E+02  0.59301931223E+02  0.49999976647E+02 0.  0.
         12    1    1    2    0    0 -0.45469785394E+01  0.99642180971E+01 -0.29945963433E+02  0.31886068777E+02  0.00000000000E+00 0. -1.
         11    1    3    3    0    0 -0.77933472245E+01 -0.14404961917E+02  0.25375475882E+02  0.30201886784E+02  0.51100000000E-03 0. -1.
        -11    1    3    3    0    0 -0.53134309818E+01  0.73456181877E+01 -0.31728780529E+01  0.96050929594E+01  0.51100000000E-03 0.  1.
        -12    1    3    3    0    0  0.17653756746E+02 -0.29048743677E+01  0.77433656042E+01  0.19494951480E+02  0.00000000000E+00 0.  1.
</event>
<event>
 7    1  0.7578565E-012  0.5930192E+02  0.7816164E-02  0.1266605E+00
        -11   -1    0    0    0    0  0.00000000000E+00  0.00000000000E+00  0.45593999997E+02  0.45594000000E+02  0.51100000000E-03 0.  1.
         11   -1    0    0    0    0 -0.00000000000E+00 -0.00000000000E+00 -0.45593999997E+02  0.45594000000E+02  0.51100000000E-03 0. -1.
    9900012    2    1    2    0    0 -0.12474731877E+02 -0.32440199126E+01  0.29164698263E+02  0.59301918000E+02  0.49999952531E+02 0.  0.
         12    1    1    2    0    0  0.12474731877E+02  0.32440199126E+01 -0.29164698263E+02  0.31886082000E+02  0.00000000000E+00 0. -1.
         11    1    3    3    0    0 -0.15880064747E+02  0.93688062457E+01 -0.51260219063E+01  0.19137060581E+02  0.51100000000E-03 0. -1.
        -11    1    3    3    0    0  0.34082817157E+01  0.17924386022E+01  0.18049266619E+02  0.18455493657E+02  0.51100000000E-03 0.  1.
        -12    1    3    3    0    0 -0.29488460477E-02 -0.14405264760E+02  0.16241453550E+02  0.21709363762E+02  0.00000000000E+00 0.  1.
</event>
<event>
 7    1  0.7578565E-012  0.5930193E+02  0.7816164E-02  0.1266605E+00
        -11   -1    0    0    0    0  0.00000000000E+00  0.00000000000E+00  0.45593999997E+02  0.45594000000E+02  0.51100000000E-03 0. -1.
         11   -1    0    0    0    0 -0.00000000000E+00 -0.00000000000E+00 -0.45593999997E+02  0.45594000000E+02  0.51100000000E-03 0.  1.
    9900012    2    1    2    0    0  0.28755217558E+02 -0.36873204604E+01  0.13276403075E+02  0.59301925491E+02  0.49999966193E+02 0.  0.
         12    1    1    2    0    0 -0.28755217558E+02  0.36873204604E+01 -0.13276403075E+02  0.31886074509E+02  0.00000000000E+00 0. -1.
         11    1    3    3    0    0 -0.44613653054E+00  0.24954598550E+00  0.55827890102E+01  0.56061434512E+01  0.51100000000E-03 0. -1.
        -11    1    3    3    0    0  0.40436716066E+02 -0.17386888442E+01  0.10689559367E+02  0.41861888691E+02  0.51100000000E-03 0.  1.
        -12    1    3    3    0    0 -0.11235361977E+02 -0.21981776017E+01 -0.29959453020E+01  0.11833893348E+02  0.00000000000E+00 0.  1.
</event>
<event>
 7    1  0.7578565E-012  0.5930196E+02  0.7816164E-02  0.1266605E+00
        -11   -1    0    0    0    0  0.00000000000E+00  0.00000000000E+00  0.45593999997E+02  0.45594000000E+02  0.51100000000E-03 0. -1.
         11   -1    0    0    0    0 -0.00000000000E+00 -0.00000000000E+00 -0.45593999997E+02  0.45594000000E+02  0.51100000000E-03 0.  1.
    9900012    2    1    2    0    0  0.10994860628E+01 -0.30137602532E+02 -0.10355469343E+02  0.59301957579E+02  0.50000024714E+02 0.  0.
         12    1    1    2    0    0 -0.10994860628E+01  0.30137602532E+02  0.10355469343E+02  0.31886042421E+02  0.00000000000E+00 0. -1.
         11    1    3    3    0    0 -0.15366763858E+02 -0.44968345994E+01  0.67584227692E+01  0.17379160839E+02  0.51100000000E-03 0. -1.
        -11    1    3    3    0    0  0.13072460351E+02 -0.14862180602E+02 -0.22015737086E+02  0.29605173730E+02  0.51100000000E-03 0.  1.
         12    1    3    3    0    0  0.33937895696E+01 -0.10778587330E+02  0.49018449741E+01  0.12317623011E+02  0.00000000000E+00 0. -1.
</event>
<event>
 7    1  0.7578565E-012  0.5930198E+02  0.7816164E-02  0.1266605E+00
        -11   -1    0    0    0    0  0.00000000000E+00  0.00000000000E+00  0.45593999997E+02  0.45594000000E+02  0.51100000000E-03 0.  1.
         11   -1    0    0    0    0 -0.00000000000E+00 -0.00000000000E+00 -0.45593999997E+02  0.45594000000E+02  0.51100000000E-03 0. -1.
    9900012    2    1    2    0    0 -0.10942678789E+02  0.22736540239E+02  0.19494247605E+02  0.59301981578E+02  0.50000068482E+02 0.  0.
         12    1    1    2    0    0  0.10942678789E+02 -0.22736540239E+02 -0.19494247605E+02  0.31886018422E+02  0.00000000000E+00 0. -1.
         11    1    3    3    0    0  0.20534282851E+01 -0.10786282559E+02 -0.78973709273E+01  0.13525122069E+02  0.51100000000E-03 0. -1.
        -11    1    3    3    0    0 -0.11279283693E+02  0.21632729732E+02  0.15690488861E+02  0.29006700558E+02  0.51100000000E-03 0.  1.
         12    1    3    3    0    0 -0.17168233804E+01  0.11890093066E+02  0.11701129672E+02  0.16770158950E+02  0.00000000000E+00 0. -1.
</event>
<event>
 7    1  0.7578565E-012  0.5930183E+02  0.7816164E-02  0.1266605E+00
        -11   -1    0    0    0    0  0.00000000000E+00  0.00000000000E+00  0.45593999997E+02  0.45594000000E+02  0.51100000000E-03 0.  1.
         11   -1    0    0    0    0 -0.00000000000E+00 -0.00000000000E+00 -0.45593999997E+02  0.45594000000E+02  0.51100000000E-03 0. -1.
    9900012    2    1    2    0    0 -0.21488467254E+02 -0.22324582801E+02  0.75224157622E+01  0.59301828059E+02  0.49999788500E+02 0.  0.
         12    1    1    2    0    0  0.21488467254E+02  0.22324582801E+02 -0.75224157622E+01  0.31886171941E+02  0.00000000000E+00 0. -1.
         11    1    3    3    0    0 -0.19139066291E+02 -0.89398113594E+01  0.18720439173E+02  0.28225501390E+02  0.51100000000E-03 0.  1.
        -11    1    3    3    0    0 -0.10907754519E+02 -0.14695364480E+02 -0.12717288229E+02  0.22285920802E+02  0.51100000000E-03 0. -1.
         12    1    3    3    0    0  0.85583535565E+01  0.13105930385E+01  0.15192648185E+01  0.87904058666E+01  0.00000000000E+00 0. -1.
</event>
<event>
 7    1  0.7578565E-012  0.5930194E+02  0.7816164E-02  0.1266605E+00
        -11   -1    0    0    0    0  0.00000000000E+00  0.00000000000E+00  0.45593999997E+02  0.45594000000E+02  0.51100000000E-03 0.  1.
         11   -1    0    0    0    0 -0.00000000000E+00 -0.00000000000E+00 -0.45593999997E+02  0.45594000000E+02  0.51100000000E-03 0. -1.
    9900012    2    1    2    0    0  0.22140298379E+02 -0.48635961233E+01  0.22424834341E+02  0.59301943882E+02  0.49999999733E+02 0.  0.
         12    1    1    2    0    0 -0.22140298379E+02  0.48635961233E+01 -0.22424834341E+02  0.31886056118E+02  0.00000000000E+00 0. -1.
         11    1    3    3    0    0  0.34908410014E+01  0.13945573575E+02  0.81427215039E+01  0.16521770697E+02  0.51100000000E-03 0. -1.
        -11    1    3    3    0    0 -0.25302999765E+01 -0.18168341837E+02  0.10856529677E+02  0.21315611649E+02  0.51100000000E-03 0.  1.
         12    1    3    3    0    0  0.21179757354E+02 -0.64082786138E+00  0.34255831601E+01  0.21464561535E+02  0.00000000000E+00 0. -1.
</event>
<event>
 7    1  0.7578565E-012  0.5930197E+02  0.7816164E-02  0.1266605E+00
        -11   -1    0    0    0    0  0.00000000000E+00  0.00000000000E+00  0.45593999997E+02  0.45594000000E+02  0.51100000000E-03 0.  1.
         11   -1    0    0    0    0 -0.00000000000E+00 -0.00000000000E+00 -0.45593999997E+02  0.45594000000E+02  0.51100000000E-03 0. -1.
    9900012    2    1    2    0    0  0.57237708942E+01 -0.30688912317E+02  0.64921398750E+01  0.59301972141E+02  0.50000051272E+02 0.  0.
         12    1    1    2    0    0 -0.57237708942E+01  0.30688912317E+02 -0.64921398750E+01  0.31886027859E+02  0.00000000000E+00 0. -1.
         11    1    3    3    0    0  0.12669315173E+02  0.38705432152E+01  0.33754626159E+01  0.13670640068E+02  0.51100000000E-03 0. -1.
        -11    1    3    3    0    0  0.33083570756E+01 -0.34510023784E+02 -0.73967903303E+00  0.34676131466E+02  0.51100000000E-03 0.  1.
        -12    1    3    3    0    0 -0.10253901355E+02 -0.49431748229E-01  0.38563562921E+01  0.10955200607E+02  0.00000000000E+00 0.  1.
</event>
<event>
 7    1  0.7578565E-012  0.5930194E+02  0.7816164E-02  0.1266605E+00
        -11   -1    0    0    0    0  0.00000000000E+00  0.00000000000E+00  0.45593999997E+02  0.45594000000E+02  0.51100000000E-03 0.  1.
         11   -1    0    0    0    0 -0.00000000000E+00 -0.00000000000E+00 -0.45593999997E+02  0.45594000000E+02  0.51100000000E-03 0. -1.
    9900012    2    1    2    0    0  0.13504656901E+02  0.17242711300E+01  0.28833519547E+02  0.59301941629E+02  0.49999995626E+02 0.  0.
         12    1    1    2    0    0 -0.13504656901E+02 -0.17242711300E+01 -0.28833519547E+02  0.31886058371E+02  0.00000000000E+00 0. -1.
         11    1    3    3    0    0  0.15911976197E+02  0.15659494491E+02  0.25714085395E+01  0.22472714485E+02  0.51100000000E-03 0. -1.
        -11    1    3    3    0    0 -0.10805401726E+02 -0.80744181330E+01  0.21849948469E+02  0.25678262850E+02  0.51100000000E-03 0.  1.
         12    1    3    3    0    0  0.83980824302E+01 -0.58608052278E+01  0.44121625392E+01  0.11150964294E+02  0.00000000000E+00 0. -1.
</event>
<event>
 7    1  0.7578565E-012  0.5930190E+02  0.7816164E-02  0.1266605E+00
        -11   -1    0    0    0    0  0.00000000000E+00  0.00000000000E+00  0.45593999997E+02  0.45594000000E+02  0.51100000000E-03 0.  1.
         11   -1    0    0    0    0 -0.00000000000E+00 -0.00000000000E+00 -0.45593999997E+02  0.45594000000E+02  0.51100000000E-03 0. -1.
    9900012    2    1    2    0    0 -0.17870914860E+02 -0.16653504091E+02  0.20494257981E+02  0.59301899475E+02  0.49999918747E+02 0.  0.
         12    1    1    2    0    0  0.17870914860E+02  0.16653504091E+02 -0.20494257981E+02  0.31886100525E+02  0.00000000000E+00 0. -1.
         11    1    3    3    0    0 -0.58674858546E+01  0.15092255788E+02  0.70640780112E+01  0.17666487297E+02  0.51100000000E-03 0. -1.
        -11    1    3    3    0    0 -0.16773321801E+02 -0.16879677459E+02  0.79704736758E+01  0.25095742393E+02  0.51100000000E-03 0.  1.
         12    1    3    3    0    0  0.47698927951E+01 -0.14866082420E+02  0.54597062943E+01  0.16539669785E+02  0.00000000000E+00 0. -1.
</event>
<event>
 7    1  0.7578565E-012  0.5930195E+02  0.7816164E-02  0.1266605E+00
        -11   -1    0    0    0    0  0.00000000000E+00  0.00000000000E+00  0.45593999997E+02  0.45594000000E+02  0.51100000000E-03 0.  1.
         11   -1    0    0    0    0 -0.00000000000E+00 -0.00000000000E+00 -0.45593999997E+02  0.45594000000E+02  0.51100000000E-03 0. -1.
    9900012    2    1    2    0    0  0.14404330787E+02  0.18757809103E+02  0.21386439129E+02  0.59301954049E+02  0.50000018276E+02 0.  0.
         12    1    1    2    0    0 -0.14404330787E+02 -0.18757809103E+02 -0.21386439129E+02  0.31886045951E+02  0.00000000000E+00 0. -1.
         11    1    3    3    0    0  0.24526293241E+02  0.90938289858E+01  0.17024803095E+02  0.31210266043E+02  0.51100000000E-03 0. -1.
        -11    1    3    3    0    0 -0.66313382443E+01  0.12566106796E+02  0.12401074509E+02  0.18859171142E+02  0.51100000000E-03 0.  1.
         12    1    3    3    0    0 -0.34906242097E+01 -0.29021266784E+01 -0.80394384760E+01  0.92325168638E+01  0.00000000000E+00 0. -1.
</event>
<event>
 7    1  0.7578565E-012  0.5930192E+02  0.7816164E-02  0.1266605E+00
        -11   -1    0    0    0    0  0.00000000000E+00  0.00000000000E+00  0.45593999997E+02  0.45594000000E+02  0.51100000000E-03 0.  1.
         11   -1    0    0    0    0 -0.00000000000E+00 -0.00000000000E+00 -0.45593999997E+02  0.45594000000E+02  0.51100000000E-03 0. -1.
    9900012    2    1    2    0    0 -0.29044784314E+02  0.13130881594E+02 -0.83818785561E+00  0.59301919868E+02  0.49999955939E+02 0.  0.
         12    1    1    2    0    0  0.29044784314E+02 -0.13130881594E+02  0.83818785561E+00  0.31886080132E+02  0.00000000000E+00 0. -1.
         11    1    3    3    0    0  0.31488307265E+01  0.14626720417E+02 -0.16851752497E+01  0.15056423911E+02  0.51100000000E-03 0. -1.
        -11    1    3    3    0    0 -0.33901220630E+02 -0.10157229925E+02  0.15742392002E+00  0.35390491132E+02  0.51100000000E-03 0.  1.
        -12    1    3    3    0    0  0.17076055900E+01  0.86613911024E+01  0.68956347408E+00  0.88550048257E+01  0.00000000000E+00 0.  1.
</event>
<event>
 7    1  0.7578565E-012  0.5930192E+02  0.7816164E-02  0.1266605E+00
        -11   -1    0    0    0    0  0.00000000000E+00  0.00000000000E+00  0.45593999997E+02  0.45594000000E+02  0.51100000000E-03 0.  1.
         11   -1    0    0    0    0 -0.00000000000E+00 -0.00000000000E+00 -0.45593999997E+02  0.45594000000E+02  0.51100000000E-03 0. -1.
    9900012    2    1    2    0    0 -0.23043135325E+02 -0.44656829449E+01  0.21582250381E+02  0.59301922454E+02  0.49999960654E+02 0.  0.
         12    1    1    2    0    0  0.23043135325E+02  0.44656829449E+01 -0.21582250381E+02  0.31886077546E+02  0.00000000000E+00 0. -1.
         11    1    3    3    0    0 -0.48687389079E+01 -0.14291784965E+02 -0.55379606912E+01  0.16081938469E+02  0.51100000000E-03 0. -1.
        -11    1    3    3    0    0  0.34786163152E+01 -0.34598804023E+01  0.13566359820E+02  0.14426283752E+02  0.51100000000E-03 0.  1.
         12    1    3    3    0    0 -0.21653012732E+02  0.13285982423E+02  0.13553851253E+02  0.28793700233E+02  0.00000000000E+00 0. -1.
</event>
<event>
 7    1  0.7578565E-012  0.5930194E+02  0.7816164E-02  0.1266605E+00
        -11   -1    0    0    0    0  0.00000000000E+00  0.00000000000E+00  0.45593999997E+02  0.45594000000E+02  0.51100000000E-03 0. -1.
         11   -1    0    0    0    0 -0.00000000000E+00 -0.00000000000E+00 -0.45593999997E+02  0.45594000000E+02  0.51100000000E-03 0.  1.
    9900012    2    1    2    0    0 -0.17635175357E+02 -0.25018984768E+02 -0.89315147696E+01  0.59301937766E+02  0.49999988580E+02 0.  0.
         12    1    1    2    0    0  0.17635175357E+02  0.25018984768E+02  0.89315147696E+01  0.31886062234E+02  0.00000000000E+00 0. -1.
         11    1    3    3    0    0  0.27247333436E+01  0.20546209625E+01  0.29327156348E+00  0.34251492762E+01  0.51100000000E-03 0. -1.
        -11    1    3    3    0    0 -0.22579165136E+02 -0.35413292716E+02  0.16042074636E+01  0.42029673816E+02  0.51100000000E-03 0.  1.
        -12    1    3    3    0    0  0.22192564356E+01  0.83396869853E+01 -0.10828993797E+02  0.13847114674E+02  0.00000000000E+00 0.  1.
</event>
<event>
 7    1  0.7578565E-012  0.5930194E+02  0.7816164E-02  0.1266605E+00
        -11   -1    0    0    0    0  0.00000000000E+00  0.00000000000E+00  0.45593999997E+02  0.45594000000E+02  0.51100000000E-03 0.  1.
         11   -1    0    0    0    0 -0.00000000000E+00 -0.00000000000E+00 -0.45593999997E+02  0.45594000000E+02  0.51100000000E-03 0. -1.
    9900012    2    1    2    0    0 -0.10868527392E+02 -0.17774067199E+02  0.24138735049E+02  0.59301939060E+02  0.49999990941E+02 0.  0.
         12    1    1    2    0    0  0.10868527392E+02  0.17774067199E+02 -0.24138735049E+02  0.31886060940E+02  0.00000000000E+00 0. -1.
         11    1    3    3    0    0 -0.13216463951E+02 -0.26998421876E+02  0.18393497304E+02  0.35240749801E+02  0.51100000000E-03 0. -1.
        -11    1    3    3    0    0  0.66791528218E+01  0.25528082287E+01  0.11982068923E+02  0.13953418513E+02  0.51100000000E-03 0.  1.
         12    1    3    3    0    0 -0.43312162630E+01  0.66715464490E+01 -0.62368311772E+01  0.10107770747E+02  0.00000000000E+00 0. -1.
</event>
<event>
 7    1  0.7578565E-012  0.5930194E+02  0.7816164E-02  0.1266605E+00
        -11   -1    0    0    0    0  0.00000000000E+00  0.00000000000E+00  0.45593999997E+02  0.45594000000E+02  0.51100000000E-03 0.  1.
         11   -1    0    0    0    0 -0.00000000000E+00 -0.00000000000E+00 -0.45593999997E+02  0.45594000000E+02  0.51100000000E-03 0. -1.
    9900012    2    1    2    0    0  0.11675073136E+02 -0.82274416283E+01  0.28508286388E+02  0.59301944721E+02  0.50000001264E+02 0.  0.
         12    1    1    2    0    0 -0.11675073136E+02  0.82274416283E+01 -0.28508286388E+02  0.31886055279E+02  0.00000000000E+00 0. -1.
         11    1    3    3    0    0  0.15942515475E+02 -0.17033687750E+02  0.18286615862E+01  0.23402015330E+02  0.51100000000E-03 0. -1.
        -11    1    3    3    0    0  0.11859631608E+01  0.13064138203E+02  0.66462635694E+01  0.14705476372E+02  0.51100000000E-03 0.  1.
         12    1    3    3    0    0 -0.54534054997E+01 -0.42578920814E+01  0.20033361233E+02  0.21194453020E+02  0.00000000000E+00 0. -1.
</event>
<event>
 7    1  0.7578565E-012  0.5930196E+02  0.7816164E-02  0.1266605E+00
        -11   -1    0    0    0    0  0.00000000000E+00  0.00000000000E+00  0.45593999997E+02  0.45594000000E+02  0.51100000000E-03 0.  1.
         11   -1    0    0    0    0 -0.00000000000E+00 -0.00000000000E+00 -0.45593999997E+02  0.45594000000E+02  0.51100000000E-03 0. -1.
    9900012    2    1    2    0    0  0.66891829998E+01 -0.18209932405E+02  0.25305593401E+02  0.59301955015E+02  0.50000020039E+02 0.  0.
         12    1    1    2    0    0 -0.66891829998E+01  0.18209932405E+02 -0.25305593401E+02  0.31886044985E+02  0.00000000000E+00 0. -1.
         11    1    3    3    0    0  0.79251740181E+01 -0.35406556264E+01  0.61574877030E+01  0.10642334357E+02  0.51100000000E-03 0. -1.
        -11    1    3    3    0    0 -0.21181862128E+02 -0.62472011447E+01  0.45523777618E+01  0.22548236048E+02  0.51100000000E-03 0.  1.
        -12    1    3    3    0    0  0.19945871109E+02 -0.84220756338E+01  0.14595727936E+02  0.26111384611E+02  0.00000000000E+00 0.  1.
</event>
<event>
 7    1  0.7578565E-012  0.5930170E+02  0.7816164E-02  0.1266606E+00
        -11   -1    0    0    0    0  0.00000000000E+00  0.00000000000E+00  0.45593999997E+02  0.45594000000E+02  0.51100000000E-03 0.  1.
         11   -1    0    0    0    0 -0.00000000000E+00 -0.00000000000E+00 -0.45593999997E+02  0.45594000000E+02  0.51100000000E-03 0. -1.
    9900012    2    1    2    0    0  0.10019396977E+02 -0.22640130929E+02  0.20094082501E+02  0.59301702068E+02  0.49999558721E+02 0.  0.
         12    1    1    2    0    0 -0.10019396977E+02  0.22640130929E+02 -0.20094082501E+02  0.31886297932E+02  0.00000000000E+00 0. -1.
         11    1    3    3    0    0  0.19547962668E+02 -0.18502500358E+02 -0.27918410241E+01  0.27060298234E+02  0.51100000000E-03 0. -1.
        -11    1    3    3    0    0  0.13204819008E+01 -0.58186423511E+01  0.20026774082E+02  0.20896697147E+02  0.51100000000E-03 0.  1.
         12    1    3    3    0    0 -0.10849047592E+02  0.16810117799E+01  0.28591494431E+01  0.11344706686E+02  0.00000000000E+00 0. -1.
</event>
<event>
 7    1  0.7578565E-012  0.5930194E+02  0.7816164E-02  0.1266605E+00
        -11   -1    0    0    0    0  0.00000000000E+00  0.00000000000E+00  0.45593999997E+02  0.45594000000E+02  0.51100000000E-03 0.  1.
         11   -1    0    0    0    0 -0.00000000000E+00 -0.00000000000E+00 -0.45593999997E+02  0.45594000000E+02  0.51100000000E-03 0. -1.
    9900012    2    1    2    0    0 -0.26172058512E+02 -0.14585126489E+01  0.18155363682E+02  0.59301935076E+02  0.49999983675E+02 0.  0.
         12    1    1    2    0    0  0.26172058512E+02  0.14585126489E+01 -0.18155363682E+02  0.31886064924E+02  0.00000000000E+00 0. -1.
         11    1    3    3    0    0 -0.20316046088E+02  0.12049238886E+02  0.12790387340E+02  0.26861122369E+02  0.51100000000E-03 0. -1.
        -11    1    3    3    0    0 -0.12440669744E+02 -0.18689248587E+02  0.77129594976E+01  0.23739166390E+02  0.51100000000E-03 0.  1.
        -12    1    3    3    0    0  0.65846573199E+01  0.51814970524E+01 -0.23479831558E+01  0.87016463169E+01  0.00000000000E+00 0.  1.
</event>
<event>
 7    1  0.7578565E-012  0.5930197E+02  0.7816164E-02  0.1266605E+00
        -11   -1    0    0    0    0  0.00000000000E+00  0.00000000000E+00  0.45593999997E+02  0.45594000000E+02  0.51100000000E-03 0.  1.
         11   -1    0    0    0    0 -0.00000000000E+00 -0.00000000000E+00 -0.45593999997E+02  0.45594000000E+02  0.51100000000E-03 0. -1.
    9900012    2    1    2    0    0 -0.23084828540E+02 -0.21970392518E+02  0.10542835854E+01  0.59301969046E+02  0.50000045628E+02 0.  0.
         12    1    1    2    0    0  0.23084828540E+02  0.21970392518E+02 -0.10542835854E+01  0.31886030954E+02  0.00000000000E+00 0. -1.
         11    1    3    3    0    0 -0.26373317851E+02 -0.93180523040E+01 -0.18113462546E+02  0.33323798086E+02  0.51100000000E-03 0. -1.
        -11    1    3    3    0    0  0.48015657387E+01 -0.87349835055E+01  0.49033292779E+01  0.11108447626E+02  0.51100000000E-03 0.  1.
         12    1    3    3    0    0 -0.15130764274E+01 -0.39173567082E+01  0.14264416854E+02  0.14869723334E+02  0.00000000000E+00 0. -1.
</event>
<event>
 7    1  0.7578565E-012  0.5930195E+02  0.7816164E-02  0.1266605E+00
        -11   -1    0    0    0    0  0.00000000000E+00  0.00000000000E+00  0.45593999997E+02  0.45594000000E+02  0.51100000000E-03 0.  1.
         11   -1    0    0    0    0 -0.00000000000E+00 -0.00000000000E+00 -0.45593999997E+02  0.45594000000E+02  0.51100000000E-03 0. -1.
    9900012    2    1    2    0    0 -0.30283448097E+02 -0.23018051243E+01  0.97125990810E+01  0.59301951070E+02  0.50000012843E+02 0.  0.
         12    1    1    2    0    0  0.30283448097E+02  0.23018051243E+01 -0.97125990810E+01  0.31886048930E+02  0.00000000000E+00 0. -1.
         11    1    3    3    0    0  0.10031459763E+01 -0.56192442160E+01  0.20414487222E+02  0.21197487969E+02  0.51100000000E-03 0. -1.
        -11    1    3    3    0    0 -0.25186304802E+02 -0.54345637560E+01 -0.90500132034E+01  0.27309104197E+02  0.51100000000E-03 0.  1.
        -12    1    3    3    0    0 -0.61002892717E+01  0.87520028477E+01 -0.16518749379E+01  0.10795358904E+02  0.00000000000E+00 0.  1.
</event>
<event>
 7    1  0.7578565E-012  0.5930194E+02  0.7816164E-02  0.1266605E+00
        -11   -1    0    0    0    0  0.00000000000E+00  0.00000000000E+00  0.45593999997E+02  0.45594000000E+02  0.51100000000E-03 0.  1.
         11   -1    0    0    0    0 -0.00000000000E+00 -0.00000000000E+00 -0.45593999997E+02  0.45594000000E+02  0.51100000000E-03 0. -1.
    9900012    2    1    2    0    0 -0.15343624037E+02  0.25035820352E+02  0.12429880170E+02  0.59301936895E+02  0.49999986991E+02 0.  0.
         12    1    1    2    0    0  0.15343624037E+02 -0.25035820352E+02 -0.12429880170E+02  0.31886063105E+02  0.00000000000E+00 0. -1.
         11    1    3    3    0    0 -0.20301307647E+02 -0.67612663159E+01  0.51440099668E+01  0.22007240926E+02  0.51100000000E-03 0. -1.
        -11    1    3    3    0    0  0.77184021809E+01  0.31184773962E+02  0.97195151905E+01  0.33563862040E+02  0.51100000000E-03 0.  1.
        -12    1    3    3    0    0 -0.27607185706E+01  0.61231270675E+00 -0.24336449872E+01  0.37308339284E+01  0.00000000000E+00 0.  1.
</event>
<event>
 7    1  0.7578565E-012  0.5930196E+02  0.7816164E-02  0.1266605E+00
        -11   -1    0    0    0    0  0.00000000000E+00  0.00000000000E+00  0.45593999997E+02  0.45594000000E+02  0.51100000000E-03 0. -1.
         11   -1    0    0    0    0 -0.00000000000E+00 -0.00000000000E+00 -0.45593999997E+02  0.45594000000E+02  0.51100000000E-03 0.  1.
    9900012    2    1    2    0    0 -0.24463891860E+02 -0.15005213323E+02 -0.13895362902E+02  0.59301960077E+02  0.50000029270E+02 0.  0.
         12    1    1    2    0    0  0.24463891860E+02  0.15005213323E+02  0.13895362902E+02  0.31886039923E+02  0.00000000000E+00 0. -1.
         11    1    3    3    0    0  0.35143166951E+01 -0.14691259577E+02 -0.51291160544E+01  0.15952785386E+02  0.51100000000E-03 0. -1.
        -11    1    3    3    0    0 -0.27504461233E+02  0.58639513675E+01 -0.17138593624E+02  0.32933458746E+02  0.51100000000E-03 0.  1.
        -12    1    3    3    0    0 -0.47374732221E+00 -0.61779051129E+01  0.83723467764E+01  0.10415715945E+02  0.00000000000E+00 0.  1.
</event>
<event>
 7    1  0.7578565E-012  0.5930198E+02  0.7816164E-02  0.1266605E+00
        -11   -1    0    0    0    0  0.00000000000E+00  0.00000000000E+00  0.45593999997E+02  0.45594000000E+02  0.51100000000E-03 0. -1.
         11   -1    0    0    0    0 -0.00000000000E+00 -0.00000000000E+00 -0.45593999997E+02  0.45594000000E+02  0.51100000000E-03 0.  1.
    9900012    2    1    2    0    0 -0.11174634440E+02  0.26642952097E+02 -0.13490706372E+02  0.59301976264E+02  0.50000058791E+02 0.  0.
         12    1    1    2    0    0  0.11174634440E+02 -0.26642952097E+02  0.13490706372E+02  0.31886023736E+02  0.00000000000E+00 0. -1.
         11    1    3    3    0    0 -0.20030579131E+02  0.47331531467E+01  0.72115818587E+01  0.21809029144E+02  0.51100000000E-03 0. -1.
        -11    1    3    3    0    0  0.13338723140E+02  0.22694263126E+02 -0.15369669938E+02  0.30482419000E+02  0.51100000000E-03 0.  1.
         12    1    3    3    0    0 -0.44827784498E+01 -0.78446417594E+00 -0.53326182921E+01  0.70105281201E+01  0.00000000000E+00 0. -1.
</event>
<event>
 7    1  0.7578565E-012  0.5930196E+02  0.7816164E-02  0.1266605E+00
        -11   -1    0    0    0    0  0.00000000000E+00  0.00000000000E+00  0.45593999997E+02  0.45594000000E+02  0.51100000000E-03 0.  1.
         11   -1    0    0    0    0 -0.00000000000E+00 -0.00000000000E+00 -0.45593999997E+02  0.45594000000E+02  0.51100000000E-03 0. -1.
    9900012    2    1    2    0    0 -0.27748807052E+01 -0.29982489538E+02  0.10491420611E+02  0.59301959978E+02  0.50000029090E+02 0.  0.
         12    1    1    2    0    0  0.27748807052E+01  0.29982489538E+02 -0.10491420611E+02  0.31886040022E+02  0.00000000000E+00 0. -1.
         11    1    3    3    0    0 -0.99590440190E+01 -0.74125510597E+01 -0.17096068663E+02  0.21128275722E+02  0.51100000000E-03 0. -1.
        -11    1    3    3    0    0  0.80400839725E+01 -0.15769678828E+02  0.12704378234E+02  0.21788229556E+02  0.51100000000E-03 0.  1.
         12    1    3    3    0    0 -0.85592065877E+00 -0.68002596502E+01  0.14883111040E+02  0.16385454700E+02  0.00000000000E+00 0. -1.
</event>
<event>
 7    1  0.7578565E-012  0.5930176E+02  0.7816164E-02  0.1266605E+00
        -11   -1    0    0    0    0  0.00000000000E+00  0.00000000000E+00  0.45593999997E+02  0.45594000000E+02  0.51100000000E-03 0. -1.
         11   -1    0    0    0    0 -0.00000000000E+00 -0.00000000000E+00 -0.45593999997E+02  0.45594000000E+02  0.51100000000E-03 0.  1.
    9900012    2    1    2    0    0  0.33920869034E+01 -0.31645998308E+02 -0.19381894289E+01  0.59301764087E+02  0.49999671830E+02 0.  0.
         12    1    1    2    0    0 -0.33920869034E+01  0.31645998308E+02  0.19381894289E+01  0.31886235913E+02  0.00000000000E+00 0. -1.
         11    1    3    3    0    0 -0.60238520500E+01  0.43000813385E+01 -0.21145718745E+01  0.76973311941E+01  0.51100000000E-03 0. -1.
        -11    1    3    3    0    0  0.20434299626E+02 -0.88173220192E+01  0.13853320891E+01  0.22298540626E+02  0.51100000000E-03 0.  1.
        -12    1    3    3    0    0 -0.11018360673E+02 -0.27128757627E+02 -0.12089496435E+01  0.29305892267E+02  0.00000000000E+00 0.  1.
</event>
<event>
 7    1  0.7578565E-012  0.5930194E+02  0.7816164E-02  0.1266605E+00
        -11   -1    0    0    0    0  0.00000000000E+00  0.00000000000E+00  0.45593999997E+02  0.45594000000E+02  0.51100000000E-03 0.  1.
         11   -1    0    0    0    0 -0.00000000000E+00 -0.00000000000E+00 -0.45593999997E+02  0.45594000000E+02  0.51100000000E-03 0. -1.
    9900012    2    1    2    0    0  0.11852185398E+02 -0.12192176334E+02  0.26974010127E+02  0.59301942156E+02  0.49999996587E+02 0.  0.
         12    1    1    2    0    0 -0.11852185398E+02  0.12192176334E+02 -0.26974010127E+02  0.31886057844E+02  0.00000000000E+00 0. -1.
         11    1    3    3    0    0  0.24203413826E+01 -0.10121706588E+02 -0.10477837001E+02  0.14767940450E+02  0.51100000000E-03 0. -1.
        -11    1    3    3    0    0  0.30371369035E+01  0.46941891032E+01  0.34229777832E+02  0.34683386550E+02  0.51100000000E-03 0.  1.
        -12    1    3    3    0    0  0.63947071119E+01 -0.67646588491E+01  0.32220692965E+01  0.98506151556E+01  0.00000000000E+00 0.  1.
</event>
<event>
 7    1  0.7578565E-012  0.5930194E+02  0.7816164E-02  0.1266605E+00
        -11   -1    0    0    0    0  0.00000000000E+00  0.00000000000E+00  0.45593999997E+02  0.45594000000E+02  0.51100000000E-03 0. -1.
         11   -1    0    0    0    0 -0.00000000000E+00 -0.00000000000E+00 -0.45593999997E+02  0.45594000000E+02  0.51100000000E-03 0.  1.
    9900012    2    1    2    0    0 -0.38456830614E+01 -0.13067207883E+02 -0.28830183988E+02  0.59301941779E+02  0.49999995899E+02 0.  0.
         12    1    1    2    0    0  0.38456830614E+01  0.13067207883E+02  0.28830183988E+02  0.31886058221E+02  0.00000000000E+00 0. -1.
         11    1    3    3    0    0 -0.10964377840E+01 -0.97783493567E+01  0.25556974125E+01  0.10166114375E+02  0.51100000000E-03 0. -1.
        -11    1    3    3    0    0 -0.15068334915E+02 -0.31404930023E+01 -0.33283770766E+02  0.36670516904E+02  0.51100000000E-03 0.  1.
        -12    1    3    3    0    0  0.12319089637E+02 -0.14836552357E+00  0.18978893647E+01  0.12465310500E+02  0.00000000000E+00 0.  1.
</event>
<event>
 7    1  0.7578565E-012  0.5930194E+02  0.7816164E-02  0.1266605E+00
        -11   -1    0    0    0    0  0.00000000000E+00  0.00000000000E+00  0.45593999997E+02  0.45594000000E+02  0.51100000000E-03 0.  1.
         11   -1    0    0    0    0 -0.00000000000E+00 -0.00000000000E+00 -0.45593999997E+02  0.45594000000E+02  0.51100000000E-03 0. -1.
    9900012    2    1    2    0    0  0.19026398345E+02  0.15054317946E+02  0.20690202595E+02  0.59301940252E+02  0.49999993114E+02 0.  0.
         12    1    1    2    0    0 -0.19026398345E+02 -0.15054317946E+02 -0.20690202595E+02  0.31886059748E+02  0.00000000000E+00 0. -1.
         11    1    3    3    0    0  0.32262080413E+01  0.33212612372E+01 -0.97634522761E+01  0.10805748245E+02  0.51100000000E-03 0. -1.
        -11    1    3    3    0    0  0.48356766205E+01  0.22017487006E+02  0.20474247597E+02  0.30452394280E+02  0.51100000000E-03 0.  1.
        -12    1    3    3    0    0  0.10964513684E+02 -0.10284430298E+02  0.99794072739E+01  0.18043797727E+02  0.00000000000E+00 0.  1.
</event>
<event>
 7    1  0.7578565E-012  0.5930194E+02  0.7816164E-02  0.1266605E+00
        -11   -1    0    0    0    0  0.00000000000E+00  0.00000000000E+00  0.45593999997E+02  0.45594000000E+02  0.51100000000E-03 0.  1.
         11   -1    0    0    0    0 -0.00000000000E+00 -0.00000000000E+00 -0.45593999997E+02  0.45594000000E+02  0.51100000000E-03 0. -1.
    9900012    2    1    2    0    0  0.93089083195E+00  0.11334987885E+02  0.29788796581E+02  0.59301938628E+02  0.49999990152E+02 0.  0.
         12    1    1    2    0    0 -0.93089083195E+00 -0.11334987885E+02 -0.29788796581E+02  0.31886061372E+02  0.00000000000E+00 0. -1.
         11    1    3    3    0    0  0.33283116051E+01  0.11128745219E+02 -0.32960917045E+01  0.12074388145E+02  0.51100000000E-03 0. -1.
        -11    1    3    3    0    0  0.64456316107E+01  0.48597577680E+01  0.35939625243E+02  0.36835038690E+02  0.51100000000E-03 0.  1.
         12    1    3    3    0    0 -0.88430523839E+01 -0.46535151018E+01 -0.28547369577E+01  0.10392511793E+02  0.00000000000E+00 0. -1.
</event>
<event>
 7    1  0.7578565E-012  0.5930193E+02  0.7816164E-02  0.1266605E+00
        -11   -1    0    0    0    0  0.00000000000E+00  0.00000000000E+00  0.45593999997E+02  0.45594000000E+02  0.51100000000E-03 0. -1.
         11   -1    0    0    0    0 -0.00000000000E+00 -0.00000000000E+00 -0.45593999997E+02  0.45594000000E+02  0.51100000000E-03 0.  1.
    9900012    2    1    2    0    0 -0.25742694573E+02 -0.16019462185E+02 -0.98697481696E+01  0.59301930604E+02  0.49999975519E+02 0.  0.
         12    1    1    2    0    0  0.25742694573E+02  0.16019462185E+02  0.98697481696E+01  0.31886069396E+02  0.00000000000E+00 0. -1.
         11    1    3    3    0    0 -0.27675525368E+01 -0.26205310221E+02 -0.10377510691E+02  0.28320846725E+02  0.51100000000E-03 0. -1.
        -11    1    3    3    0    0 -0.33786591575E+01  0.10814147345E+02  0.95121022617E+00  0.11369517213E+02  0.51100000000E-03 0.  1.
        -12    1    3    3    0    0 -0.19596482879E+02 -0.62829930818E+00 -0.44344770501E+00  0.19611566666E+02  0.00000000000E+00 0.  1.
</event>
<event>
 7    1  0.7578565E-012  0.5930220E+02  0.7816164E-02  0.1266604E+00
        -11   -1    0    0    0    0  0.00000000000E+00  0.00000000000E+00  0.45593999997E+02  0.45594000000E+02  0.51100000000E-03 0.  1.
         11   -1    0    0    0    0 -0.00000000000E+00 -0.00000000000E+00 -0.45593999997E+02  0.45594000000E+02  0.51100000000E-03 0. -1.
    9900012    2    1    2    0    0 -0.26553572929E+02  0.17634219805E+02  0.80377429371E+00  0.59302203843E+02  0.50000473839E+02 0.  0.
         12    1    1    2    0    0  0.26553572929E+02 -0.17634219805E+02 -0.80377429371E+00  0.31885796157E+02  0.00000000000E+00 0. -1.
         11    1    3    3    0    0  0.12300486474E+01 -0.12780340027E+01 -0.16225604746E+02  0.16322274359E+02  0.51100000000E-03 0. -1.
        -11    1    3    3    0    0 -0.15480564151E+02  0.32652531309E+01  0.16795741657E+02  0.23073939467E+02  0.51100000000E-03 0.  1.
         12    1    3    3    0    0 -0.12303057425E+02  0.15647000677E+02  0.23363738342E+00  0.19905990018E+02  0.00000000000E+00 0. -1.
</event>
<event>
 7    1  0.7578565E-012  0.5930198E+02  0.7816164E-02  0.1266605E+00
        -11   -1    0    0    0    0  0.00000000000E+00  0.00000000000E+00  0.45593999997E+02  0.45594000000E+02  0.51100000000E-03 0. -1.
         11   -1    0    0    0    0 -0.00000000000E+00 -0.00000000000E+00 -0.45593999997E+02  0.45594000000E+02  0.51100000000E-03 0.  1.
    9900012    2    1    2    0    0  0.15235891035E+02 -0.16272577524E+02 -0.22798884636E+02  0.59301979622E+02  0.50000064915E+02 0.  0.
         12    1    1    2    0    0 -0.15235891035E+02  0.16272577524E+02  0.22798884636E+02  0.31886020378E+02  0.00000000000E+00 0. -1.
         11    1    3    3    0    0  0.15393495329E+02  0.94506955891E+01 -0.12290732493E+02  0.21848053713E+02  0.51100000000E-03 0. -1.
        -11    1    3    3    0    0  0.26528143432E+01 -0.25123174380E+02  0.13047260290E+01  0.25296514091E+02  0.51100000000E-03 0.  1.
         12    1    3    3    0    0 -0.28104186376E+01 -0.60009873325E+00 -0.11812878171E+02  0.12157411818E+02  0.00000000000E+00 0. -1.
</event>
<event>
 7    1  0.7578565E-012  0.5930194E+02  0.7816164E-02  0.1266605E+00
        -11   -1    0    0    0    0  0.00000000000E+00  0.00000000000E+00  0.45593999997E+02  0.45594000000E+02  0.51100000000E-03 0. -1.
         11   -1    0    0    0    0 -0.00000000000E+00 -0.00000000000E+00 -0.45593999997E+02  0.45594000000E+02  0.51100000000E-03 0.  1.
    9900012    2    1    2    0    0  0.65891187334E+00 -0.11186330488E+02 -0.29852179940E+02  0.59301940322E+02  0.49999993242E+02 0.  0.
         12    1    1    2    0    0 -0.65891187334E+00  0.11186330488E+02  0.29852179940E+02  0.31886059678E+02  0.00000000000E+00 0. -1.
         11    1    3    3    0    0 -0.91059695077E+01  0.12731519891E+02 -0.19804323063E+02  0.25243246457E+02  0.51100000000E-03 0. -1.
        -11    1    3    3    0    0  0.30430164063E+00 -0.18054356459E+02  0.13758573488E+01  0.18109262005E+02  0.51100000000E-03 0.  1.
        -12    1    3    3    0    0  0.94605797404E+01 -0.58634939196E+01 -0.11423714225E+02  0.15949431860E+02  0.00000000000E+00 0.  1.
</event>
<event>
 7    1  0.7578565E-012  0.5930195E+02  0.7816164E-02  0.1266605E+00
        -11   -1    0    0    0    0  0.00000000000E+00  0.00000000000E+00  0.45593999997E+02  0.45594000000E+02  0.51100000000E-03 0. -1.
         11   -1    0    0    0    0 -0.00000000000E+00 -0.00000000000E+00 -0.45593999997E+02  0.45594000000E+02  0.51100000000E-03 0.  1.
    9900012    2    1    2    0    0  0.28611883235E+02 -0.13730430469E+02 -0.30912199367E+01  0.59301949385E+02  0.50000009770E+02 0.  0.
         12    1    1    2    0    0 -0.28611883235E+02  0.13730430469E+02  0.30912199367E+01  0.31886050615E+02  0.00000000000E+00 0. -1.
         11    1    3    3    0    0  0.20403623140E+02 -0.26335532110E+02  0.92948328396E-01  0.33314812448E+02  0.51100000000E-03 0. -1.
        -11    1    3    3    0    0  0.12098673142E+02  0.12973002319E+02 -0.82709962936E+01  0.19572584421E+02  0.51100000000E-03 0.  1.
         12    1    3    3    0    0 -0.38904130470E+01 -0.36790067814E+00  0.50868280285E+01  0.64145525158E+01  0.00000000000E+00 0. -1.
</event>
<event>
 7    1  0.7578565E-012  0.5930225E+02  0.7816164E-02  0.1266604E+00
        -11   -1    0    0    0    0  0.00000000000E+00  0.00000000000E+00  0.45593999997E+02  0.45594000000E+02  0.51100000000E-03 0. -1.
         11   -1    0    0    0    0 -0.00000000000E+00 -0.00000000000E+00 -0.45593999997E+02  0.45594000000E+02  0.51100000000E-03 0.  1.
    9900012    2    1    2    0    0 -0.21553583567E+02 -0.12033432031E+02 -0.20182686199E+02  0.59302246547E+02  0.50000551720E+02 0.  0.
         12    1    1    2    0    0  0.21553583567E+02  0.12033432031E+02  0.20182686199E+02  0.31885753453E+02  0.00000000000E+00 0. -1.
         11    1    3    3    0    0  0.18172765938E+00 -0.86979061772E+01  0.11512953480E+02  0.14430339389E+02  0.51100000000E-03 0. -1.
        -11    1    3    3    0    0 -0.98146126102E+01 -0.82756323580E+01 -0.28964735030E+02  0.31682307164E+02  0.51100000000E-03 0.  1.
         12    1    3    3    0    0 -0.11920698617E+02  0.49401065046E+01 -0.27309046488E+01  0.13189599993E+02  0.00000000000E+00 0. -1.
</event>
<event>
 7    1  0.7578565E-012  0.5930193E+02  0.7816164E-02  0.1266605E+00
        -11   -1    0    0    0    0  0.00000000000E+00  0.00000000000E+00  0.45593999997E+02  0.45594000000E+02  0.51100000000E-03 0.  1.
         11   -1    0    0    0    0 -0.00000000000E+00 -0.00000000000E+00 -0.45593999997E+02  0.45594000000E+02  0.51100000000E-03 0. -1.
    9900012    2    1    2    0    0  0.12978673856E+01  0.14299515664E+02  0.28470351099E+02  0.59301929379E+02  0.49999973284E+02 0.  0.
         12    1    1    2    0    0 -0.12978673856E+01 -0.14299515664E+02 -0.28470351099E+02  0.31886070621E+02  0.00000000000E+00 0. -1.
         11    1    3    3    0    0 -0.30709847306E+01 -0.17969360684E+02  0.46781483930E+01  0.18820572342E+02  0.51100000000E-03 0. -1.
        -11    1    3    3    0    0  0.30961014760E+01  0.19781647541E+02  0.16642477192E+02  0.26035964955E+02  0.51100000000E-03 0.  1.
         12    1    3    3    0    0  0.12727506402E+01  0.12487228808E+02  0.71497255141E+01  0.14445392082E+02  0.00000000000E+00 0. -1.
</event>
<event>
 7    1  0.7578565E-012  0.5930193E+02  0.7816164E-02  0.1266605E+00
        -11   -1    0    0    0    0  0.00000000000E+00  0.00000000000E+00  0.45593999997E+02  0.45594000000E+02  0.51100000000E-03 0. -1.
         11   -1    0    0    0    0 -0.00000000000E+00 -0.00000000000E+00 -0.45593999997E+02  0.45594000000E+02  0.51100000000E-03 0.  1.
    9900012    2    1    2    0    0  0.24604649219E+02 -0.19400373371E+02  0.59125445035E+01  0.59301930430E+02  0.49999975202E+02 0.  0.
         12    1    1    2    0    0 -0.24604649219E+02  0.19400373371E+02 -0.59125445035E+01  0.31886069570E+02  0.00000000000E+00 0. -1.
         11    1    3    3    0    0 -0.27327581612E+01 -0.97730664076E+01  0.48413030419E+01  0.11243620839E+02  0.51100000000E-03 0. -1.
        -11    1    3    3    0    0  0.31475063846E+02 -0.17407709603E+02 -0.63659901953E+01  0.36527165633E+02  0.51100000000E-03 0.  1.
        -12    1    3    3    0    0 -0.41376564661E+01  0.77804026398E+01  0.74372316570E+01  0.11531143958E+02  0.00000000000E+00 0.  1.
</event>
<event>
 7    1  0.7578565E-012  0.5930193E+02  0.7816164E-02  0.1266605E+00
        -11   -1    0    0    0    0  0.00000000000E+00  0.00000000000E+00  0.45593999997E+02  0.45594000000E+02  0.51100000000E-03 0. -1.
         11   -1    0    0    0    0 -0.00000000000E+00 -0.00000000000E+00 -0.45593999997E+02  0.45594000000E+02  0.51100000000E-03 0.  1.
    9900012    2    1    2    0    0  0.18996213513E+02 -0.34888192617E+01 -0.25371109333E+02  0.59301934447E+02  0.49999982527E+02 0.  0.
         12    1    1    2    0    0 -0.18996213513E+02  0.34888192617E+01  0.25371109333E+02  0.31886065553E+02  0.00000000000E+00 0. -1.
         11    1    3    3    0    0  0.57391711434E+01  0.20085380368E+01  0.14806280759E+02  0.16006194446E+02  0.51100000000E-03 0. -1.
        -11    1    3    3    0    0  0.12774976853E+02 -0.34589668076E+01 -0.28386541477E+02  0.31320284517E+02  0.51100000000E-03 0.  1.
        -12    1    3    3    0    0  0.48206551713E+00 -0.20383904909E+01 -0.11790848616E+02  0.11975455484E+02  0.00000000000E+00 0.  1.
</event>
<event>
 7    1  0.7578565E-012  0.5930194E+02  0.7816164E-02  0.1266605E+00
        -11   -1    0    0    0    0  0.00000000000E+00  0.00000000000E+00  0.45593999997E+02  0.45594000000E+02  0.51100000000E-03 0. -1.
         11   -1    0    0    0    0 -0.00000000000E+00 -0.00000000000E+00 -0.45593999997E+02  0.45594000000E+02  0.51100000000E-03 0.  1.
    9900012    2    1    2    0    0 -0.25053787767E+02  0.77968685086E+01 -0.18117314334E+02  0.59301944761E+02  0.50000001338E+02 0.  0.
         12    1    1    2    0    0  0.25053787767E+02 -0.77968685086E+01  0.18117314334E+02  0.31886055239E+02  0.00000000000E+00 0. -1.
         11    1    3    3    0    0 -0.44535431530E+01  0.28861948676E+01  0.77745684178E+01  0.94131865898E+01  0.51100000000E-03 0. -1.
        -11    1    3    3    0    0 -0.32710605231E+01 -0.28896480781E+01 -0.30108118506E+02  0.30422831939E+02  0.51100000000E-03 0.  1.
        -12    1    3    3    0    0 -0.17329184091E+02  0.78003217192E+01  0.42162357538E+01  0.19465926233E+02  0.00000000000E+00 0.  1.
</event>
<event>
 7    1  0.7578565E-012  0.5930195E+02  0.7816164E-02  0.1266605E+00
        -11   -1    0    0    0    0  0.00000000000E+00  0.00000000000E+00  0.45593999997E+02  0.45594000000E+02  0.51100000000E-03 0.  1.
         11   -1    0    0    0    0 -0.00000000000E+00 -0.00000000000E+00 -0.45593999997E+02  0.45594000000E+02  0.51100000000E-03 0. -1.
    9900012    2    1    2    0    0 -0.10673430192E+02 -0.24617508198E+02  0.17227190088E+02  0.59301954458E+02  0.50000019023E+02 0.  0.
         12    1    1    2    0    0  0.10673430192E+02  0.24617508198E+02 -0.17227190088E+02  0.31886045542E+02  0.00000000000E+00 0. -1.
         11    1    3    3    0    0  0.67174126003E+01 -0.33294877259E+01  0.14816126007E+02  0.16605020646E+02  0.51100000000E-03 0. -1.
        -11    1    3    3    0    0 -0.10926041564E+02 -0.21270630248E+01 -0.13115016946E+02  0.17201931610E+02  0.51100000000E-03 0.  1.
        -12    1    3    3    0    0 -0.64648012286E+01 -0.19160957447E+02  0.15526081027E+02  0.25495002202E+02  0.00000000000E+00 0.  1.
</event>
<event>
 7    1  0.7578565E-012  0.5930194E+02  0.7816164E-02  0.1266605E+00
        -11   -1    0    0    0    0  0.00000000000E+00  0.00000000000E+00  0.45593999997E+02  0.45594000000E+02  0.51100000000E-03 0.  1.
         11   -1    0    0    0    0 -0.00000000000E+00 -0.00000000000E+00 -0.45593999997E+02  0.45594000000E+02  0.51100000000E-03 0. -1.
    9900012    2    1    2    0    0  0.12249874065E+02 -0.22753023411E+02  0.18680513238E+02  0.59301936214E+02  0.49999985749E+02 0.  0.
         12    1    1    2    0    0 -0.12249874065E+02  0.22753023411E+02 -0.18680513238E+02  0.31886063786E+02  0.00000000000E+00 0. -1.
         11    1    3    3    0    0  0.94170185500E+01 -0.21067569837E+02  0.22234139842E+02  0.32044963910E+02  0.51100000000E-03 0. -1.
        -11    1    3    3    0    0  0.10892757339E+02 -0.23354490346E+01 -0.11435596568E+02  0.15964941396E+02  0.51100000000E-03 0.  1.
         12    1    3    3    0    0 -0.80599018245E+01  0.64999546039E+00  0.78819699642E+01  0.11292030908E+02  0.00000000000E+00 0. -1.
</event>
<event>
 7    1  0.7578565E-012  0.5930195E+02  0.7816164E-02  0.1266605E+00
        -11   -1    0    0    0    0  0.00000000000E+00  0.00000000000E+00  0.45593999997E+02  0.45594000000E+02  0.51100000000E-03 0.  1.
         11   -1    0    0    0    0 -0.00000000000E+00 -0.00000000000E+00 -0.45593999997E+02  0.45594000000E+02  0.51100000000E-03 0. -1.
    9900012    2    1    2    0    0  0.47170413734E+01  0.12024495737E+02  0.29152726683E+02  0.59301945837E+02  0.50000003300E+02 0.  0.
         12    1    1    2    0    0 -0.47170413734E+01 -0.12024495737E+02 -0.29152726683E+02  0.31886054163E+02  0.00000000000E+00 0. -1.
         11    1    3    3    0    0 -0.48651502682E+01 -0.92205161330E+01 -0.94562193521E+01  0.14075073342E+02  0.51100000000E-03 0. -1.
        -11    1    3    3    0    0  0.25096018472E+01  0.26870451419E+01  0.54113265924E+01  0.65422296488E+01  0.51100000000E-03 0.  1.
         12    1    3    3    0    0  0.70725897943E+01  0.18557966728E+02  0.33197619443E+02  0.38684642846E+02  0.00000000000E+00 0. -1.
</event>
<event>
 7    1  0.7578565E-012  0.5930196E+02  0.7816164E-02  0.1266605E+00
        -11   -1    0    0    0    0  0.00000000000E+00  0.00000000000E+00  0.45593999997E+02  0.45594000000E+02  0.51100000000E-03 0.  1.
         11   -1    0    0    0    0 -0.00000000000E+00 -0.00000000000E+00 -0.45593999997E+02  0.45594000000E+02  0.51100000000E-03 0. -1.
    9900012    2    1    2    0    0 -0.13012800583E+02 -0.25557965992E+02  0.13934743076E+02  0.59301958081E+02  0.50000025629E+02 0.  0.
         12    1    1    2    0    0  0.13012800583E+02  0.25557965992E+02 -0.13934743076E+02  0.31886041919E+02  0.00000000000E+00 0. -1.
         11    1    3    3    0    0  0.24008403222E+01  0.12447503279E+02 -0.49665790986E+01  0.13615112204E+02  0.51100000000E-03 0. -1.
        -11    1    3    3    0    0 -0.13332755886E+02 -0.25461590629E+02  0.14790256492E+02  0.32323469248E+02  0.51100000000E-03 0.  1.
         12    1    3    3    0    0 -0.20808850197E+01 -0.12543878642E+02  0.41110656830E+01  0.13363376628E+02  0.00000000000E+00 0. -1.
</event>
<event>
 7    1  0.7578565E-012  0.5930197E+02  0.7816164E-02  0.1266605E+00
        -11   -1    0    0    0    0  0.00000000000E+00  0.00000000000E+00  0.45593999997E+02  0.45594000000E+02  0.51100000000E-03 0.  1.
         11   -1    0    0    0    0 -0.00000000000E+00 -0.00000000000E+00 -0.45593999997E+02  0.45594000000E+02  0.51100000000E-03 0. -1.
    9900012    2    1    2    0    0  0.15256272539E+02 -0.22122197898E+02  0.17163137535E+02  0.59301971999E+02  0.50000051013E+02 0.  0.
         12    1    1    2    0    0 -0.15256272539E+02  0.22122197898E+02 -0.17163137535E+02  0.31886028001E+02  0.00000000000E+00 0. -1.
         11    1    3    3    0    0  0.18357253793E+02 -0.67728635301E+01  0.11616867291E+02  0.22755484023E+02  0.51100000000E-03 0. -1.
        -11    1    3    3    0    0 -0.10027272484E+02 -0.17706156394E+02  0.14498264798E+02  0.24985072546E+02  0.51100000000E-03 0.  1.
         12    1    3    3    0    0  0.69262912303E+01  0.23568220255E+01 -0.89519945534E+01  0.11561415430E+02  0.00000000000E+00 0. -1.
</event>
<event>
 7    1  0.7578565E-012  0.5930194E+02  0.7816164E-02  0.1266605E+00
        -11   -1    0    0    0    0  0.00000000000E+00  0.00000000000E+00  0.45593999997E+02  0.45594000000E+02  0.51100000000E-03 0. -1.
         11   -1    0    0    0    0 -0.00000000000E+00 -0.00000000000E+00 -0.45593999997E+02  0.45594000000E+02  0.51100000000E-03 0.  1.
    9900012    2    1    2    0    0  0.26882019714E+02 -0.56484515881E+01 -0.16191747117E+02  0.59301942484E+02  0.49999997184E+02 0.  0.
         12    1    1    2    0    0 -0.26882019714E+02  0.56484515881E+01  0.16191747117E+02  0.31886057516E+02  0.00000000000E+00 0. -1.
         11    1    3    3    0    0  0.53773436497E+01  0.76294836599E+01  0.10927411242E+02  0.14371261683E+02  0.51100000000E-03 0. -1.
        -11    1    3    3    0    0  0.90655026115E+01 -0.19671750467E+02 -0.14270671720E+02  0.25938642518E+02  0.51100000000E-03 0.  1.
         12    1    3    3    0    0  0.12439173453E+02  0.63938152190E+01 -0.12848486639E+02  0.18992038283E+02  0.00000000000E+00 0. -1.
</event>
<event>
 7    1  0.7578565E-012  0.5930194E+02  0.7816164E-02  0.1266605E+00
        -11   -1    0    0    0    0  0.00000000000E+00  0.00000000000E+00  0.45593999997E+02  0.45594000000E+02  0.51100000000E-03 0.  1.
         11   -1    0    0    0    0 -0.00000000000E+00 -0.00000000000E+00 -0.45593999997E+02  0.45594000000E+02  0.51100000000E-03 0. -1.
    9900012    2    1    2    0    0  0.15950571045E+02 -0.77349968307E+01  0.26504148162E+02  0.59301940939E+02  0.49999994367E+02 0.  0.
         12    1    1    2    0    0 -0.15950571045E+02  0.77349968307E+01 -0.26504148162E+02  0.31886059061E+02  0.00000000000E+00 0. -1.
         11    1    3    3    0    0 -0.13810782523E+02 -0.15929360392E+02  0.11569312466E+02  0.24048518199E+02  0.51100000000E-03 0. -1.
        -11    1    3    3    0    0  0.87465766655E+01 -0.20461027097E+00  0.72204385164E+01  0.11343685528E+02  0.51100000000E-03 0.  1.
         12    1    3    3    0    0  0.21014776902E+02  0.83989738323E+01  0.77143971801E+01  0.23909737212E+02  0.00000000000E+00 0. -1.
</event>
<event>
 7    1  0.7578565E-012  0.5930196E+02  0.7816164E-02  0.1266605E+00
        -11   -1    0    0    0    0  0.00000000000E+00  0.00000000000E+00  0.45593999997E+02  0.45594000000E+02  0.51100000000E-03 0.  1.
         11   -1    0    0    0    0 -0.00000000000E+00 -0.00000000000E+00 -0.45593999997E+02  0.45594000000E+02  0.51100000000E-03 0. -1.
    9900012    2    1    2    0    0 -0.20877931568E+02  0.17288276264E+02  0.16791282292E+02  0.59301957854E+02  0.50000025216E+02 0.  0.
         12    1    1    2    0    0  0.20877931568E+02 -0.17288276264E+02 -0.16791282292E+02  0.31886042146E+02  0.00000000000E+00 0. -1.
         11    1    3    3    0    0 -0.89677122245E+01  0.14678459713E+02 -0.89563307564E+01  0.19393114834E+02  0.51100000000E-03 0. -1.
        -11    1    3    3    0    0  0.57862326135E+01 -0.54902114347E+01  0.16573044267E+02  0.18392626403E+02  0.51100000000E-03 0.  1.
        -12    1    3    3    0    0 -0.17696451957E+02  0.81000279858E+01  0.91745687813E+01  0.21516216618E+02  0.00000000000E+00 0.  1.
</event>
<event>
 7    1  0.7578565E-012  0.5930195E+02  0.7816164E-02  0.1266605E+00
        -11   -1    0    0    0    0  0.00000000000E+00  0.00000000000E+00  0.45593999997E+02  0.45594000000E+02  0.51100000000E-03 0. -1.
         11   -1    0    0    0    0 -0.00000000000E+00 -0.00000000000E+00 -0.45593999997E+02  0.45594000000E+02  0.51100000000E-03 0.  1.
    9900012    2    1    2    0    0 -0.25647558907E+02 -0.17687106183E+02 -0.67889199212E+01  0.59301946047E+02  0.50000003683E+02 0.  0.
         12    1    1    2    0    0  0.25647558907E+02  0.17687106183E+02  0.67889199212E+01  0.31886053953E+02  0.00000000000E+00 0. -1.
         11    1    3    3    0    0  0.62918694775E+01  0.47135110388E+00  0.14502554875E+02  0.15815621756E+02  0.51100000000E-03 0. -1.
        -11    1    3    3    0    0 -0.20027754217E+02 -0.10622912350E+02 -0.18160701876E+02  0.29047690074E+02  0.51100000000E-03 0.  1.
         12    1    3    3    0    0 -0.11911674167E+02 -0.75355449370E+01 -0.31307729201E+01  0.14438634216E+02  0.00000000000E+00 0. -1.
</event>
<event>
 7    1  0.7578565E-012  0.5930190E+02  0.7816164E-02  0.1266605E+00
        -11   -1    0    0    0    0  0.00000000000E+00  0.00000000000E+00  0.45593999997E+02  0.45594000000E+02  0.51100000000E-03 0.  1.
         11   -1    0    0    0    0 -0.00000000000E+00 -0.00000000000E+00 -0.45593999997E+02  0.45594000000E+02  0.51100000000E-03 0. -1.
    9900012    2    1    2    0    0 -0.29821531447E+01 -0.27644419155E+00  0.31745139876E+02  0.59301897000E+02  0.49999914232E+02 0.  0.
         12    1    1    2    0    0  0.29821531447E+01  0.27644419155E+00 -0.31745139876E+02  0.31886103000E+02  0.00000000000E+00 0. -1.
         11    1    3    3    0    0  0.15459817148E+02  0.11926592118E+02  0.10491669359E+02  0.22165844716E+02  0.51100000000E-03 0. -1.
        -11    1    3    3    0    0 -0.16028725674E+02 -0.22987783719E+01  0.21528329613E+02  0.26938325949E+02  0.51100000000E-03 0.  1.
        -12    1    3    3    0    0 -0.24132446185E+01 -0.99042579372E+01 -0.27485909558E+00  0.10197726335E+02  0.00000000000E+00 0.  1.
</event>
<event>
 7    1  0.7578565E-012  0.5930195E+02  0.7816164E-02  0.1266605E+00
        -11   -1    0    0    0    0  0.00000000000E+00  0.00000000000E+00  0.45593999997E+02  0.45594000000E+02  0.51100000000E-03 0.  1.
         11   -1    0    0    0    0 -0.00000000000E+00 -0.00000000000E+00 -0.45593999997E+02  0.45594000000E+02  0.51100000000E-03 0. -1.
    9900012    2    1    2    0    0  0.19116652837E+02 -0.17932292672E+02 -0.18157823856E+02  0.59301951274E+02  0.50000013215E+02 0.  0.
         12    1    1    2    0    0 -0.19116652837E+02  0.17932292672E+02  0.18157823856E+02  0.31886048726E+02  0.00000000000E+00 0. -1.
         11    1    3    3    0    0 -0.42735007653E+00  0.47778006780E+01  0.56720212599E+01  0.74284475390E+01  0.51100000000E-03 0. -1.
        -11    1    3    3    0    0  0.18972292819E+02 -0.23694885716E+00 -0.22388336492E+02  0.29346918930E+02  0.51100000000E-03 0.  1.
        -12    1    3    3    0    0  0.57171009540E+00 -0.22473144493E+02 -0.14415086235E+01  0.22526584804E+02  0.00000000000E+00 0.  1.
</event>
<event>
 7    1  0.7578565E-012  0.5930194E+02  0.7816164E-02  0.1266605E+00
        -11   -1    0    0    0    0  0.00000000000E+00  0.00000000000E+00  0.45593999997E+02  0.45594000000E+02  0.51100000000E-03 0.  1.
         11   -1    0    0    0    0 -0.00000000000E+00 -0.00000000000E+00 -0.45593999997E+02  0.45594000000E+02  0.51100000000E-03 0. -1.
    9900012    2    1    2    0    0 -0.59666887256E+01 -0.26576584246E+02  0.16577234679E+02  0.59301938560E+02  0.49999990029E+02 0.  0.
         12    1    1    2    0    0  0.59666887256E+01  0.26576584246E+02 -0.16577234679E+02  0.31886061440E+02  0.00000000000E+00 0. -1.
         11    1    3    3    0    0 -0.59599317464E+01 -0.67276813328E+01 -0.11609835955E+02  0.14682328620E+02  0.51100000000E-03 0. -1.
        -11    1    3    3    0    0  0.89755948254E+01 -0.21153798440E+02  0.27017146030E+02  0.35467882242E+02  0.51100000000E-03 0.  1.
        -12    1    3    3    0    0 -0.89823518046E+01  0.13048955266E+01  0.11699246041E+01  0.91517276979E+01  0.00000000000E+00 0.  1.
</event>
<event>
 7    1  0.7578565E-012  0.5930194E+02  0.7816164E-02  0.1266605E+00
        -11   -1    0    0    0    0  0.00000000000E+00  0.00000000000E+00  0.45593999997E+02  0.45594000000E+02  0.51100000000E-03 0. -1.
         11   -1    0    0    0    0 -0.00000000000E+00 -0.00000000000E+00 -0.45593999997E+02  0.45594000000E+02  0.51100000000E-03 0.  1.
    9900012    2    1    2    0    0 -0.73998351514E+01  0.37312539884E+01 -0.30790274764E+02  0.59301939775E+02  0.49999992245E+02 0.  0.
         12    1    1    2    0    0  0.73998351514E+01 -0.37312539884E+01  0.30790274764E+02  0.31886060225E+02  0.00000000000E+00 0. -1.
         11    1    3    3    0    0 -0.25984198666E+02 -0.38515195911E+00 -0.67987733861E+01  0.26861687254E+02  0.51100000000E-03 0. -1.
        -11    1    3    3    0    0  0.80918317937E+01 -0.17678732385E+01 -0.15943359704E+02  0.17966464217E+02  0.51100000000E-03 0.  1.
         12    1    3    3    0    0  0.10492531721E+02  0.58842791860E+01 -0.80481416741E+01  0.14473788304E+02  0.00000000000E+00 0. -1.
</event>
<event>
 7    1  0.7578565E-012  0.5930194E+02  0.7816164E-02  0.1266605E+00
        -11   -1    0    0    0    0  0.00000000000E+00  0.00000000000E+00  0.45593999997E+02  0.45594000000E+02  0.51100000000E-03 0.  1.
         11   -1    0    0    0    0 -0.00000000000E+00 -0.00000000000E+00 -0.45593999997E+02  0.45594000000E+02  0.51100000000E-03 0. -1.
    9900012    2    1    2    0    0  0.31453748888E+02  0.52042333472E+01 -0.54647878119E+00  0.59301937168E+02  0.49999987490E+02 0.  0.
         12    1    1    2    0    0 -0.31453748888E+02 -0.52042333472E+01  0.54647878119E+00  0.31886062832E+02  0.00000000000E+00 0. -1.
         11    1    3    3    0    0 -0.28314832147E+01 -0.97679835881E+01 -0.56942135496E+01  0.11655679679E+02  0.51100000000E-03 0. -1.
        -11    1    3    3    0    0  0.20429365029E+02  0.20885324786E+02 -0.47803415924E+01  0.29604178977E+02  0.51100000000E-03 0.  1.
        -12    1    3    3    0    0  0.13855867074E+02 -0.59131078503E+01  0.99280763608E+01  0.18042078512E+02  0.00000000000E+00 0.  1.
</event>
<event>
 7    1  0.7578565E-012  0.5930194E+02  0.7816164E-02  0.1266605E+00
        -11   -1    0    0    0    0  0.00000000000E+00  0.00000000000E+00  0.45593999997E+02  0.45594000000E+02  0.51100000000E-03 0. -1.
         11   -1    0    0    0    0 -0.00000000000E+00 -0.00000000000E+00 -0.45593999997E+02  0.45594000000E+02  0.51100000000E-03 0.  1.
    9900012    2    1    2    0    0 -0.57113425920E+01 -0.26103887275E+02 -0.17397944754E+02  0.59301939618E+02  0.49999991957E+02 0.  0.
         12    1    1    2    0    0  0.57113425920E+01  0.26103887275E+02  0.17397944754E+02  0.31886060382E+02  0.00000000000E+00 0. -1.
         11    1    3    3    0    0 -0.19702356751E+02 -0.16983962634E+02 -0.54824128462E+01  0.26583729971E+02  0.51100000000E-03 0. -1.
        -11    1    3    3    0    0  0.49702067679E+01 -0.17429601459E+02 -0.59226562518E+01  0.19067559353E+02  0.51100000000E-03 0.  1.
         12    1    3    3    0    0  0.90208073914E+01  0.83096768180E+01 -0.59928756561E+01  0.13650650294E+02  0.00000000000E+00 0. -1.
</event>
<event>
 7    1  0.7578565E-012  0.5930193E+02  0.7816164E-02  0.1266605E+00
        -11   -1    0    0    0    0  0.00000000000E+00  0.00000000000E+00  0.45593999997E+02  0.45594000000E+02  0.51100000000E-03 0.  1.
         11   -1    0    0    0    0 -0.00000000000E+00 -0.00000000000E+00 -0.45593999997E+02  0.45594000000E+02  0.51100000000E-03 0. -1.
    9900012    2    1    2    0    0 -0.25056840793E+02 -0.14903631509E+02  0.12913473853E+02  0.59301932359E+02  0.49999978719E+02 0.  0.
         12    1    1    2    0    0  0.25056840793E+02  0.14903631509E+02 -0.12913473853E+02  0.31886067641E+02  0.00000000000E+00 0. -1.
         11    1    3    3    0    0  0.17898807396E+01  0.59060871937E+00  0.20989327455E+01  0.28209946212E+01  0.51100000000E-03 0. -1.
        -11    1    3    3    0    0 -0.27730652751E+02  0.83586669173E+01 -0.26360776653E+01  0.29082732339E+02  0.51100000000E-03 0.  1.
        -12    1    3    3    0    0  0.88393121837E+00 -0.23852907146E+02  0.13450618772E+02  0.27398205398E+02  0.00000000000E+00 0.  1.
</event>
<event>
 7    1  0.7578565E-012  0.5930192E+02  0.7816164E-02  0.1266605E+00
        -11   -1    0    0    0    0  0.00000000000E+00  0.00000000000E+00  0.45593999997E+02  0.45594000000E+02  0.51100000000E-03 0.  1.
         11   -1    0    0    0    0 -0.00000000000E+00 -0.00000000000E+00 -0.45593999997E+02  0.45594000000E+02  0.51100000000E-03 0. -1.
    9900012    2    1    2    0    0  0.21286027468E+02 -0.10273801580E+02  0.21402709996E+02  0.59301922169E+02  0.49999960134E+02 0.  0.
         12    1    1    2    0    0 -0.21286027468E+02  0.10273801580E+02 -0.21402709996E+02  0.31886077831E+02  0.00000000000E+00 0. -1.
         11    1    3    3    0    0 -0.62941349830E+01 -0.17662296034E+01 -0.12143551173E+02  0.13791357350E+02  0.51100000000E-03 0. -1.
        -11    1    3    3    0    0  0.20617599127E+02 -0.76728662804E+01  0.17888113155E+02  0.28353886210E+02  0.51100000000E-03 0.  1.
         12    1    3    3    0    0  0.69625633239E+01 -0.83470569596E+00  0.15658148014E+02  0.17156678609E+02  0.00000000000E+00 0. -1.
</event>
<event>
 7    1  0.7578565E-012  0.5930194E+02  0.7816164E-02  0.1266605E+00
        -11   -1    0    0    0    0  0.00000000000E+00  0.00000000000E+00  0.45593999997E+02  0.45594000000E+02  0.51100000000E-03 0.  1.
         11   -1    0    0    0    0 -0.00000000000E+00 -0.00000000000E+00 -0.45593999997E+02  0.45594000000E+02  0.51100000000E-03 0. -1.
    9900012    2    1    2    0    0 -0.23777976643E+02 -0.18754211784E+02  0.99803998815E+01  0.59301936984E+02  0.49999987153E+02 0.  0.
         12    1    1    2    0    0  0.23777976643E+02  0.18754211784E+02 -0.99803998815E+01  0.31886063016E+02  0.00000000000E+00 0. -1.
         11    1    3    3    0    0 -0.23594759311E+02 -0.91830264450E+01  0.36046390989E+01  0.25574089718E+02  0.51100000000E-03 0. -1.
        -11    1    3    3    0    0  0.11161812393E+02 -0.10256760969E+02 -0.65521507906E+01  0.16514172148E+02  0.51100000000E-03 0.  1.
        -12    1    3    3    0    0 -0.11345029725E+02  0.68557562947E+00  0.12927911573E+02  0.17213675118E+02  0.00000000000E+00 0.  1.
</event>
<event>
 7    1  0.7578565E-012  0.5930192E+02  0.7816164E-02  0.1266605E+00
        -11   -1    0    0    0    0  0.00000000000E+00  0.00000000000E+00  0.45593999997E+02  0.45594000000E+02  0.51100000000E-03 0.  1.
         11   -1    0    0    0    0 -0.00000000000E+00 -0.00000000000E+00 -0.45593999997E+02  0.45594000000E+02  0.51100000000E-03 0. -1.
    9900012    2    1    2    0    0  0.11818078849E+02 -0.15794261759E+02  0.25051876316E+02  0.59301918410E+02  0.49999953280E+02 0.  0.
         12    1    1    2    0    0 -0.11818078849E+02  0.15794261759E+02 -0.25051876316E+02  0.31886081590E+02  0.00000000000E+00 0. -1.
         11    1    3    3    0    0  0.82805246794E+00  0.91067829755E+01  0.21995490875E+01  0.94051679146E+01  0.51100000000E-03 0. -1.
        -11    1    3    3    0    0  0.17552493819E+02 -0.28997871162E+02  0.10800419588E+02  0.35575492052E+02  0.51100000000E-03 0.  1.
         12    1    3    3    0    0 -0.65624674381E+01  0.40968264268E+01  0.12051907640E+02  0.14321258444E+02  0.00000000000E+00 0. -1.
</event>
<event>
 7    1  0.7578565E-012  0.5930194E+02  0.7816164E-02  0.1266605E+00
        -11   -1    0    0    0    0  0.00000000000E+00  0.00000000000E+00  0.45593999997E+02  0.45594000000E+02  0.51100000000E-03 0.  1.
         11   -1    0    0    0    0 -0.00000000000E+00 -0.00000000000E+00 -0.45593999997E+02  0.45594000000E+02  0.51100000000E-03 0. -1.
    9900012    2    1    2    0    0  0.12623582658E+02 -0.12559686774E+02  0.26450332110E+02  0.59301942863E+02  0.49999997876E+02 0.  0.
         12    1    1    2    0    0 -0.12623582658E+02  0.12559686774E+02 -0.26450332110E+02  0.31886057137E+02  0.00000000000E+00 0. -1.
         11    1    3    3    0    0 -0.14345098406E+01 -0.98820198858E-01 -0.57832849646E+00  0.15498541949E+01  0.51100000000E-03 0. -1.
        -11    1    3    3    0    0  0.28965054788E+02 -0.66867465638E+01  0.44067205851E+01  0.30051724827E+02  0.51100000000E-03 0.  1.
        -12    1    3    3    0    0 -0.14906962289E+02 -0.57741200113E+01  0.22621940022E+02  0.27700363841E+02  0.00000000000E+00 0.  1.
</event>
<event>
 7    1  0.7578565E-012  0.5930194E+02  0.7816164E-02  0.1266605E+00
        -11   -1    0    0    0    0  0.00000000000E+00  0.00000000000E+00  0.45593999997E+02  0.45594000000E+02  0.51100000000E-03 0.  1.
         11   -1    0    0    0    0 -0.00000000000E+00 -0.00000000000E+00 -0.45593999997E+02  0.45594000000E+02  0.51100000000E-03 0. -1.
    9900012    2    1    2    0    0  0.11574908987E+02  0.28270376113E+02  0.91393725637E+01  0.59301940123E+02  0.49999992879E+02 0.  0.
         12    1    1    2    0    0 -0.11574908987E+02 -0.28270376113E+02 -0.91393725637E+01  0.31886059877E+02  0.00000000000E+00 0. -1.
         11    1    3    3    0    0 -0.67807052367E+01  0.32168365333E+02  0.41664548510E+01  0.33138211146E+02  0.51100000000E-03 0. -1.
        -11    1    3    3    0    0  0.79383426229E+01 -0.95662237434E+01  0.67920120321E+01  0.14165498509E+02  0.51100000000E-03 0.  1.
         12    1    3    3    0    0  0.10417271601E+02  0.56682345236E+01 -0.18190943195E+01  0.11998230468E+02  0.00000000000E+00 0. -1.
</event>
<event>
 7    1  0.7578565E-012  0.5930198E+02  0.7816164E-02  0.1266605E+00
        -11   -1    0    0    0    0  0.00000000000E+00  0.00000000000E+00  0.45593999997E+02  0.45594000000E+02  0.51100000000E-03 0.  1.
         11   -1    0    0    0    0 -0.00000000000E+00 -0.00000000000E+00 -0.45593999997E+02  0.45594000000E+02  0.51100000000E-03 0. -1.
    9900012    2    1    2    0    0  0.29633786540E+02  0.11377226108E+02  0.30192015290E+01  0.59301981803E+02  0.50000068892E+02 0.  0.
         12    1    1    2    0    0 -0.29633786540E+02 -0.11377226108E+02 -0.30192015290E+01  0.31886018197E+02  0.00000000000E+00 0. -1.
         11    1    3    3    0    0 -0.46294680508E+01  0.11739409111E+02  0.12171344143E+01  0.12677819889E+02  0.51100000000E-03 0. -1.
        -11    1    3    3    0    0  0.35447981117E+02  0.90893103715E+01  0.41050470031E+01  0.36824262918E+02  0.51100000000E-03 0.  1.
        -12    1    3    3    0    0 -0.11847265265E+01 -0.94514933741E+01 -0.23029798884E+01  0.97998989949E+01  0.00000000000E+00 0.  1.
</event>
<event>
 7    1  0.7578565E-012  0.5930194E+02  0.7816164E-02  0.1266605E+00
        -11   -1    0    0    0    0  0.00000000000E+00  0.00000000000E+00  0.45593999997E+02  0.45594000000E+02  0.51100000000E-03 0. -1.
         11   -1    0    0    0    0 -0.00000000000E+00 -0.00000000000E+00 -0.45593999997E+02  0.45594000000E+02  0.51100000000E-03 0.  1.
    9900012    2    1    2    0    0  0.27466205444E+02 -0.36876854469E+01  0.15771163466E+02  0.59301936234E+02  0.49999985785E+02 0.  0.
         12    1    1    2    0    0 -0.27466205444E+02  0.36876854469E+01 -0.15771163466E+02  0.31886063766E+02  0.00000000000E+00 0. -1.
         11    1    3    3    0    0  0.27626432314E+02  0.20657843565E+00  0.28960105548E+02  0.40024369460E+02  0.51100000000E-03 0.  1.
        -11    1    3    3    0    0 -0.15160263933E+01  0.26125707623E+01 -0.12187168195E+02  0.12555912189E+02  0.51100000000E-03 0. -1.
        -12    1    3    3    0    0  0.13557995236E+01 -0.65068346448E+01 -0.10017738866E+01  0.67216545852E+01  0.00000000000E+00 0.  1.
</event>
<event>
 7    1  0.7578565E-012  0.5930200E+02  0.7816164E-02  0.1266605E+00
        -11   -1    0    0    0    0  0.00000000000E+00  0.00000000000E+00  0.45593999997E+02  0.45594000000E+02  0.51100000000E-03 0.  1.
         11   -1    0    0    0    0 -0.00000000000E+00 -0.00000000000E+00 -0.45593999997E+02  0.45594000000E+02  0.51100000000E-03 0. -1.
    9900012    2    1    2    0    0 -0.64327797682E+01  0.12897784951E+02  0.28442633738E+02  0.59302001096E+02  0.50000104078E+02 0.  0.
         12    1    1    2    0    0  0.64327797682E+01 -0.12897784951E+02 -0.28442633738E+02  0.31885998904E+02  0.00000000000E+00 0. -1.
         11    1    3    3    0    0  0.95809616081E+01 -0.85851263945E+01 -0.49261906417E+01  0.13775578937E+02  0.51100000000E-03 0. -1.
        -11    1    3    3    0    0  0.11786485149E+01  0.10258761634E+02  0.13035818360E+02  0.16630212361E+02  0.51100000000E-03 0.  1.
         12    1    3    3    0    0 -0.17192389891E+02  0.11224149711E+02  0.20333006019E+02  0.28896209798E+02  0.00000000000E+00 0. -1.
</event>
<event>
 7    1  0.7578565E-012  0.5930193E+02  0.7816164E-02  0.1266605E+00
        -11   -1    0    0    0    0  0.00000000000E+00  0.00000000000E+00  0.45593999997E+02  0.45594000000E+02  0.51100000000E-03 0.  1.
         11   -1    0    0    0    0 -0.00000000000E+00 -0.00000000000E+00 -0.45593999997E+02  0.45594000000E+02  0.51100000000E-03 0. -1.
    9900012    2    1    2    0    0  0.22032450269E+02  0.22329923835E+02  0.57155071011E+01  0.59301931181E+02  0.49999976570E+02 0.  0.
         12    1    1    2    0    0 -0.22032450269E+02 -0.22329923835E+02 -0.57155071011E+01  0.31886068819E+02  0.00000000000E+00 0. -1.
         11    1    3    3    0    0  0.16977510618E+02  0.65792256360E+01 -0.18849682903E+02  0.26207491726E+02  0.51100000000E-03 0. -1.
        -11    1    3    3    0    0  0.31734469525E+01  0.17701461269E+02  0.15863599600E+02  0.23980539801E+02  0.51100000000E-03 0.  1.
        -12    1    3    3    0    0  0.18814926988E+01 -0.19507630705E+01  0.87015904042E+01  0.91138996536E+01  0.00000000000E+00 0.  1.
</event>
<event>
 7    1  0.7578565E-012  0.5930194E+02  0.7816164E-02  0.1266605E+00
        -11   -1    0    0    0    0  0.00000000000E+00  0.00000000000E+00  0.45593999997E+02  0.45594000000E+02  0.51100000000E-03 0.  1.
         11   -1    0    0    0    0 -0.00000000000E+00 -0.00000000000E+00 -0.45593999997E+02  0.45594000000E+02  0.51100000000E-03 0. -1.
    9900012    2    1    2    0    0  0.29114718927E+02  0.22851277540E+01  0.12799691640E+02  0.59301940772E+02  0.49999994062E+02 0.  0.
         12    1    1    2    0    0 -0.29114718927E+02 -0.22851277540E+01 -0.12799691640E+02  0.31886059228E+02  0.00000000000E+00 0. -1.
         11    1    3    3    0    0  0.17685007215E+02  0.25724141426E+02  0.60436349772E+01  0.31796484967E+02  0.51100000000E-03 0. -1.
        -11    1    3    3    0    0  0.10368127691E+02 -0.17938545088E+02  0.34613428368E+01  0.21006436304E+02  0.51100000000E-03 0.  1.
         12    1    3    3    0    0  0.10615840214E+01 -0.55004685837E+01  0.32947138256E+01  0.64990195005E+01  0.00000000000E+00 0. -1.
</event>
<event>
 7    1  0.7578565E-012  0.5930193E+02  0.7816164E-02  0.1266605E+00
        -11   -1    0    0    0    0  0.00000000000E+00  0.00000000000E+00  0.45593999997E+02  0.45594000000E+02  0.51100000000E-03 0. -1.
         11   -1    0    0    0    0 -0.00000000000E+00 -0.00000000000E+00 -0.45593999997E+02  0.45594000000E+02  0.51100000000E-03 0.  1.
    9900012    2    1    2    0    0 -0.15799235099E+02  0.10743232517E+02 -0.25528191261E+02  0.59301930569E+02  0.49999975455E+02 0.  0.
         12    1    1    2    0    0  0.15799235099E+02 -0.10743232517E+02  0.25528191261E+02  0.31886069431E+02  0.00000000000E+00 0. -1.
         11    1    3    3    0    0  0.62006439733E+01 -0.13801255359E+02 -0.13636998659E+02  0.20368857795E+02  0.51100000000E-03 0. -1.
        -11    1    3    3    0    0 -0.25336714077E+01  0.13859615357E+02 -0.85409146001E+01  0.16475911238E+02  0.51100000000E-03 0.  1.
         12    1    3    3    0    0 -0.19466207665E+02  0.10684872519E+02 -0.33502780019E+01  0.22457161537E+02  0.00000000000E+00 0. -1.
</event>
<event>
 7    1  0.7578565E-012  0.5930195E+02  0.7816164E-02  0.1266605E+00
        -11   -1    0    0    0    0  0.00000000000E+00  0.00000000000E+00  0.45593999997E+02  0.45594000000E+02  0.51100000000E-03 0. -1.
         11   -1    0    0    0    0 -0.00000000000E+00 -0.00000000000E+00 -0.45593999997E+02  0.45594000000E+02  0.51100000000E-03 0.  1.
    9900012    2    1    2    0    0 -0.18509157053E+02 -0.23273700226E+02 -0.11509382597E+02  0.59301954388E+02  0.50000018895E+02 0.  0.
         12    1    1    2    0    0  0.18509157053E+02  0.23273700226E+02  0.11509382597E+02  0.31886045612E+02  0.00000000000E+00 0. -1.
         11    1    3    3    0    0 -0.24755652092E+02 -0.17735966410E+02  0.76362595271E+01  0.31396166562E+02  0.51100000000E-03 0. -1.
        -11    1    3    3    0    0  0.12384216550E+02 -0.66502532300E+00 -0.12791704851E+02  0.17816812046E+02  0.51100000000E-03 0.  1.
        -12    1    3    3    0    0 -0.61377215112E+01 -0.48727084934E+01 -0.63539372730E+01  0.10088975780E+02  0.00000000000E+00 0.  1.
</event>
<event>
 7    1  0.7578565E-012  0.5930202E+02  0.7816164E-02  0.1266605E+00
        -11   -1    0    0    0    0  0.00000000000E+00  0.00000000000E+00  0.45593999997E+02  0.45594000000E+02  0.51100000000E-03 0. -1.
         11   -1    0    0    0    0 -0.00000000000E+00 -0.00000000000E+00 -0.45593999997E+02  0.45594000000E+02  0.51100000000E-03 0.  1.
    9900012    2    1    2    0    0  0.24290353376E+02  0.17107340098E+02 -0.11577282542E+02  0.59302018387E+02  0.50000135613E+02 0.  0.
         12    1    1    2    0    0 -0.24290353376E+02 -0.17107340098E+02  0.11577282542E+02  0.31885981613E+02  0.00000000000E+00 0. -1.
         11    1    3    3    0    0  0.14308520453E+02 -0.14013016534E+02 -0.19532543247E+01  0.20122464875E+02  0.51100000000E-03 0. -1.
        -11    1    3    3    0    0  0.14213643126E+02  0.24902132729E+02 -0.12294800874E+02  0.31197852397E+02  0.51100000000E-03 0.  1.
        -12    1    3    3    0    0 -0.42318102032E+01  0.62182239034E+01  0.26707726565E+01  0.79817011152E+01  0.00000000000E+00 0.  1.
</event>
<event>
 7    1  0.7578565E-012  0.5930192E+02  0.7816164E-02  0.1266605E+00
        -11   -1    0    0    0    0  0.00000000000E+00  0.00000000000E+00  0.45593999997E+02  0.45594000000E+02  0.51100000000E-03 0.  1.
         11   -1    0    0    0    0 -0.00000000000E+00 -0.00000000000E+00 -0.45593999997E+02  0.45594000000E+02  0.51100000000E-03 0. -1.
    9900012    2    1    2    0    0  0.21166464458E+02 -0.10666084340E+02  0.21329270338E+02  0.59301916108E+02  0.49999949082E+02 0.  0.
         12    1    1    2    0    0 -0.21166464458E+02  0.10666084340E+02 -0.21329270338E+02  0.31886083892E+02  0.00000000000E+00 0. -1.
         11    1    3    3    0    0  0.10601011468E+02 -0.23834484452E+02  0.17653839367E+01  0.26145375766E+02  0.51100000000E-03 0. -1.
        -11    1    3    3    0    0  0.12203499298E+02  0.14028541740E+02  0.61038380624E+01  0.19569931471E+02  0.51100000000E-03 0.  1.
        -12    1    3    3    0    0 -0.16380463077E+01 -0.86014162765E+00  0.13460048339E+02  0.13586608871E+02  0.00000000000E+00 0.  1.
</event>
<event>
 7    1  0.7578565E-012  0.5930197E+02  0.7816164E-02  0.1266605E+00
        -11   -1    0    0    0    0  0.00000000000E+00  0.00000000000E+00  0.45593999997E+02  0.45594000000E+02  0.51100000000E-03 0.  1.
         11   -1    0    0    0    0 -0.00000000000E+00 -0.00000000000E+00 -0.45593999997E+02  0.45594000000E+02  0.51100000000E-03 0. -1.
    9900012    2    1    2    0    0 -0.29324804499E+02  0.11649595413E+02 -0.45893004667E+01  0.59301969971E+02  0.50000047315E+02 0.  0.
         12    1    1    2    0    0  0.29324804499E+02 -0.11649595413E+02  0.45893004667E+01  0.31886030029E+02  0.00000000000E+00 0. -1.
         11    1    3    3    0    0 -0.15525404216E+02  0.14906905845E+02  0.15254335451E+02  0.26380840932E+02  0.51100000000E-03 0. -1.
        -11    1    3    3    0    0 -0.11380843944E+02 -0.10392521120E+02 -0.48769598770E+01  0.16165173739E+02  0.51100000000E-03 0.  1.
         12    1    3    3    0    0 -0.24185563400E+01  0.71352106877E+01 -0.14966676041E+02  0.16755955301E+02  0.00000000000E+00 0. -1.
</event>
<event>
 7    1  0.7578565E-012  0.5930193E+02  0.7816164E-02  0.1266605E+00
        -11   -1    0    0    0    0  0.00000000000E+00  0.00000000000E+00  0.45593999997E+02  0.45594000000E+02  0.51100000000E-03 0.  1.
         11   -1    0    0    0    0 -0.00000000000E+00 -0.00000000000E+00 -0.45593999997E+02  0.45594000000E+02  0.51100000000E-03 0. -1.
    9900012    2    1    2    0    0  0.70879673938E+01 -0.24292288677E+02  0.19400170061E+02  0.59301934558E+02  0.49999982730E+02 0.  0.
         12    1    1    2    0    0 -0.70879673938E+01  0.24292288677E+02 -0.19400170061E+02  0.31886065442E+02  0.00000000000E+00 0. -1.
         11    1    3    3    0    0 -0.36783881466E+01 -0.41162923058E+00  0.92248586257E+00  0.38145718512E+01  0.51100000000E-03 0. -1.
        -11    1    3    3    0    0  0.20704377012E+02 -0.32409755343E+02  0.95157666621E+01  0.39618345299E+02  0.51100000000E-03 0.  1.
        -12    1    3    3    0    0 -0.99380214713E+01  0.85290958959E+01  0.89619175364E+01  0.15869017408E+02  0.00000000000E+00 0.  1.
</event>
<event>
 7    1  0.7578565E-012  0.5930194E+02  0.7816164E-02  0.1266605E+00
        -11   -1    0    0    0    0  0.00000000000E+00  0.00000000000E+00  0.45593999997E+02  0.45594000000E+02  0.51100000000E-03 0. -1.
         11   -1    0    0    0    0 -0.00000000000E+00 -0.00000000000E+00 -0.45593999997E+02  0.45594000000E+02  0.51100000000E-03 0.  1.
    9900012    2    1    2    0    0  0.20062264120E+01 -0.23832642074E+02 -0.21087938947E+02  0.59301938128E+02  0.49999989241E+02 0.  0.
         12    1    1    2    0    0 -0.20062264120E+01  0.23832642074E+02  0.21087938947E+02  0.31886061872E+02  0.00000000000E+00 0. -1.
         11    1    3    3    0    0  0.12449087249E+02 -0.76126129123E+01  0.45445827522E+00  0.14599252765E+02  0.51100000000E-03 0. -1.
        -11    1    3    3    0    0 -0.66753052453E+01 -0.68589732410E+00 -0.26992873833E+02  0.27814481719E+02  0.51100000000E-03 0.  1.
        -12    1    3    3    0    0 -0.37675555922E+01 -0.15534131838E+02  0.54504766104E+01  0.16888203645E+02  0.00000000000E+00 0.  1.
</event>
<event>
 7    1  0.7578565E-012  0.5930194E+02  0.7816164E-02  0.1266605E+00
        -11   -1    0    0    0    0  0.00000000000E+00  0.00000000000E+00  0.45593999997E+02  0.45594000000E+02  0.51100000000E-03 0. -1.
         11   -1    0    0    0    0 -0.00000000000E+00 -0.00000000000E+00 -0.45593999997E+02  0.45594000000E+02  0.51100000000E-03 0.  1.
    9900012    2    1    2    0    0  0.47570684167E+01  0.30997916562E+02 -0.57636970093E+01  0.59301941380E+02  0.49999995171E+02 0.  0.
         12    1    1    2    0    0 -0.47570684167E+01 -0.30997916562E+02  0.57636970093E+01  0.31886058620E+02  0.00000000000E+00 0. -1.
         11    1    3    3    0    0 -0.79763653049E+01  0.25883467644E+02  0.10867720521E+02  0.29183619555E+02  0.51100000000E-03 0. -1.
        -11    1    3    3    0    0 -0.56327966293E+01 -0.19567620077E+00 -0.60434796394E+01  0.82637965522E+01  0.51100000000E-03 0.  1.
         12    1    3    3    0    0  0.18366230351E+02  0.53101251189E+01 -0.10587937891E+02  0.21854525272E+02  0.00000000000E+00 0. -1.
</event>
<event>
 7    1  0.7578565E-012  0.5930195E+02  0.7816164E-02  0.1266605E+00
        -11   -1    0    0    0    0  0.00000000000E+00  0.00000000000E+00  0.45593999997E+02  0.45594000000E+02  0.51100000000E-03 0.  1.
         11   -1    0    0    0    0 -0.00000000000E+00 -0.00000000000E+00 -0.45593999997E+02  0.45594000000E+02  0.51100000000E-03 0. -1.
    9900012    2    1    2    0    0  0.87012466252E+01 -0.30466631994E+02  0.35767069174E+01  0.59301949911E+02  0.50000010730E+02 0.  0.
         12    1    1    2    0    0 -0.87012466252E+01  0.30466631994E+02 -0.35767069174E+01  0.31886050089E+02  0.00000000000E+00 0. -1.
         11    1    3    3    0    0  0.24454631088E+01  0.72375474579E+01 -0.93237967061E+01  0.12053861137E+02  0.51100000000E-03 0. -1.
        -11    1    3    3    0    0  0.15322299093E+02 -0.19556854655E+02  0.42983357207E+01  0.25213470679E+02  0.51100000000E-03 0.  1.
         12    1    3    3    0    0 -0.90665155761E+01 -0.18147324797E+02  0.86021679028E+01  0.22034618096E+02  0.00000000000E+00 0. -1.
</event>
<event>
 7    1  0.7578565E-012  0.5930196E+02  0.7816164E-02  0.1266605E+00
        -11   -1    0    0    0    0  0.00000000000E+00  0.00000000000E+00  0.45593999997E+02  0.45594000000E+02  0.51100000000E-03 0. -1.
         11   -1    0    0    0    0 -0.00000000000E+00 -0.00000000000E+00 -0.45593999997E+02  0.45594000000E+02  0.51100000000E-03 0.  1.
    9900012    2    1    2    0    0 -0.20734831889E+02 -0.18365016443E+02 -0.15795970878E+02  0.59301956370E+02  0.50000022509E+02 0.  0.
         12    1    1    2    0    0  0.20734831889E+02  0.18365016443E+02  0.15795970878E+02  0.31886043630E+02  0.00000000000E+00 0. -1.
         11    1    3    3    0    0  0.22015798185E+01 -0.63552630859E+01  0.60810092559E+01  0.90672485584E+01  0.51100000000E-03 0. -1.
        -11    1    3    3    0    0 -0.97590050560E+01 -0.22017134792E+01 -0.30204086580E+02  0.31817802695E+02  0.51100000000E-03 0.  1.
        -12    1    3    3    0    0 -0.13177406652E+02 -0.98080398774E+01  0.83271064463E+01  0.18416905116E+02  0.00000000000E+00 0.  1.
</event>
<event>
 7    1  0.7578565E-012  0.5930197E+02  0.7816164E-02  0.1266605E+00
        -11   -1    0    0    0    0  0.00000000000E+00  0.00000000000E+00  0.45593999997E+02  0.45594000000E+02  0.51100000000E-03 0. -1.
         11   -1    0    0    0    0 -0.00000000000E+00 -0.00000000000E+00 -0.45593999997E+02  0.45594000000E+02  0.51100000000E-03 0.  1.
    9900012    2    1    2    0    0 -0.22274744390E+02  0.32934210840E+01 -0.22576713295E+02  0.59301971033E+02  0.50000049251E+02 0.  0.
         12    1    1    2    0    0  0.22274744390E+02 -0.32934210840E+01  0.22576713295E+02  0.31886028967E+02  0.00000000000E+00 0. -1.
         11    1    3    3    0    0 -0.31526053583E+02 -0.15848409804E+01 -0.27658870230E+02  0.41969237283E+02  0.51100000000E-03 0.  1.
        -11    1    3    3    0    0  0.68263869597E+01 -0.20783268823E+01 -0.16820140071E+01  0.73313145434E+01  0.51100000000E-03 0. -1.
        -12    1    3    3    0    0  0.24249222328E+01  0.69565889467E+01  0.67641709422E+01  0.10001419206E+02  0.00000000000E+00 0.  1.
</event>
<event>
 7    1  0.7578565E-012  0.5930192E+02  0.7816164E-02  0.1266605E+00
        -11   -1    0    0    0    0  0.00000000000E+00  0.00000000000E+00  0.45593999997E+02  0.45594000000E+02  0.51100000000E-03 0.  1.
         11   -1    0    0    0    0 -0.00000000000E+00 -0.00000000000E+00 -0.45593999997E+02  0.45594000000E+02  0.51100000000E-03 0. -1.
    9900012    2    1    2    0    0 -0.28374083688E+00 -0.17871930754E+01  0.31834695641E+02  0.59301915033E+02  0.49999947121E+02 0.  0.
         12    1    1    2    0    0  0.28374083688E+00  0.17871930754E+01 -0.31834695641E+02  0.31886084967E+02  0.00000000000E+00 0. -1.
         11    1    3    3    0    0 -0.23039089488E+00  0.48186125919E+01 -0.94301164592E+01  0.10592412566E+02  0.51100000000E-03 0. -1.
        -11    1    3    3    0    0 -0.10644089808E+02 -0.97263268886E+01  0.27621530384E+02  0.31158418182E+02  0.51100000000E-03 0.  1.
        -12    1    3    3    0    0  0.10590739866E+02  0.31205212214E+01  0.13643281716E+02  0.17551084285E+02  0.00000000000E+00 0.  1.
</event>
<event>
 7    1  0.7578565E-012  0.5930193E+02  0.7816164E-02  0.1266605E+00
        -11   -1    0    0    0    0  0.00000000000E+00  0.00000000000E+00  0.45593999997E+02  0.45594000000E+02  0.51100000000E-03 0.  1.
         11   -1    0    0    0    0 -0.00000000000E+00 -0.00000000000E+00 -0.45593999997E+02  0.45594000000E+02  0.51100000000E-03 0. -1.
    9900012    2    1    2    0    0  0.12184154682E+02 -0.13969150024E+02  0.25944761046E+02  0.59301930888E+02  0.49999976035E+02 0.  0.
         12    1    1    2    0    0 -0.12184154682E+02  0.13969150024E+02 -0.25944761046E+02  0.31886069112E+02  0.00000000000E+00 0. -1.
         11    1    3    3    0    0 -0.81197631091E+01  0.70276586108E+01 -0.40484324298E+01  0.11476425571E+02  0.51100000000E-03 0. -1.
        -11    1    3    3    0    0  0.22114322285E+02 -0.15267175862E+02  0.31720740184E+02  0.41573251821E+02  0.51100000000E-03 0.  1.
        -12    1    3    3    0    0 -0.18104044940E+01 -0.57296327724E+01 -0.17275467076E+01  0.62522534950E+01  0.00000000000E+00 0.  1.
</event>
<event>
 7    1  0.7578565E-012  0.5930199E+02  0.7816164E-02  0.1266605E+00
        -11   -1    0    0    0    0  0.00000000000E+00  0.00000000000E+00  0.45593999997E+02  0.45594000000E+02  0.51100000000E-03 0.  1.
         11   -1    0    0    0    0 -0.00000000000E+00 -0.00000000000E+00 -0.45593999997E+02  0.45594000000E+02  0.51100000000E-03 0. -1.
    9900012    2    1    2    0    0  0.10845711761E+02 -0.14681924013E+02  0.26144398631E+02  0.59301985258E+02  0.50000075194E+02 0.  0.
         12    1    1    2    0    0 -0.10845711761E+02  0.14681924013E+02 -0.26144398631E+02  0.31886014742E+02  0.00000000000E+00 0. -1.
         11    1    3    3    0    0 -0.37861430077E+01 -0.20511956439E+01 -0.44812418420E+01  0.62148058016E+01  0.51100000000E-03 0. -1.
        -11    1    3    3    0    0  0.32519178927E+01 -0.16311570282E+02  0.36240026430E+02  0.39874575997E+02  0.51100000000E-03 0.  1.
        -12    1    3    3    0    0  0.11379936876E+02  0.36808419132E+01 -0.56143859568E+01  0.13212603459E+02  0.00000000000E+00 0.  1.
</event>
<event>
 7    1  0.7578565E-012  0.5930197E+02  0.7816164E-02  0.1266605E+00
        -11   -1    0    0    0    0  0.00000000000E+00  0.00000000000E+00  0.45593999997E+02  0.45594000000E+02  0.51100000000E-03 0. -1.
         11   -1    0    0    0    0 -0.00000000000E+00 -0.00000000000E+00 -0.45593999997E+02  0.45594000000E+02  0.51100000000E-03 0.  1.
    9900012    2    1    2    0    0  0.28042733676E+02 -0.14418213601E+02 -0.47369785893E+01  0.59301972314E+02  0.50000051587E+02 0.  0.
         12    1    1    2    0    0 -0.28042733676E+02  0.14418213601E+02  0.47369785893E+01  0.31886027686E+02  0.00000000000E+00 0. -1.
         11    1    3    3    0    0 -0.32551789735E+01 -0.12592043980E+01  0.14932687967E+02  0.15335154256E+02  0.51100000000E-03 0. -1.
        -11    1    3    3    0    0  0.12520158493E+02  0.65367961311E+00 -0.16066361128E+02  0.20379146839E+02  0.51100000000E-03 0.  1.
        -12    1    3    3    0    0  0.18777754157E+02 -0.13812688816E+02 -0.36033054282E+01  0.23587671218E+02  0.00000000000E+00 0.  1.
</event>
<event>
 7    1  0.8319544E-012  0.5930199E+02  0.7816164E-02  0.1266605E+00
        -11   -1    0    0    0    0  0.00000000000E+00  0.00000000000E+00  0.45593999997E+02  0.45594000000E+02  0.51100000000E-03 0. -1.
         11   -1    0    0    0    0 -0.00000000000E+00 -0.00000000000E+00 -0.45593999997E+02  0.45594000000E+02  0.51100000000E-03 0.  1.
    9900012    2    1    2    0    0  0.21124830949E+02  0.25935104141E+01 -0.23743063623E+02  0.59301986623E+02  0.50000077683E+02 0.  0.
         12    1    1    2    0    0 -0.21124830949E+02 -0.25935104141E+01  0.23743063623E+02  0.31886013377E+02  0.00000000000E+00 0. -1.
         11    1    3    3    0    0 -0.43042559021E+01  0.83402196806E+01  0.82886005358E+01  0.12521452883E+02  0.51100000000E-03 0. -1.
        -11    1    3    3    0    0  0.15853719310E+02  0.64157364475E+01 -0.23624556635E+02  0.29165420734E+02  0.51100000000E-03 0.  1.
         12    1    3    3    0    0  0.95753675412E+01 -0.12162445714E+02 -0.84071075239E+01  0.17615113006E+02  0.00000000000E+00 0. -1.
</event>
<event>
 7    1  0.7578565E-012  0.5930190E+02  0.7816164E-02  0.1266605E+00
        -11   -1    0    0    0    0  0.00000000000E+00  0.00000000000E+00  0.45593999997E+02  0.45594000000E+02  0.51100000000E-03 0.  1.
         11   -1    0    0    0    0 -0.00000000000E+00 -0.00000000000E+00 -0.45593999997E+02  0.45594000000E+02  0.51100000000E-03 0. -1.
    9900012    2    1    2    0    0 -0.28337314687E+00  0.30537594614E+02  0.91705016306E+01  0.59301904515E+02  0.49999927938E+02 0.  0.
         12    1    1    2    0    0  0.28337314687E+00 -0.30537594614E+02 -0.91705016306E+01  0.31886095485E+02  0.00000000000E+00 0. -1.
         11    1    3    3    0    0  0.18520388413E+02  0.40225235003E+01 -0.64940388525E+01  0.20033921812E+02  0.51100000000E-03 0. -1.
        -11    1    3    3    0    0 -0.89156894114E+01  0.17091298263E+01  0.59383180784E+01  0.10847776929E+02  0.51100000000E-03 0.  1.
         12    1    3    3    0    0 -0.98880721486E+01  0.24805941287E+02  0.97262224047E+01  0.28420205774E+02  0.00000000000E+00 0. -1.
</event>
<event>
 7    1  0.7578565E-012  0.5930196E+02  0.7816164E-02  0.1266605E+00
        -11   -1    0    0    0    0  0.00000000000E+00  0.00000000000E+00  0.45593999997E+02  0.45594000000E+02  0.51100000000E-03 0.  1.
         11   -1    0    0    0    0 -0.00000000000E+00 -0.00000000000E+00 -0.45593999997E+02  0.45594000000E+02  0.51100000000E-03 0. -1.
    9900012    2    1    2    0    0 -0.17984098513E+02 -0.26183319471E+02 -0.27794412324E+01  0.59301963693E+02  0.50000035864E+02 0.  0.
         12    1    1    2    0    0  0.17984098513E+02  0.26183319471E+02  0.27794412324E+01  0.31886036307E+02  0.00000000000E+00 0. -1.
         11    1    3    3    0    0 -0.58518299159E+01 -0.30071087925E+02 -0.20582657035E+02  0.36907452002E+02  0.51100000000E-03 0. -1.
        -11    1    3    3    0    0 -0.79310564730E+00  0.17980747474E+01  0.35892902600E+01  0.40920770027E+01  0.51100000000E-03 0.  1.
         12    1    3    3    0    0 -0.11339162950E+02  0.20896937075E+01  0.14213925542E+02  0.18302434688E+02  0.00000000000E+00 0. -1.
</event>
<event>
 7    1  0.7578565E-012  0.5930195E+02  0.7816164E-02  0.1266605E+00
        -11   -1    0    0    0    0  0.00000000000E+00  0.00000000000E+00  0.45593999997E+02  0.45594000000E+02  0.51100000000E-03 0.  1.
         11   -1    0    0    0    0 -0.00000000000E+00 -0.00000000000E+00 -0.45593999997E+02  0.45594000000E+02  0.51100000000E-03 0. -1.
    9900012    2    1    2    0    0  0.13407276878E+02 -0.17434114353E+02 -0.23087156554E+02  0.59301949535E+02  0.50000010043E+02 0.  0.
         12    1    1    2    0    0 -0.13407276878E+02  0.17434114353E+02  0.23087156554E+02  0.31886050465E+02  0.00000000000E+00 0. -1.
         11    1    3    3    0    0 -0.39882217294E+01 -0.22330817864E+02 -0.15459919607E+02  0.27451419883E+02  0.51100000000E-03 0. -1.
        -11    1    3    3    0    0  0.16710973416E+02  0.76862351885E+01 -0.15129814488E+02  0.23816929495E+02  0.51100000000E-03 0.  1.
         12    1    3    3    0    0  0.68452519153E+00 -0.27895316778E+01  0.75025775415E+01  0.80336001572E+01  0.00000000000E+00 0. -1.
</event>
<event>
 7    1  0.7578565E-012  0.5930194E+02  0.7816164E-02  0.1266605E+00
        -11   -1    0    0    0    0  0.00000000000E+00  0.00000000000E+00  0.45593999997E+02  0.45594000000E+02  0.51100000000E-03 0.  1.
         11   -1    0    0    0    0 -0.00000000000E+00 -0.00000000000E+00 -0.45593999997E+02  0.45594000000E+02  0.51100000000E-03 0. -1.
    9900012    2    1    2    0    0 -0.15314134934E+02 -0.17341045157E+02  0.21942790472E+02  0.59301943022E+02  0.49999998166E+02 0.  0.
         12    1    1    2    0    0  0.15314134934E+02  0.17341045157E+02 -0.21942790472E+02  0.31886056978E+02  0.00000000000E+00 0. -1.
         11    1    3    3    0    0 -0.27122689299E+02 -0.93755397335E+01  0.40061237569E+00  0.28700200533E+02  0.51100000000E-03 0. -1.
        -11    1    3    3    0    0 -0.32796063815E+01 -0.47088359633E+01  0.91799701017E+01  0.10825932083E+02  0.51100000000E-03 0.  1.
         12    1    3    3    0    0  0.15088160747E+02 -0.32566694606E+01  0.12362207994E+02  0.19775810405E+02  0.00000000000E+00 0. -1.
</event>
<event>
 7    1  0.7578565E-012  0.5930196E+02  0.7816164E-02  0.1266605E+00
        -11   -1    0    0    0    0  0.00000000000E+00  0.00000000000E+00  0.45593999997E+02  0.45594000000E+02  0.51100000000E-03 0. -1.
         11   -1    0    0    0    0 -0.00000000000E+00 -0.00000000000E+00 -0.45593999997E+02  0.45594000000E+02  0.51100000000E-03 0.  1.
    9900012    2    1    2    0    0  0.19170672248E+02  0.10469217055E+01  0.25457985483E+02  0.59301956903E+02  0.50000023482E+02 0.  0.
         12    1    1    2    0    0 -0.19170672248E+02 -0.10469217055E+01 -0.25457985483E+02  0.31886043097E+02  0.00000000000E+00 0. -1.
         11    1    3    3    0    0 -0.36325802453E+01  0.10735135145E+02  0.19593575939E+02  0.22635083038E+02  0.51100000000E-03 0. -1.
        -11    1    3    3    0    0  0.20108157681E+02 -0.17630559808E+02  0.57073251558E+00  0.26748838859E+02  0.51100000000E-03 0.  1.
        -12    1    3    3    0    0  0.26950948125E+01  0.79423463687E+01  0.52936770291E+01  0.99180350059E+01  0.00000000000E+00 0.  1.
</event>
<event>
 7    1  0.7578565E-012  0.5930204E+02  0.7816164E-02  0.1266604E+00
        -11   -1    0    0    0    0  0.00000000000E+00  0.00000000000E+00  0.45593999997E+02  0.45594000000E+02  0.51100000000E-03 0. -1.
         11   -1    0    0    0    0 -0.00000000000E+00 -0.00000000000E+00 -0.45593999997E+02  0.45594000000E+02  0.51100000000E-03 0.  1.
    9900012    2    1    2    0    0  0.31313431860E+02  0.10918601072E+00 -0.60142786335E+01  0.59302039391E+02  0.50000173920E+02 0.  0.
         12    1    1    2    0    0 -0.31313431860E+02 -0.10918601072E+00  0.60142786335E+01  0.31885960609E+02  0.00000000000E+00 0. -1.
         11    1    3    3    0    0  0.16164361847E+02 -0.46272873544E+01  0.20688349064E+02  0.26659072929E+02  0.51100000000E-03 0. -1.
        -11    1    3    3    0    0  0.28788628319E+01  0.22323015037E+01 -0.15228391178E+02  0.15658062439E+02  0.51100000000E-03 0.  1.
        -12    1    3    3    0    0  0.12270207182E+02  0.25041718614E+01 -0.11474236520E+02  0.16984904024E+02  0.00000000000E+00 0.  1.
</event>
<event>
 7    1  0.7578565E-012  0.5930179E+02  0.7816164E-02  0.1266605E+00
        -11   -1    0    0    0    0  0.00000000000E+00  0.00000000000E+00  0.45593999997E+02  0.45594000000E+02  0.51100000000E-03 0.  1.
         11   -1    0    0    0    0 -0.00000000000E+00 -0.00000000000E+00 -0.45593999997E+02  0.45594000000E+02  0.51100000000E-03 0. -1.
    9900012    2    1    2    0    0 -0.70540825383E+01  0.29683549430E+02  0.92659117073E+01  0.59301791273E+02  0.49999721412E+02 0.  0.
         12    1    1    2    0    0  0.70540825383E+01 -0.29683549430E+02 -0.92659117073E+01  0.31886208727E+02  0.00000000000E+00 0. -1.
         11    1    3    3    0    0 -0.96244555091E+01  0.30586392458E+02 -0.13864159024E+01  0.32094854678E+02  0.51100000000E-03 0. -1.
        -11    1    3    3    0    0  0.23199525862E+01  0.37458130365E+01  0.17987437897E+02  0.18519212123E+02  0.51100000000E-03 0.  1.
         12    1    3    3    0    0  0.25042038462E+00 -0.46486560651E+01 -0.73351102873E+01  0.86877244724E+01  0.00000000000E+00 0. -1.
</event>
<event>
 7    1  0.7578565E-012  0.5930194E+02  0.7816164E-02  0.1266605E+00
        -11   -1    0    0    0    0  0.00000000000E+00  0.00000000000E+00  0.45593999997E+02  0.45594000000E+02  0.51100000000E-03 0.  1.
         11   -1    0    0    0    0 -0.00000000000E+00 -0.00000000000E+00 -0.45593999997E+02  0.45594000000E+02  0.51100000000E-03 0. -1.
    9900012    2    1    2    0    0  0.28365093940E+02  0.10809911592E+02  0.97615563631E+01  0.59301941518E+02  0.49999995423E+02 0.  0.
         12    1    1    2    0    0 -0.28365093940E+02 -0.10809911592E+02 -0.97615563631E+01  0.31886058482E+02  0.00000000000E+00 0. -1.
         11    1    3    3    0    0  0.89936298187E+01 -0.12258379656E+02  0.13598164294E+02  0.20397630292E+02  0.51100000000E-03 0. -1.
        -11    1    3    3    0    0  0.21637099200E+02  0.18665774323E+02  0.47738333472E+01  0.28971791073E+02  0.51100000000E-03 0.  1.
         12    1    3    3    0    0 -0.22656350786E+01  0.44025169248E+01 -0.86104412782E+01  0.99325201529E+01  0.00000000000E+00 0. -1.
</event>
<event>
 7    1  0.7578565E-012  0.5930194E+02  0.7816164E-02  0.1266605E+00
        -11   -1    0    0    0    0  0.00000000000E+00  0.00000000000E+00  0.45593999997E+02  0.45594000000E+02  0.51100000000E-03 0.  1.
         11   -1    0    0    0    0 -0.00000000000E+00 -0.00000000000E+00 -0.45593999997E+02  0.45594000000E+02  0.51100000000E-03 0. -1.
    9900012    2    1    2    0    0 -0.12736670814E+00 -0.10826274119E+02  0.29991604291E+02  0.59301940953E+02  0.49999994393E+02 0.  0.
         12    1    1    2    0    0  0.12736670814E+00  0.10826274119E+02 -0.29991604291E+02  0.31886059047E+02  0.00000000000E+00 0. -1.
         11    1    3    3    0    0  0.10895182551E+02 -0.29934712765E+01 -0.48134745349E+01  0.12281506848E+02  0.51100000000E-03 0. -1.
        -11    1    3    3    0    0 -0.18218810154E+02  0.13405006442E+01  0.28258293959E+02  0.33648969719E+02  0.51100000000E-03 0.  1.
         12    1    3    3    0    0  0.71962608955E+01 -0.91733034871E+01  0.65467848673E+01  0.13371464387E+02  0.00000000000E+00 0. -1.
</event>
<event>
 7    1  0.7578565E-012  0.5930191E+02  0.7816164E-02  0.1266605E+00
        -11   -1    0    0    0    0  0.00000000000E+00  0.00000000000E+00  0.45593999997E+02  0.45594000000E+02  0.51100000000E-03 0. -1.
         11   -1    0    0    0    0 -0.00000000000E+00 -0.00000000000E+00 -0.45593999997E+02  0.45594000000E+02  0.51100000000E-03 0.  1.
    9900012    2    1    2    0    0  0.31406455174E+02  0.54871140785E+01  0.49915686299E+00  0.59301905773E+02  0.49999930232E+02 0.  0.
         12    1    1    2    0    0 -0.31406455174E+02 -0.54871140785E+01 -0.49915686299E+00  0.31886094227E+02  0.00000000000E+00 0. -1.
         11    1    3    3    0    0 -0.11775248775E+02  0.58357367741E+01  0.70605109729E+01  0.14918549623E+02  0.51100000000E-03 0. -1.
        -11    1    3    3    0    0  0.21385229242E+02 -0.20790900782E+01 -0.67372961180E+01  0.22517588781E+02  0.51100000000E-03 0.  1.
         12    1    3    3    0    0  0.21796474707E+02  0.17304673826E+01  0.17594200813E+00  0.21865767368E+02  0.00000000000E+00 0. -1.
</event>
<event>
 7    1  0.7578565E-012  0.5930198E+02  0.7816164E-02  0.1266605E+00
        -11   -1    0    0    0    0  0.00000000000E+00  0.00000000000E+00  0.45593999997E+02  0.45594000000E+02  0.51100000000E-03 0. -1.
         11   -1    0    0    0    0 -0.00000000000E+00 -0.00000000000E+00 -0.45593999997E+02  0.45594000000E+02  0.51100000000E-03 0.  1.
    9900012    2    1    2    0    0  0.17062215993E+02  0.16851369711E+02 -0.21015003368E+02  0.59301980457E+02  0.50000066438E+02 0.  0.
         12    1    1    2    0    0 -0.17062215993E+02 -0.16851369711E+02  0.21015003368E+02  0.31886019543E+02  0.00000000000E+00 0. -1.
         11    1    3    3    0    0 -0.39509988623E+00 -0.16293554039E+02 -0.11359876878E+01  0.16337884669E+02  0.51100000000E-03 0. -1.
        -11    1    3    3    0    0  0.50386959535E+01  0.55987634827E+01 -0.63741997017E+01  0.98673720689E+01  0.51100000000E-03 0.  1.
         12    1    3    3    0    0  0.12418619926E+02  0.27546160267E+02 -0.13504815979E+02  0.33096723720E+02  0.00000000000E+00 0. -1.
</event>
<event>
 7    1  0.7578565E-012  0.5930173E+02  0.7816164E-02  0.1266605E+00
        -11   -1    0    0    0    0  0.00000000000E+00  0.00000000000E+00  0.45593999997E+02  0.45594000000E+02  0.51100000000E-03 0. -1.
         11   -1    0    0    0    0 -0.00000000000E+00 -0.00000000000E+00 -0.45593999997E+02  0.45594000000E+02  0.51100000000E-03 0.  1.
    9900012    2    1    2    0    0 -0.46755324896E+01 -0.14153432182E+02 -0.28187829217E+02  0.59301733951E+02  0.49999616869E+02 0.  0.
         12    1    1    2    0    0  0.46755324896E+01  0.14153432182E+02  0.28187829217E+02  0.31886266049E+02  0.00000000000E+00 0. -1.
         11    1    3    3    0    0  0.10099661333E+00  0.14203940385E+02 -0.17854168522E+02  0.22815202314E+02  0.51100000000E-03 0. -1.
        -11    1    3    3    0    0  0.49319208327E+01 -0.15500108671E+02 -0.12108790081E+02  0.20278067201E+02  0.51100000000E-03 0.  1.
         12    1    3    3    0    0 -0.97084499356E+01 -0.12857263895E+02  0.17751293860E+01  0.16208464436E+02  0.00000000000E+00 0. -1.
</event>
<event>
 7    1  0.7578565E-012  0.5930197E+02  0.7816164E-02  0.1266605E+00
        -11   -1    0    0    0    0  0.00000000000E+00  0.00000000000E+00  0.45593999997E+02  0.45594000000E+02  0.51100000000E-03 0.  1.
         11   -1    0    0    0    0 -0.00000000000E+00 -0.00000000000E+00 -0.45593999997E+02  0.45594000000E+02  0.51100000000E-03 0. -1.
    9900012    2    1    2    0    0 -0.20780188915E+02  0.60679730495E+01  0.23411164248E+02  0.59301966071E+02  0.50000040202E+02 0.  0.
         12    1    1    2    0    0  0.20780188915E+02 -0.60679730495E+01 -0.23411164248E+02  0.31886033929E+02  0.00000000000E+00 0. -1.
         11    1    3    3    0    0 -0.62411498956E+01 -0.19793731725E+01  0.21867442549E+00  0.65511593585E+01  0.51100000000E-03 0. -1.
        -11    1    3    3    0    0  0.50489354545E+01  0.30887153830E+01  0.30647304477E+02  0.31213605749E+02  0.51100000000E-03 0.  1.
        -12    1    3    3    0    0 -0.19587974474E+02  0.49586308390E+01 -0.74548146541E+01  0.21537200963E+02  0.00000000000E+00 0.  1.
</event>
<event>
 7    1  0.7578565E-012  0.5930192E+02  0.7816164E-02  0.1266605E+00
        -11   -1    0    0    0    0  0.00000000000E+00  0.00000000000E+00  0.45593999997E+02  0.45594000000E+02  0.51100000000E-03 0. -1.
         11   -1    0    0    0    0 -0.00000000000E+00 -0.00000000000E+00 -0.45593999997E+02  0.45594000000E+02  0.51100000000E-03 0.  1.
    9900012    2    1    2    0    0 -0.17450334193E+02  0.80242160202E+01 -0.25452308074E+02  0.59301918515E+02  0.49999953471E+02 0.  0.
         12    1    1    2    0    0  0.17450334193E+02 -0.80242160202E+01  0.25452308074E+02  0.31886081485E+02  0.00000000000E+00 0. -1.
         11    1    3    3    0    0 -0.41270988088E+01 -0.67371630733E+01 -0.17060633864E+02  0.18801264291E+02  0.51100000000E-03 0. -1.
        -11    1    3    3    0    0  0.23464026309E+01  0.42722493911E+01  0.11864239170E+02  0.12826452803E+02  0.51100000000E-03 0.  1.
        -12    1    3    3    0    0 -0.15669638015E+02  0.10489129702E+02 -0.20255913380E+02  0.27674201421E+02  0.00000000000E+00 0.  1.
</event>
<event>
 7    1  0.7578565E-012  0.5930194E+02  0.7816164E-02  0.1266605E+00
        -11   -1    0    0    0    0  0.00000000000E+00  0.00000000000E+00  0.45593999997E+02  0.45594000000E+02  0.51100000000E-03 0.  1.
         11   -1    0    0    0    0 -0.00000000000E+00 -0.00000000000E+00 -0.45593999997E+02  0.45594000000E+02  0.51100000000E-03 0. -1.
    9900012    2    1    2    0    0  0.13986961071E+02 -0.21649766702E+02  0.18771602862E+02  0.59301944235E+02  0.50000000378E+02 0.  0.
         12    1    1    2    0    0 -0.13986961071E+02  0.21649766702E+02 -0.18771602862E+02  0.31886055765E+02  0.00000000000E+00 0. -1.
         11    1    3    3    0    0  0.20411738232E+02 -0.33597683001E+02  0.13725608405E+02  0.41639352625E+02  0.51100000000E-03 0. -1.
        -11    1    3    3    0    0 -0.69534281120E+01  0.39997138288E+01 -0.36964027393E+00  0.80302246180E+01  0.51100000000E-03 0.  1.
         12    1    3    3    0    0  0.52865095151E+00  0.79482024703E+01  0.54156347309E+01  0.96323669924E+01  0.00000000000E+00 0. -1.
</event>
<event>
 7    1  0.7578565E-012  0.5930195E+02  0.7816164E-02  0.1266605E+00
        -11   -1    0    0    0    0  0.00000000000E+00  0.00000000000E+00  0.45593999997E+02  0.45594000000E+02  0.51100000000E-03 0. -1.
         11   -1    0    0    0    0 -0.00000000000E+00 -0.00000000000E+00 -0.45593999997E+02  0.45594000000E+02  0.51100000000E-03 0.  1.
    9900012    2    1    2    0    0  0.81030551415E+01  0.22834623601E+02  0.20727770553E+02  0.59301952742E+02  0.50000015892E+02 0.  0.
         12    1    1    2    0    0 -0.81030551415E+01 -0.22834623601E+02 -0.20727770553E+02  0.31886047258E+02  0.00000000000E+00 0. -1.
         11    1    3    3    0    0  0.72328310690E+00  0.44868756572E+01  0.24429007435E+02  0.24848170881E+02  0.51100000000E-03 0. -1.
        -11    1    3    3    0    0 -0.30120677785E+01  0.15852404911E+02 -0.12658904746E+02  0.20509002009E+02  0.51100000000E-03 0.  1.
        -12    1    3    3    0    0  0.10391839813E+02  0.24953430335E+01  0.89576678651E+01  0.13944779853E+02  0.00000000000E+00 0.  1.
</event>
<event>
 7    1  0.7578565E-012  0.5930190E+02  0.7816164E-02  0.1266605E+00
        -11   -1    0    0    0    0  0.00000000000E+00  0.00000000000E+00  0.45593999997E+02  0.45594000000E+02  0.51100000000E-03 0. -1.
         11   -1    0    0    0    0 -0.00000000000E+00 -0.00000000000E+00 -0.45593999997E+02  0.45594000000E+02  0.51100000000E-03 0.  1.
    9900012    2    1    2    0    0  0.14909892403E+01 -0.30837649042E+02  0.79711924443E+01  0.59301897128E+02  0.49999914467E+02 0.  0.
         12    1    1    2    0    0 -0.14909892403E+01  0.30837649042E+02 -0.79711924443E+01  0.31886102872E+02  0.00000000000E+00 0. -1.
         11    1    3    3    0    0  0.12717818170E+02 -0.18373599581E+02  0.37550634225E+01  0.22659050336E+02  0.51100000000E-03 0. -1.
        -11    1    3    3    0    0 -0.18126064665E+02 -0.11484501096E+02  0.13260930049E+02  0.25224992600E+02  0.51100000000E-03 0.  1.
         12    1    3    3    0    0  0.68992357354E+01 -0.97954836539E+00 -0.90448010268E+01  0.11417854192E+02  0.00000000000E+00 0. -1.
</event>
<event>
 7    1  0.7578565E-012  0.5930196E+02  0.7816164E-02  0.1266605E+00
        -11   -1    0    0    0    0  0.00000000000E+00  0.00000000000E+00  0.45593999997E+02  0.45594000000E+02  0.51100000000E-03 0.  1.
         11   -1    0    0    0    0 -0.00000000000E+00 -0.00000000000E+00 -0.45593999997E+02  0.45594000000E+02  0.51100000000E-03 0. -1.
    9900012    2    1    2    0    0 -0.10321759323E+02  0.15353771206E+02  0.25970026386E+02  0.59301964244E+02  0.50000036870E+02 0.  0.
         12    1    1    2    0    0  0.10321759323E+02 -0.15353771206E+02 -0.25970026386E+02  0.31886035756E+02  0.00000000000E+00 0. -1.
         11    1    3    3    0    0 -0.11237261624E+02  0.17433777664E+02 -0.41304478259E+01  0.21148835712E+02  0.51100000000E-03 0. -1.
        -11    1    3    3    0    0  0.13371876969E+01  0.62081425277E+01  0.29110827893E+02  0.29795459477E+02  0.51100000000E-03 0.  1.
         12    1    3    3    0    0 -0.42168539550E+00 -0.82881489865E+01  0.98964631862E+00  0.83576690549E+01  0.00000000000E+00 0. -1.
</event>
<event>
 7    1  0.7578565E-012  0.5930196E+02  0.7816164E-02  0.1266605E+00
        -11   -1    0    0    0    0  0.00000000000E+00  0.00000000000E+00  0.45593999997E+02  0.45594000000E+02  0.51100000000E-03 0.  1.
         11   -1    0    0    0    0 -0.00000000000E+00 -0.00000000000E+00 -0.45593999997E+02  0.45594000000E+02  0.51100000000E-03 0. -1.
    9900012    2    1    2    0    0 -0.23887542488E+02 -0.21098589752E+02  0.97705920495E+00  0.59301955712E+02  0.50000021309E+02 0.  0.
         12    1    1    2    0    0  0.23887542488E+02  0.21098589752E+02 -0.97705920495E+00  0.31886044288E+02  0.00000000000E+00 0. -1.
         11    1    3    3    0    0 -0.26539584343E+02 -0.30755230021E+02  0.10002642512E+02  0.41836426331E+02  0.51100000000E-03 0.  1.
        -11    1    3    3    0    0  0.64507676736E+01  0.62939911933E+01 -0.84594797873E+01  0.12360806092E+02  0.51100000000E-03 0. -1.
        -12    1    3    3    0    0 -0.37987258192E+01  0.33626490754E+01 -0.56610351964E+00  0.51047232882E+01  0.00000000000E+00 0.  1.
</event>
<event>
 7    1  0.7578565E-012  0.5930193E+02  0.7816164E-02  0.1266605E+00
        -11   -1    0    0    0    0  0.00000000000E+00  0.00000000000E+00  0.45593999997E+02  0.45594000000E+02  0.51100000000E-03 0. -1.
         11   -1    0    0    0    0 -0.00000000000E+00 -0.00000000000E+00 -0.45593999997E+02  0.45594000000E+02  0.51100000000E-03 0.  1.
    9900012    2    1    2    0    0 -0.30468605620E+02  0.33254309748E+01 -0.87935688441E+01  0.59301932939E+02  0.49999979777E+02 0.  0.
         12    1    1    2    0    0  0.30468605620E+02 -0.33254309748E+01  0.87935688441E+01  0.31886067061E+02  0.00000000000E+00 0. -1.
         11    1    3    3    0    0 -0.25287453232E+02 -0.46902504274E+01  0.88148753472E+01  0.27187419290E+02  0.51100000000E-03 0. -1.
        -11    1    3    3    0    0 -0.19155458004E+01  0.15651759066E+02 -0.41594801950E+01  0.16307916891E+02  0.51100000000E-03 0.  1.
         12    1    3    3    0    0 -0.32656065880E+01 -0.76360776642E+01 -0.13448963996E+02  0.15806596757E+02  0.00000000000E+00 0. -1.
</event>
<event>
 7    1  0.7578565E-012  0.5930191E+02  0.7816164E-02  0.1266605E+00
        -11   -1    0    0    0    0  0.00000000000E+00  0.00000000000E+00  0.45593999997E+02  0.45594000000E+02  0.51100000000E-03 0.  1.
         11   -1    0    0    0    0 -0.00000000000E+00 -0.00000000000E+00 -0.45593999997E+02  0.45594000000E+02  0.51100000000E-03 0. -1.
    9900012    2    1    2    0    0 -0.31798565634E+02 -0.67694920757E+00 -0.22617383615E+01  0.59301913740E+02  0.49999944762E+02 0.  0.
         12    1    1    2    0    0  0.31798565634E+02  0.67694920757E+00  0.22617383615E+01  0.31886086260E+02  0.00000000000E+00 0. -1.
         11    1    3    3    0    0 -0.89355435186E+00 -0.55564952563E+01  0.57934693648E+01  0.80769651761E+01  0.51100000000E-03 0. -1.
        -11    1    3    3    0    0 -0.30902815383E+02  0.27761583496E+01 -0.21415350790E+02  0.37700242751E+02  0.51100000000E-03 0.  1.
        -12    1    3    3    0    0 -0.21958991319E-02  0.21033876992E+01  0.13360143064E+02  0.13524705813E+02  0.00000000000E+00 0.  1.
</event>
<event>
 7    1  0.7578565E-012  0.5930196E+02  0.7816164E-02  0.1266605E+00
        -11   -1    0    0    0    0  0.00000000000E+00  0.00000000000E+00  0.45593999997E+02  0.45594000000E+02  0.51100000000E-03 0. -1.
         11   -1    0    0    0    0 -0.00000000000E+00 -0.00000000000E+00 -0.45593999997E+02  0.45594000000E+02  0.51100000000E-03 0.  1.
    9900012    2    1    2    0    0  0.14460629562E+02  0.28329681970E+02  0.22447364139E+01  0.59301960274E+02  0.50000029630E+02 0.  0.
         12    1    1    2    0    0 -0.14460629562E+02 -0.28329681970E+02 -0.22447364139E+01  0.31886039726E+02  0.00000000000E+00 0. -1.
         11    1    3    3    0    0 -0.20431556657E+01 -0.39176499403E+01  0.19536713911E+00  0.44227406333E+01  0.51100000000E-03 0. -1.
        -11    1    3    3    0    0  0.38248258601E+01  0.29939902097E+02 -0.14840458889E+02  0.33634301698E+02  0.51100000000E-03 0.  1.
        -12    1    3    3    0    0  0.12678959367E+02  0.23074298134E+01  0.16889828164E+02  0.21244917943E+02  0.00000000000E+00 0.  1.
</event>
<event>
 7    1  0.7578565E-012  0.5930197E+02  0.7816164E-02  0.1266605E+00
        -11   -1    0    0    0    0  0.00000000000E+00  0.00000000000E+00  0.45593999997E+02  0.45594000000E+02  0.51100000000E-03 0.  1.
         11   -1    0    0    0    0 -0.00000000000E+00 -0.00000000000E+00 -0.45593999997E+02  0.45594000000E+02  0.51100000000E-03 0. -1.
    9900012    2    1    2    0    0  0.23406712267E+02  0.74501356351E+01  0.20330765329E+02  0.59301972982E+02  0.50000052806E+02 0.  0.
         12    1    1    2    0    0 -0.23406712267E+02 -0.74501356351E+01 -0.20330765329E+02  0.31886027018E+02  0.00000000000E+00 0. -1.
         11    1    3    3    0    0  0.10901575586E+02  0.65055745855E+01  0.74828510563E+01  0.14736346601E+02  0.51100000000E-03 0. -1.
        -11    1    3    3    0    0  0.76318323663E+01 -0.18323586181E+02 -0.17195744730E+01  0.19923744940E+02  0.51100000000E-03 0.  1.
        -12    1    3    3    0    0  0.48733043146E+01  0.19268147230E+02  0.14567488746E+02  0.24641881442E+02  0.00000000000E+00 0.  1.
</event>
<event>
 7    1  0.7578565E-012  0.5930193E+02  0.7816164E-02  0.1266605E+00
        -11   -1    0    0    0    0  0.00000000000E+00  0.00000000000E+00  0.45593999997E+02  0.45594000000E+02  0.51100000000E-03 0. -1.
         11   -1    0    0    0    0 -0.00000000000E+00 -0.00000000000E+00 -0.45593999997E+02  0.45594000000E+02  0.51100000000E-03 0.  1.
    9900012    2    1    2    0    0  0.21445901513E+02 -0.23510724953E+02  0.20100442832E+01  0.59301934744E+02  0.49999983068E+02 0.  0.
         12    1    1    2    0    0 -0.21445901513E+02  0.23510724953E+02 -0.20100442832E+01  0.31886065256E+02  0.00000000000E+00 0. -1.
         11    1    3    3    0    0  0.10409647096E+02  0.68692338145E+00  0.19688357315E+02  0.22281472806E+02  0.51100000000E-03 0. -1.
        -11    1    3    3    0    0 -0.37453016123E+00 -0.20505196365E+02 -0.10453513257E+02  0.23019107074E+02  0.51100000000E-03 0.  1.
         12    1    3    3    0    0  0.11410784578E+02 -0.36924519692E+01 -0.72247997747E+01  0.14001354864E+02  0.00000000000E+00 0. -1.
</event>
<event>
 7    1  0.7578565E-012  0.5930192E+02  0.7816164E-02  0.1266605E+00
        -11   -1    0    0    0    0  0.00000000000E+00  0.00000000000E+00  0.45593999997E+02  0.45594000000E+02  0.51100000000E-03 0. -1.
         11   -1    0    0    0    0 -0.00000000000E+00 -0.00000000000E+00 -0.45593999997E+02  0.45594000000E+02  0.51100000000E-03 0.  1.
    9900012    2    1    2    0    0  0.75625114391E+01  0.11567460466E+02 -0.28735420536E+02  0.59301919741E+02  0.49999955707E+02 0.  0.
         12    1    1    2    0    0 -0.75625114391E+01 -0.11567460466E+02  0.28735420536E+02  0.31886080259E+02  0.00000000000E+00 0. -1.
         11    1    3    3    0    0  0.42882800473E+01  0.24981324507E+01  0.77481629494E+01  0.92013064755E+01  0.51100000000E-03 0. -1.
        -11    1    3    3    0    0  0.10608109344E+02 -0.87891926718E+01 -0.22034435565E+02  0.25986501161E+02  0.51100000000E-03 0.  1.
        -12    1    3    3    0    0 -0.73338779518E+01  0.17858520688E+02 -0.14449147921E+02  0.24114112105E+02  0.00000000000E+00 0.  1.
</event>
<event>
 7    1  0.7578565E-012  0.5930195E+02  0.7816164E-02  0.1266605E+00
        -11   -1    0    0    0    0  0.00000000000E+00  0.00000000000E+00  0.45593999997E+02  0.45594000000E+02  0.51100000000E-03 0. -1.
         11   -1    0    0    0    0 -0.00000000000E+00 -0.00000000000E+00 -0.45593999997E+02  0.45594000000E+02  0.51100000000E-03 0.  1.
    9900012    2    1    2    0    0  0.20850098391E+02 -0.24123886055E+02 -0.17876331602E+00  0.59301946032E+02  0.50000003656E+02 0.  0.
         12    1    1    2    0    0 -0.20850098391E+02  0.24123886055E+02  0.17876331602E+00  0.31886053968E+02  0.00000000000E+00 0. -1.
         11    1    3    3    0    0  0.97997153119E+01 -0.82158586056E+00  0.77481828006E+01  0.12519734841E+02  0.51100000000E-03 0. -1.
        -11    1    3    3    0    0  0.59048297530E+01 -0.58649352104E+01 -0.22173888037E+02  0.23684294171E+02  0.51100000000E-03 0.  1.
        -12    1    3    3    0    0  0.51455533260E+01 -0.17437364984E+02  0.14246941920E+02  0.23097917021E+02  0.00000000000E+00 0.  1.
</event>
<event>
 7    1  0.7578565E-012  0.5930193E+02  0.7816164E-02  0.1266605E+00
        -11   -1    0    0    0    0  0.00000000000E+00  0.00000000000E+00  0.45593999997E+02  0.45594000000E+02  0.51100000000E-03 0.  1.
         11   -1    0    0    0    0 -0.00000000000E+00 -0.00000000000E+00 -0.45593999997E+02  0.45594000000E+02  0.51100000000E-03 0. -1.
    9900012    2    1    2    0    0  0.19470060773E+02  0.22829543580E+02  0.10791194607E+02  0.59301933958E+02  0.49999981635E+02 0.  0.
         12    1    1    2    0    0 -0.19470060773E+02 -0.22829543580E+02 -0.10791194607E+02  0.31886066042E+02  0.00000000000E+00 0. -1.
         11    1    3    3    0    0  0.11946027579E+02  0.50406360261E+01  0.14887513164E+02  0.19742179083E+02  0.51100000000E-03 0.  1.
        -11    1    3    3    0    0 -0.12205449555E+02  0.25879141950E+01 -0.72886387901E+01  0.14449725063E+02  0.51100000000E-03 0. -1.
        -12    1    3    3    0    0  0.19729482750E+02  0.15200993359E+02  0.31923202323E+01  0.25110029812E+02  0.00000000000E+00 0.  1.
</event>
<event>
 7    1  0.7578565E-012  0.5930173E+02  0.7816164E-02  0.1266606E+00
        -11   -1    0    0    0    0  0.00000000000E+00  0.00000000000E+00  0.45593999997E+02  0.45594000000E+02  0.51100000000E-03 0.  1.
         11   -1    0    0    0    0 -0.00000000000E+00 -0.00000000000E+00 -0.45593999997E+02  0.45594000000E+02  0.51100000000E-03 0. -1.
    9900012    2    1    2    0    0  0.63001815755E+01  0.30753228518E+02  0.55929283294E+01  0.59301730236E+02  0.49999610094E+02 0.  0.
         12    1    1    2    0    0 -0.63001815755E+01 -0.30753228518E+02 -0.55929283294E+01  0.31886269764E+02  0.00000000000E+00 0. -1.
         11    1    3    3    0    0  0.89757207102E+01  0.35547670209E+02 -0.11830109730E+02  0.38524692290E+02  0.51100000000E-03 0. -1.
        -11    1    3    3    0    0 -0.16981820234E+01  0.30010429371E+01  0.58061087512E+01  0.67528497678E+01  0.51100000000E-03 0.  1.
         12    1    3    3    0    0 -0.97735711140E+00 -0.77954846280E+01  0.11616929308E+02  0.14024188178E+02  0.00000000000E+00 0. -1.
</event>
<event>
 7    1  0.7578565E-012  0.5930193E+02  0.7816164E-02  0.1266605E+00
        -11   -1    0    0    0    0  0.00000000000E+00  0.00000000000E+00  0.45593999997E+02  0.45594000000E+02  0.51100000000E-03 0. -1.
         11   -1    0    0    0    0 -0.00000000000E+00 -0.00000000000E+00 -0.45593999997E+02  0.45594000000E+02  0.51100000000E-03 0.  1.
    9900012    2    1    2    0    0 -0.17725163518E+02  0.24710336466E+02 -0.95884977474E+01  0.59301930329E+02  0.49999975016E+02 0.  0.
         12    1    1    2    0    0  0.17725163518E+02 -0.24710336466E+02  0.95884977474E+01  0.31886069671E+02  0.00000000000E+00 0. -1.
         11    1    3    3    0    0 -0.13064864224E+01 -0.28000557973E+01  0.16368783507E+02  0.16657859797E+02  0.51100000000E-03 0. -1.
        -11    1    3    3    0    0 -0.38800049844E+01  0.78146260176E+00 -0.12637071206E+01  0.41547657485E+01  0.51100000000E-03 0.  1.
         12    1    3    3    0    0 -0.12538672111E+02  0.26728929662E+02 -0.24693574134E+02  0.38489304783E+02  0.00000000000E+00 0. -1.
</event>
<event>
 7    1  0.7578565E-012  0.5930194E+02  0.7816164E-02  0.1266605E+00
        -11   -1    0    0    0    0  0.00000000000E+00  0.00000000000E+00  0.45593999997E+02  0.45594000000E+02  0.51100000000E-03 0. -1.
         11   -1    0    0    0    0 -0.00000000000E+00 -0.00000000000E+00 -0.45593999997E+02  0.45594000000E+02  0.51100000000E-03 0.  1.
    9900012    2    1    2    0    0 -0.18612321147E+02  0.14490111870E+02 -0.21455509813E+02  0.59301941262E+02  0.49999994956E+02 0.  0.
         12    1    1    2    0    0  0.18612321147E+02 -0.14490111870E+02  0.21455509813E+02  0.31886058738E+02  0.00000000000E+00 0. -1.
         11    1    3    3    0    0 -0.16211015441E+01 -0.11002589016E+02  0.18536070361E+01  0.11274785788E+02  0.51100000000E-03 0. -1.
        -11    1    3    3    0    0 -0.12138734031E+02  0.30718240470E+02 -0.13008617626E+02  0.35499060470E+02  0.51100000000E-03 0.  1.
        -12    1    3    3    0    0 -0.48524855725E+01 -0.52255395844E+01 -0.10300499224E+02  0.12528095004E+02  0.00000000000E+00 0.  1.
</event>
<event>
 7    1  0.7578565E-012  0.5930194E+02  0.7816164E-02  0.1266605E+00
        -11   -1    0    0    0    0  0.00000000000E+00  0.00000000000E+00  0.45593999997E+02  0.45594000000E+02  0.51100000000E-03 0.  1.
         11   -1    0    0    0    0 -0.00000000000E+00 -0.00000000000E+00 -0.45593999997E+02  0.45594000000E+02  0.51100000000E-03 0. -1.
    9900012    2    1    2    0    0  0.34797067194E+00 -0.19088258852E+02  0.25538953091E+02  0.59301939808E+02  0.49999992304E+02 0.  0.
         12    1    1    2    0    0 -0.34797067194E+00  0.19088258852E+02 -0.25538953091E+02  0.31886060192E+02  0.00000000000E+00 0. -1.
         11    1    3    3    0    0  0.10034063242E+02 -0.17921394341E+02  0.98414049699E+01  0.22775250873E+02  0.51100000000E-03 0. -1.
        -11    1    3    3    0    0  0.16157252421E+01  0.67631245270E+01  0.20704124578E+02  0.21840585986E+02  0.51100000000E-03 0.  1.
        -12    1    3    3    0    0 -0.11301817812E+02 -0.79299890383E+01 -0.50065764567E+01  0.14686102949E+02  0.00000000000E+00 0.  1.
</event>
<event>
 7    1  0.7578565E-012  0.5930209E+02  0.7816164E-02  0.1266604E+00
        -11   -1    0    0    0    0  0.00000000000E+00  0.00000000000E+00  0.45593999997E+02  0.45594000000E+02  0.51100000000E-03 0. -1.
         11   -1    0    0    0    0 -0.00000000000E+00 -0.00000000000E+00 -0.45593999997E+02  0.45594000000E+02  0.51100000000E-03 0.  1.
    9900012    2    1    2    0    0  0.27248845982E+02  0.12494207862E+02 -0.10867676107E+02  0.59302090551E+02  0.50000267222E+02 0.  0.
         12    1    1    2    0    0 -0.27248845982E+02 -0.12494207862E+02  0.10867676107E+02  0.31885909449E+02  0.00000000000E+00 0. -1.
         11    1    3    3    0    0  0.13564188522E+02 -0.19216821168E+01  0.94959739865E+01  0.16668941017E+02  0.51100000000E-03 0. -1.
        -11    1    3    3    0    0 -0.33714693320E+01  0.19319440866E+02 -0.91562545558E+01  0.21643581001E+02  0.51100000000E-03 0.  1.
        -12    1    3    3    0    0  0.17056126792E+02 -0.49035508868E+01 -0.11207395538E+02  0.20989568533E+02  0.00000000000E+00 0.  1.
</event>
<event>
 7    1  0.7578565E-012  0.5930172E+02  0.7816164E-02  0.1266606E+00
        -11   -1    0    0    0    0  0.00000000000E+00  0.00000000000E+00  0.45593999997E+02  0.45594000000E+02  0.51100000000E-03 0. -1.
         11   -1    0    0    0    0 -0.00000000000E+00 -0.00000000000E+00 -0.45593999997E+02  0.45594000000E+02  0.51100000000E-03 0.  1.
    9900012    2    1    2    0    0  0.13081944142E+02  0.46735997609E+01 -0.28701137984E+02  0.59301715820E+02  0.49999583802E+02 0.  0.
         12    1    1    2    0    0 -0.13081944142E+02 -0.46735997609E+01  0.28701137984E+02  0.31886284180E+02  0.00000000000E+00 0. -1.
         11    1    3    3    0    0  0.95920901481E+01  0.11149613828E+02  0.90810780880E+01  0.17285487017E+02  0.51100000000E-03 0. -1.
        -11    1    3    3    0    0 -0.26860805334E+00 -0.61081409870E+01 -0.26199361829E+01  0.66517368008E+01  0.51100000000E-03 0.  1.
         12    1    3    3    0    0  0.37584620475E+01 -0.36787307996E+00 -0.35162279889E+02  0.35364492002E+02  0.00000000000E+00 0. -1.
</event>
<event>
 7    1  0.7578565E-012  0.5930167E+02  0.7816164E-02  0.1266606E+00
        -11   -1    0    0    0    0  0.00000000000E+00  0.00000000000E+00  0.45593999997E+02  0.45594000000E+02  0.51100000000E-03 0. -1.
         11   -1    0    0    0    0 -0.00000000000E+00 -0.00000000000E+00 -0.45593999997E+02  0.45594000000E+02  0.51100000000E-03 0.  1.
    9900012    2    1    2    0    0  0.13131875627E+02  0.20293181306E+02 -0.20796117469E+02  0.59301672730E+02  0.49999505216E+02 0.  0.
         12    1    1    2    0    0 -0.13131875627E+02 -0.20293181306E+02  0.20796117469E+02  0.31886327270E+02  0.00000000000E+00 0. -1.
         11    1    3    3    0    0 -0.13986877647E+02  0.10413037834E+02  0.22972041913E+01  0.17588099687E+02  0.51100000000E-03 0. -1.
        -11    1    3    3    0    0  0.23259032117E+02  0.13493337802E+02 -0.12042442813E+02  0.29463081462E+02  0.51100000000E-03 0.  1.
         12    1    3    3    0    0  0.38597211569E+01 -0.36131943311E+01 -0.11050878847E+02  0.12250491581E+02  0.00000000000E+00 0. -1.
</event>
<event>
 7    1  0.7578565E-012  0.5930195E+02  0.7816164E-02  0.1266605E+00
        -11   -1    0    0    0    0  0.00000000000E+00  0.00000000000E+00  0.45593999997E+02  0.45594000000E+02  0.51100000000E-03 0. -1.
         11   -1    0    0    0    0 -0.00000000000E+00 -0.00000000000E+00 -0.45593999997E+02  0.45594000000E+02  0.51100000000E-03 0.  1.
    9900012    2    1    2    0    0 -0.71218990679E+01  0.11273263328E+02 -0.28963983404E+02  0.59301949022E+02  0.50000009108E+02 0.  0.
         12    1    1    2    0    0  0.71218990679E+01 -0.11273263328E+02  0.28963983404E+02  0.31886050978E+02  0.00000000000E+00 0. -1.
         11    1    3    3    0    0  0.41811882118E+01  0.71931165829E+01 -0.21838761034E+01  0.86018937528E+01  0.51100000000E-03 0. -1.
        -11    1    3    3    0    0 -0.13746982046E+02 -0.48007582921E+01  0.66618914835E+01  0.16012732245E+02  0.51100000000E-03 0.  1.
        -12    1    3    3    0    0  0.24438947661E+01  0.88809050370E+01 -0.33441998784E+02  0.34687323024E+02  0.00000000000E+00 0.  1.
</event>
<event>
 7    1  0.7578565E-012  0.5930195E+02  0.7816164E-02  0.1266605E+00
        -11   -1    0    0    0    0  0.00000000000E+00  0.00000000000E+00  0.45593999997E+02  0.45594000000E+02  0.51100000000E-03 0.  1.
         11   -1    0    0    0    0 -0.00000000000E+00 -0.00000000000E+00 -0.45593999997E+02  0.45594000000E+02  0.51100000000E-03 0. -1.
    9900012    2    1    2    0    0  0.18337570918E+02 -0.19073001360E+02 -0.17795350652E+02  0.59301946734E+02  0.50000004935E+02 0.  0.
         12    1    1    2    0    0 -0.18337570918E+02  0.19073001360E+02  0.17795350652E+02  0.31886053266E+02  0.00000000000E+00 0. -1.
         11    1    3    3    0    0 -0.77639204168E+01  0.76254291672E+01  0.95824391389E+00  0.10924461629E+02  0.51100000000E-03 0. -1.
        -11    1    3    3    0    0  0.10790417463E+02 -0.15175236673E+02  0.35674347142E+01  0.18959100923E+02  0.51100000000E-03 0.  1.
         12    1    3    3    0    0  0.15311073872E+02 -0.11523193854E+02 -0.22321029280E+02  0.29418384182E+02  0.00000000000E+00 0. -1.
</event>
<event>
 7    1  0.7578565E-012  0.5930194E+02  0.7816164E-02  0.1266605E+00
        -11   -1    0    0    0    0  0.00000000000E+00  0.00000000000E+00  0.45593999997E+02  0.45594000000E+02  0.51100000000E-03 0.  1.
         11   -1    0    0    0    0 -0.00000000000E+00 -0.00000000000E+00 -0.45593999997E+02  0.45594000000E+02  0.51100000000E-03 0. -1.
    9900012    2    1    2    0    0  0.24710365643E+02 -0.60168466627E+01  0.19233210687E+02  0.59301937099E+02  0.49999987364E+02 0.  0.
         12    1    1    2    0    0 -0.24710365643E+02  0.60168466627E+01 -0.19233210687E+02  0.31886062901E+02  0.00000000000E+00 0. -1.
         11    1    3    3    0    0  0.69870336246E+01 -0.15134077332E+02 -0.46328334656E+01  0.17300927193E+02  0.51100000000E-03 0. -1.
        -11    1    3    3    0    0  0.85688411727E+01  0.32594421627E+01  0.28683461107E+02  0.30112953087E+02  0.51100000000E-03 0.  1.
        -12    1    3    3    0    0  0.91544908461E+01  0.58577885062E+01 -0.48174169550E+01  0.11888056820E+02  0.00000000000E+00 0.  1.
</event>
<event>
 7    1  0.7578565E-012  0.5930194E+02  0.7816164E-02  0.1266605E+00
        -11   -1    0    0    0    0  0.00000000000E+00  0.00000000000E+00  0.45593999997E+02  0.45594000000E+02  0.51100000000E-03 0. -1.
         11   -1    0    0    0    0 -0.00000000000E+00 -0.00000000000E+00 -0.45593999997E+02  0.45594000000E+02  0.51100000000E-03 0.  1.
    9900012    2    1    2    0    0  0.68798214512E+01  0.17434097861E+01 -0.31086163967E+02  0.59301937041E+02  0.49999987258E+02 0.  0.
         12    1    1    2    0    0 -0.68798214512E+01 -0.17434097861E+01  0.31086163967E+02  0.31886062959E+02  0.00000000000E+00 0. -1.
         11    1    3    3    0    0  0.66717018663E+01 -0.67644458312E+01  0.80483310629E+01  0.12451705359E+02  0.51100000000E-03 0. -1.
        -11    1    3    3    0    0 -0.10076970575E+02  0.11101805218E+01 -0.28697633805E+02  0.30435703097E+02  0.51100000000E-03 0.  1.
        -12    1    3    3    0    0  0.10285090160E+02  0.73976750955E+01 -0.10436861225E+02  0.16414528584E+02  0.00000000000E+00 0.  1.
</event>
<event>
 7    1  0.7578565E-012  0.5930200E+02  0.7816164E-02  0.1266605E+00
        -11   -1    0    0    0    0  0.00000000000E+00  0.00000000000E+00  0.45593999997E+02  0.45594000000E+02  0.51100000000E-03 0.  1.
         11   -1    0    0    0    0 -0.00000000000E+00 -0.00000000000E+00 -0.45593999997E+02  0.45594000000E+02  0.51100000000E-03 0. -1.
    9900012    2    1    2    0    0 -0.20035895221E+02 -0.14504667684E+02  0.20121982928E+02  0.59302004972E+02  0.50000111148E+02 0.  0.
         12    1    1    2    0    0  0.20035895221E+02  0.14504667684E+02 -0.20121982928E+02  0.31885995028E+02  0.00000000000E+00 0. -1.
         11    1    3    3    0    0 -0.25829608009E+02 -0.22422380904E+01  0.34806897370E+01  0.26159347906E+02  0.51100000000E-03 0. -1.
        -11    1    3    3    0    0 -0.44061416507E+01 -0.14704607946E+02  0.16660922312E+02  0.22654489878E+02  0.51100000000E-03 0.  1.
         12    1    3    3    0    0  0.10199854438E+02  0.24421783521E+01 -0.19629120632E-01  0.10488167188E+02  0.00000000000E+00 0. -1.
</event>
<event>
 7    1  0.7578565E-012  0.5930187E+02  0.7816164E-02  0.1266605E+00
        -11   -1    0    0    0    0  0.00000000000E+00  0.00000000000E+00  0.45593999997E+02  0.45594000000E+02  0.51100000000E-03 0.  1.
         11   -1    0    0    0    0 -0.00000000000E+00 -0.00000000000E+00 -0.45593999997E+02  0.45594000000E+02  0.51100000000E-03 0. -1.
    9900012    2    1    2    0    0  0.88714811130E+01 -0.28213658080E+02  0.11916851463E+02  0.59301874048E+02  0.49999872374E+02 0.  0.
         12    1    1    2    0    0 -0.88714811130E+01  0.28213658080E+02 -0.11916851463E+02  0.31886125952E+02  0.00000000000E+00 0. -1.
         11    1    3    3    0    0 -0.50841950545E+01 -0.32082931590E+02  0.35906265959E+01  0.32681128169E+02  0.51100000000E-03 0.  1.
        -11    1    3    3    0    0  0.13766149064E+02 -0.60800556845E+01  0.30412818077E+01  0.15353284094E+02  0.51100000000E-03 0. -1.
         12    1    3    3    0    0  0.18952710306E+00  0.99493291944E+01  0.52849430591E+01  0.11267461785E+02  0.00000000000E+00 0. -1.
</event>
<event>
 7    1  0.7578565E-012  0.5930196E+02  0.7816164E-02  0.1266605E+00
        -11   -1    0    0    0    0  0.00000000000E+00  0.00000000000E+00  0.45593999997E+02  0.45594000000E+02  0.51100000000E-03 0. -1.
         11   -1    0    0    0    0 -0.00000000000E+00 -0.00000000000E+00 -0.45593999997E+02  0.45594000000E+02  0.51100000000E-03 0.  1.
    9900012    2    1    2    0    0  0.12871683117E+02  0.25469665158E+02 -0.14224470192E+02  0.59301958826E+02  0.50000026989E+02 0.  0.
         12    1    1    2    0    0 -0.12871683117E+02 -0.25469665158E+02  0.14224470192E+02  0.31886041174E+02  0.00000000000E+00 0. -1.
         11    1    3    3    0    0  0.17775861982E+02  0.74267847161E+01  0.18347255970E+01  0.19352121814E+02  0.51100000000E-03 0. -1.
        -11    1    3    3    0    0  0.27204399314E+01  0.24182239821E+02 -0.17610608365E+02  0.30038559277E+02  0.51100000000E-03 0.  1.
         12    1    3    3    0    0 -0.76246187962E+01 -0.61393593795E+01  0.15514125760E+01  0.99112777360E+01  0.00000000000E+00 0. -1.
</event>
<event>
 7    1  0.7578565E-012  0.5930192E+02  0.7816164E-02  0.1266605E+00
        -11   -1    0    0    0    0  0.00000000000E+00  0.00000000000E+00  0.45593999997E+02  0.45594000000E+02  0.51100000000E-03 0.  1.
         11   -1    0    0    0    0 -0.00000000000E+00 -0.00000000000E+00 -0.45593999997E+02  0.45594000000E+02  0.51100000000E-03 0. -1.
    9900012    2    1    2    0    0 -0.12086786671E+02 -0.16095859576E+02  0.24729642528E+02  0.59301916404E+02  0.49999949621E+02 0.  0.
         12    1    1    2    0    0  0.12086786671E+02  0.16095859576E+02 -0.24729642528E+02  0.31886083596E+02  0.00000000000E+00 0. -1.
         11    1    3    3    0    0  0.12769730789E+02 -0.35327666093E+01  0.19498790707E+02  0.23574335699E+02  0.51100000000E-03 0. -1.
        -11    1    3    3    0    0 -0.21069987347E+02 -0.46159376991E+01  0.11944911829E+02  0.24656280468E+02  0.51100000000E-03 0.  1.
         12    1    3    3    0    0 -0.37865301135E+01 -0.79471552671E+01 -0.67140600083E+01  0.11071300237E+02  0.00000000000E+00 0. -1.
</event>
<event>
 7    1  0.7578565E-012  0.5930192E+02  0.7816164E-02  0.1266605E+00
        -11   -1    0    0    0    0  0.00000000000E+00  0.00000000000E+00  0.45593999997E+02  0.45594000000E+02  0.51100000000E-03 0. -1.
         11   -1    0    0    0    0 -0.00000000000E+00 -0.00000000000E+00 -0.45593999997E+02  0.45594000000E+02  0.51100000000E-03 0.  1.
    9900012    2    1    2    0    0 -0.29027882678E+02  0.96243467108E+01 -0.90264128177E+01  0.59301919170E+02  0.49999954665E+02 0.  0.
         12    1    1    2    0    0  0.29027882678E+02 -0.96243467108E+01  0.90264128177E+01  0.31886080830E+02  0.00000000000E+00 0. -1.
         11    1    3    3    0    0 -0.64889930450E+01 -0.10814218357E+01  0.19409252130E+02  0.20493793510E+02  0.51100000000E-03 0. -1.
        -11    1    3    3    0    0 -0.10851109592E+02  0.79741373428E+01 -0.98514608527E+01  0.16684865205E+02  0.51100000000E-03 0.  1.
         12    1    3    3    0    0 -0.11687780041E+02  0.27316312036E+01 -0.18584204094E+02  0.22123260455E+02  0.00000000000E+00 0. -1.
</event>
<event>
 7    1  0.7578565E-012  0.5930193E+02  0.7816164E-02  0.1266605E+00
        -11   -1    0    0    0    0  0.00000000000E+00  0.00000000000E+00  0.45593999997E+02  0.45594000000E+02  0.51100000000E-03 0.  1.
         11   -1    0    0    0    0 -0.00000000000E+00 -0.00000000000E+00 -0.45593999997E+02  0.45594000000E+02  0.51100000000E-03 0. -1.
    9900012    2    1    2    0    0  0.12756319535E+02 -0.69409177963E+01  0.28386996162E+02  0.59301928134E+02  0.49999971014E+02 0.  0.
         12    1    1    2    0    0 -0.12756319535E+02  0.69409177963E+01 -0.28386996162E+02  0.31886071866E+02  0.00000000000E+00 0. -1.
         11    1    3    3    0    0  0.90484988826E+01 -0.13511017268E+02 -0.76321501029E+01  0.17963090911E+02  0.51100000000E-03 0. -1.
        -11    1    3    3    0    0  0.82639862112E+01 -0.32392026376E+01  0.21280664995E+02  0.23057593212E+02  0.51100000000E-03 0.  1.
         12    1    3    3    0    0 -0.45561655584E+01  0.98093021090E+01  0.14738481269E+02  0.18281244011E+02  0.00000000000E+00 0. -1.
</event>
<event>
 7    1  0.7578565E-012  0.5930194E+02  0.7816164E-02  0.1266605E+00
        -11   -1    0    0    0    0  0.00000000000E+00  0.00000000000E+00  0.45593999997E+02  0.45594000000E+02  0.51100000000E-03 0. -1.
         11   -1    0    0    0    0 -0.00000000000E+00 -0.00000000000E+00 -0.45593999997E+02  0.45594000000E+02  0.51100000000E-03 0.  1.
    9900012    2    1    2    0    0 -0.23464000422E+02  0.92052636628E+01 -0.19530093446E+02  0.59301941214E+02  0.49999994868E+02 0.  0.
         12    1    1    2    0    0  0.23464000422E+02 -0.92052636628E+01  0.19530093446E+02  0.31886058786E+02  0.00000000000E+00 0. -1.
         11    1    3    3    0    0  0.41315106289E+01  0.22648473358E+01  0.46007995648E+01  0.65853071628E+01  0.51100000000E-03 0. -1.
        -11    1    3    3    0    0 -0.29118300974E+02 -0.47638197072E+01 -0.45508540755E+01  0.29854307945E+02  0.51100000000E-03 0.  1.
        -12    1    3    3    0    0  0.15227899227E+01  0.11704236034E+02 -0.19580038935E+02  0.22862326106E+02  0.00000000000E+00 0.  1.
</event>
<event>
 7    1  0.7578565E-012  0.5930195E+02  0.7816164E-02  0.1266605E+00
        -11   -1    0    0    0    0  0.00000000000E+00  0.00000000000E+00  0.45593999997E+02  0.45594000000E+02  0.51100000000E-03 0. -1.
         11   -1    0    0    0    0 -0.00000000000E+00 -0.00000000000E+00 -0.45593999997E+02  0.45594000000E+02  0.51100000000E-03 0.  1.
    9900012    2    1    2    0    0 -0.15758434157E+02  0.25313797826E+02 -0.11296162044E+02  0.59301954708E+02  0.50000019478E+02 0.  0.
         12    1    1    2    0    0  0.15758434157E+02 -0.25313797826E+02  0.11296162044E+02  0.31886045292E+02  0.00000000000E+00 0. -1.
         11    1    3    3    0    0 -0.15172760983E+02  0.33540082851E+01  0.48826249667E+01  0.16288096091E+02  0.51100000000E-03 0. -1.
        -11    1    3    3    0    0  0.52621450190E+01 -0.53623842675E+01 -0.12836753471E+02  0.14873720959E+02  0.51100000000E-03 0.  1.
        -12    1    3    3    0    0 -0.58478181925E+01  0.27322173809E+02 -0.33420335396E+01  0.28140137658E+02  0.00000000000E+00 0.  1.
</event>
<event>
 7    1  0.7578565E-012  0.5930193E+02  0.7816164E-02  0.1266605E+00
        -11   -1    0    0    0    0  0.00000000000E+00  0.00000000000E+00  0.45593999997E+02  0.45594000000E+02  0.51100000000E-03 0. -1.
         11   -1    0    0    0    0 -0.00000000000E+00 -0.00000000000E+00 -0.45593999997E+02  0.45594000000E+02  0.51100000000E-03 0.  1.
    9900012    2    1    2    0    0  0.58931494420E+00  0.31880174815E+02  0.16893676309E+00  0.59301931287E+02  0.49999976764E+02 0.  0.
         12    1    1    2    0    0 -0.58931494420E+00 -0.31880174815E+02 -0.16893676309E+00  0.31886068713E+02  0.00000000000E+00 0. -1.
         11    1    3    3    0    0 -0.13296314578E+02 -0.99916938655E+00  0.36263947056E+01  0.13818142409E+02  0.51100000000E-03 0. -1.
        -11    1    3    3    0    0  0.99853721325E+01  0.35255856134E+02  0.38731799648E+01  0.36846771523E+02  0.51100000000E-03 0.  1.
        -12    1    3    3    0    0  0.39002573897E+01 -0.23765119321E+01 -0.73306379073E+01  0.86370173554E+01  0.00000000000E+00 0.  1.
</event>
<event>
 7    1  0.7578565E-012  0.5930195E+02  0.7816164E-02  0.1266605E+00
        -11   -1    0    0    0    0  0.00000000000E+00  0.00000000000E+00  0.45593999997E+02  0.45594000000E+02  0.51100000000E-03 0.  1.
         11   -1    0    0    0    0 -0.00000000000E+00 -0.00000000000E+00 -0.45593999997E+02  0.45594000000E+02  0.51100000000E-03 0. -1.
    9900012    2    1    2    0    0  0.32286022209E+00 -0.12593229482E+02  0.29292084469E+02  0.59301954775E+02  0.50000019601E+02 0.  0.
         12    1    1    2    0    0 -0.32286022209E+00  0.12593229482E+02 -0.29292084469E+02  0.31886045225E+02  0.00000000000E+00 0. -1.
         11    1    3    3    0    0  0.14084598158E+01 -0.28318405305E+02  0.24704098739E+02  0.37605961400E+02  0.51100000000E-03 0.  1.
        -11    1    3    3    0    0 -0.22861586350E+01  0.17195044047E+02  0.69318475001E+01  0.18680111646E+02  0.51100000000E-03 0. -1.
        -12    1    3    3    0    0  0.12005590413E+01 -0.14698682247E+01 -0.23438617699E+01  0.30158817294E+01  0.00000000000E+00 0.  1.
</event>
<event>
 7    1  0.7578565E-012  0.5930200E+02  0.7816164E-02  0.1266605E+00
        -11   -1    0    0    0    0  0.00000000000E+00  0.00000000000E+00  0.45593999997E+02  0.45594000000E+02  0.51100000000E-03 0. -1.
         11   -1    0    0    0    0 -0.00000000000E+00 -0.00000000000E+00 -0.45593999997E+02  0.45594000000E+02  0.51100000000E-03 0.  1.
    9900012    2    1    2    0    0  0.11600867811E+02 -0.20263545321E+02 -0.21714634617E+02  0.59302003708E+02  0.50000108843E+02 0.  0.
         12    1    1    2    0    0 -0.11600867811E+02  0.20263545321E+02  0.21714634617E+02  0.31885996292E+02  0.00000000000E+00 0. -1.
         11    1    3    3    0    0  0.78042839020E+01 -0.16017224153E+02  0.75116523128E+01  0.19336060548E+02  0.51100000000E-03 0. -1.
        -11    1    3    3    0    0 -0.67619323690E+01 -0.12157532415E+02 -0.12869628416E+02  0.18951428959E+02  0.51100000000E-03 0.  1.
         12    1    3    3    0    0  0.10558516278E+02  0.79112112461E+01 -0.16356658514E+02  0.21014514202E+02  0.00000000000E+00 0. -1.
</event>
<event>
 7    1  0.7578565E-012  0.5930192E+02  0.7816164E-02  0.1266605E+00
        -11   -1    0    0    0    0  0.00000000000E+00  0.00000000000E+00  0.45593999997E+02  0.45594000000E+02  0.51100000000E-03 0. -1.
         11   -1    0    0    0    0 -0.00000000000E+00 -0.00000000000E+00 -0.45593999997E+02  0.45594000000E+02  0.51100000000E-03 0.  1.
    9900012    2    1    2    0    0  0.30726519276E+02 -0.52298221382E+00 -0.85046695671E+01  0.59301923075E+02  0.49999961788E+02 0.  0.
         12    1    1    2    0    0 -0.30726519276E+02  0.52298221382E+00  0.85046695671E+01  0.31886076925E+02  0.00000000000E+00 0. -1.
         11    1    3    3    0    0  0.54681491146E+01 -0.16606397241E+02  0.27487169199E+01  0.17698263447E+02  0.51100000000E-03 0. -1.
        -11    1    3    3    0    0  0.29557001002E+02  0.93967742596E+01 -0.48405229573E+01  0.31390226782E+02  0.51100000000E-03 0.  1.
         12    1    3    3    0    0 -0.42986308404E+01  0.66866407674E+01 -0.64128635297E+01  0.10213432846E+02  0.00000000000E+00 0. -1.
</event>
<event>
 7    1  0.7578565E-012  0.5930192E+02  0.7816164E-02  0.1266605E+00
        -11   -1    0    0    0    0  0.00000000000E+00  0.00000000000E+00  0.45593999997E+02  0.45594000000E+02  0.51100000000E-03 0. -1.
         11   -1    0    0    0    0 -0.00000000000E+00 -0.00000000000E+00 -0.45593999997E+02  0.45594000000E+02  0.51100000000E-03 0.  1.
    9900012    2    1    2    0    0 -0.29162682045E+02  0.52221742576E+00  0.12883596184E+02  0.59301924893E+02  0.49999965103E+02 0.  0.
         12    1    1    2    0    0  0.29162682045E+02 -0.52221742576E+00 -0.12883596184E+02  0.31886075107E+02  0.00000000000E+00 0. -1.
         11    1    3    3    0    0 -0.62981722793E+00 -0.29840855097E+01 -0.67513089693E+01  0.74082122763E+01  0.51100000000E-03 0.  1.
        -11    1    3    3    0    0  0.45222259492E+00 -0.27462956879E+01  0.21974196995E+02  0.22149762507E+02  0.51100000000E-03 0. -1.
        -12    1    3    3    0    0 -0.28985087412E+02  0.62525986233E+01 -0.23392918415E+01  0.29743950110E+02  0.00000000000E+00 0.  1.
</event>
<event>
 7    1  0.7578565E-012  0.5930196E+02  0.7816164E-02  0.1266605E+00
        -11   -1    0    0    0    0  0.00000000000E+00  0.00000000000E+00  0.45593999997E+02  0.45594000000E+02  0.51100000000E-03 0.  1.
         11   -1    0    0    0    0 -0.00000000000E+00 -0.00000000000E+00 -0.45593999997E+02  0.45594000000E+02  0.51100000000E-03 0. -1.
    9900012    2    1    2    0    0 -0.40117504931E+01 -0.28274377605E+02  0.14183965827E+02  0.59301961401E+02  0.50000031684E+02 0.  0.
         12    1    1    2    0    0  0.40117504931E+01  0.28274377605E+02 -0.14183965827E+02  0.31886038599E+02  0.00000000000E+00 0. -1.
         11    1    3    3    0    0 -0.11053216370E+02 -0.25806781215E+01 -0.11847024569E+02  0.16406873044E+02  0.51100000000E-03 0. -1.
        -11    1    3    3    0    0  0.12402948259E+02 -0.21522795962E+02  0.26194842314E+02  0.36100327362E+02  0.51100000000E-03 0.  1.
        -12    1    3    3    0    0 -0.53614823816E+01 -0.41709035218E+01 -0.16385191891E+00  0.67947609942E+01  0.00000000000E+00 0.  1.
</event>
<event>
 7    1  0.7578565E-012  0.5930195E+02  0.7816164E-02  0.1266605E+00
        -11   -1    0    0    0    0  0.00000000000E+00  0.00000000000E+00  0.45593999997E+02  0.45594000000E+02  0.51100000000E-03 0.  1.
         11   -1    0    0    0    0 -0.00000000000E+00 -0.00000000000E+00 -0.45593999997E+02  0.45594000000E+02  0.51100000000E-03 0. -1.
    9900012    2    1    2    0    0  0.18668967019E+02  0.25792379952E+02  0.17154304981E+01  0.59301954543E+02  0.50000019176E+02 0.  0.
         12    1    1    2    0    0 -0.18668967019E+02 -0.25792379952E+02 -0.17154304981E+01  0.31886045457E+02  0.00000000000E+00 0. -1.
         11    1    3    3    0    0  0.51911675867E+01 -0.11378494443E+02 -0.60254049565E+01  0.13882502002E+02  0.51100000000E-03 0. -1.
        -11    1    3    3    0    0 -0.45305964849E+01  0.17199900876E+02  0.43886458158E+01  0.18320019296E+02  0.51100000000E-03 0.  1.
         12    1    3    3    0    0  0.18008395917E+02  0.19970973519E+02  0.33521896388E+01  0.27099433244E+02  0.00000000000E+00 0. -1.
</event>
<event>
 7    1  0.7578565E-012  0.5930195E+02  0.7816164E-02  0.1266605E+00
        -11   -1    0    0    0    0  0.00000000000E+00  0.00000000000E+00  0.45593999997E+02  0.45594000000E+02  0.51100000000E-03 0.  1.
         11   -1    0    0    0    0 -0.00000000000E+00 -0.00000000000E+00 -0.45593999997E+02  0.45594000000E+02  0.51100000000E-03 0. -1.
    9900012    2    1    2    0    0  0.64196445202E+01  0.12173858457E+02  0.28762915695E+02  0.59301953134E+02  0.50000016608E+02 0.  0.
         12    1    1    2    0    0 -0.64196445202E+01 -0.12173858457E+02 -0.28762915695E+02  0.31886046866E+02  0.00000000000E+00 0. -1.
         11    1    3    3    0    0 -0.47970343446E+01  0.14390716237E+02 -0.99913582612E+01  0.18164016419E+02  0.51100000000E-03 0. -1.
        -11    1    3    3    0    0  0.53868355602E+01 -0.33729764386E+01  0.10568893591E+02  0.12332740142E+02  0.51100000000E-03 0.  1.
         12    1    3    3    0    0  0.58298433046E+01  0.11561186589E+01  0.28185380365E+02  0.28805196573E+02  0.00000000000E+00 0. -1.
</event>
<event>
 7    1  0.7578565E-012  0.5930195E+02  0.7816164E-02  0.1266605E+00
        -11   -1    0    0    0    0  0.00000000000E+00  0.00000000000E+00  0.45593999997E+02  0.45594000000E+02  0.51100000000E-03 0.  1.
         11   -1    0    0    0    0 -0.00000000000E+00 -0.00000000000E+00 -0.45593999997E+02  0.45594000000E+02  0.51100000000E-03 0. -1.
    9900012    2    1    2    0    0  0.24388034523E+02  0.17254296493E+02  0.11146004459E+02  0.59301946767E+02  0.50000004997E+02 0.  0.
         12    1    1    2    0    0 -0.24388034523E+02 -0.17254296493E+02 -0.11146004459E+02  0.31886053233E+02  0.00000000000E+00 0. -1.
         11    1    3    3    0    0  0.12589956874E+02  0.44633901023E+01 -0.79352751218E+01  0.15536970645E+02  0.51100000000E-03 0. -1.
        -11    1    3    3    0    0  0.18072478832E+02  0.18428504676E+02  0.22900169326E+02  0.34505681143E+02  0.51100000000E-03 0.  1.
        -12    1    3    3    0    0 -0.62744011822E+01 -0.56375982859E+01 -0.38188897460E+01  0.92592949797E+01  0.00000000000E+00 0.  1.
</event>
<event>
 7    1  0.7578565E-012  0.5930195E+02  0.7816164E-02  0.1266605E+00
        -11   -1    0    0    0    0  0.00000000000E+00  0.00000000000E+00  0.45593999997E+02  0.45594000000E+02  0.51100000000E-03 0.  1.
         11   -1    0    0    0    0 -0.00000000000E+00 -0.00000000000E+00 -0.45593999997E+02  0.45594000000E+02  0.51100000000E-03 0. -1.
    9900012    2    1    2    0    0 -0.75928971864E+01 -0.29044776372E+02  0.10745664194E+02  0.59301946290E+02  0.50000004127E+02 0.  0.
         12    1    1    2    0    0  0.75928971864E+01  0.29044776372E+02 -0.10745664194E+02  0.31886053710E+02  0.00000000000E+00 0. -1.
         11    1    3    3    0    0 -0.98704393827E+01 -0.35884062233E+01 -0.57542473679E+01  0.11975541569E+02  0.51100000000E-03 0. -1.
        -11    1    3    3    0    0  0.11160170059E+02 -0.71581857035E+01 -0.79987417834E+01  0.15484472503E+02  0.51100000000E-03 0.  1.
        -12    1    3    3    0    0 -0.88826278624E+01 -0.18298184446E+02  0.24498653345E+02  0.31841932219E+02  0.00000000000E+00 0.  1.
</event>
<event>
 7    1  0.7578565E-012  0.5930195E+02  0.7816164E-02  0.1266605E+00
        -11   -1    0    0    0    0  0.00000000000E+00  0.00000000000E+00  0.45593999997E+02  0.45594000000E+02  0.51100000000E-03 0.  1.
         11   -1    0    0    0    0 -0.00000000000E+00 -0.00000000000E+00 -0.45593999997E+02  0.45594000000E+02  0.51100000000E-03 0. -1.
    9900012    2    1    2    0    0  0.10611105034E+02  0.68436327969E+01  0.29279507326E+02  0.59301946479E+02  0.50000004471E+02 0.  0.
         12    1    1    2    0    0 -0.10611105034E+02 -0.68436327969E+01 -0.29279507326E+02  0.31886053521E+02  0.00000000000E+00 0. -1.
         11    1    3    3    0    0 -0.16017405458E+02  0.58207646647E+01 -0.18680060540E+01  0.17144329260E+02  0.51100000000E-03 0. -1.
        -11    1    3    3    0    0  0.18439086898E+02  0.49547574378E+01  0.23530954574E+02  0.30302728760E+02  0.51100000000E-03 0.  1.
         12    1    3    3    0    0  0.81894235948E+01 -0.39318893056E+01  0.76165588055E+01  0.11854888459E+02  0.00000000000E+00 0. -1.
</event>
<event>
 7    1  0.7578565E-012  0.5930194E+02  0.7816164E-02  0.1266605E+00
        -11   -1    0    0    0    0  0.00000000000E+00  0.00000000000E+00  0.45593999997E+02  0.45594000000E+02  0.51100000000E-03 0.  1.
         11   -1    0    0    0    0 -0.00000000000E+00 -0.00000000000E+00 -0.45593999997E+02  0.45594000000E+02  0.51100000000E-03 0. -1.
    9900012    2    1    2    0    0  0.31260395645E+02 -0.49353172003E+01  0.38924061375E+01  0.59301944784E+02  0.50000001379E+02 0.  0.
         12    1    1    2    0    0 -0.31260395645E+02  0.49353172003E+01 -0.38924061375E+01  0.31886055216E+02  0.00000000000E+00 0. -1.
         11    1    3    3    0    0  0.27184970849E+02  0.10797018653E+02  0.74526602612E+01  0.30185102238E+02  0.51100000000E-03 0.  1.
        -11    1    3    3    0    0  0.75669038058E+01 -0.73063365531E+01 -0.12505953113E+02  0.16341341761E+02  0.51100000000E-03 0. -1.
         12    1    3    3    0    0 -0.34914790106E+01 -0.84259993000E+01  0.89456989896E+01  0.12775500785E+02  0.00000000000E+00 0. -1.
</event>
<event>
 7    1  0.7578565E-012  0.5930193E+02  0.7816164E-02  0.1266605E+00
        -11   -1    0    0    0    0  0.00000000000E+00  0.00000000000E+00  0.45593999997E+02  0.45594000000E+02  0.51100000000E-03 0.  1.
         11   -1    0    0    0    0 -0.00000000000E+00 -0.00000000000E+00 -0.45593999997E+02  0.45594000000E+02  0.51100000000E-03 0. -1.
    9900012    2    1    2    0    0 -0.95677988822E+01 -0.21710685804E+02  0.21303164669E+02  0.59301929711E+02  0.49999973890E+02 0.  0.
         12    1    1    2    0    0  0.95677988822E+01  0.21710685804E+02 -0.21303164669E+02  0.31886070289E+02  0.00000000000E+00 0. -1.
         11    1    3    3    0    0 -0.14913920038E+02 -0.40177144718E+01 -0.45926472558E+01  0.16113952016E+02  0.51100000000E-03 0. -1.
        -11    1    3    3    0    0  0.59096844755E+01  0.19946431225E+01  0.22313915857E+02  0.23169242821E+02  0.51100000000E-03 0.  1.
        -12    1    3    3    0    0 -0.56356331945E+00 -0.19687614455E+02  0.35818960683E+01  0.20018734875E+02  0.00000000000E+00 0.  1.
</event>
<event>
 7    1  0.7578565E-012  0.5930197E+02  0.7816164E-02  0.1266605E+00
        -11   -1    0    0    0    0  0.00000000000E+00  0.00000000000E+00  0.45593999997E+02  0.45594000000E+02  0.51100000000E-03 0. -1.
         11   -1    0    0    0    0 -0.00000000000E+00 -0.00000000000E+00 -0.45593999997E+02  0.45594000000E+02  0.51100000000E-03 0.  1.
    9900012    2    1    2    0    0  0.18874289940E+01 -0.26391375798E+02 -0.17794721663E+02  0.59301965066E+02  0.50000038369E+02 0.  0.
         12    1    1    2    0    0 -0.18874289940E+01  0.26391375798E+02  0.17794721663E+02  0.31886034934E+02  0.00000000000E+00 0. -1.
         11    1    3    3    0    0  0.83301628186E+01 -0.35409124003E+02 -0.18232678184E+02  0.40689411759E+02  0.51100000000E-03 0.  1.
        -11    1    3    3    0    0  0.30798675540E+01  0.78820798788E+01  0.24576891416E+01  0.88120941634E+01  0.51100000000E-03 0. -1.
         12    1    3    3    0    0 -0.95226013787E+01  0.11356683262E+01 -0.20197326204E+01  0.98004591434E+01  0.00000000000E+00 0. -1.
</event>
<event>
 7    1  0.7578565E-012  0.5930189E+02  0.7816164E-02  0.1266605E+00
        -11   -1    0    0    0    0  0.00000000000E+00  0.00000000000E+00  0.45593999997E+02  0.45594000000E+02  0.51100000000E-03 0.  1.
         11   -1    0    0    0    0 -0.00000000000E+00 -0.00000000000E+00 -0.45593999997E+02  0.45594000000E+02  0.51100000000E-03 0. -1.
    9900012    2    1    2    0    0  0.25754567078E+02 -0.14663198638E+02  0.11765059538E+02  0.59301894161E+02  0.49999909055E+02 0.  0.
         12    1    1    2    0    0 -0.25754567078E+02  0.14663198638E+02 -0.11765059538E+02  0.31886105839E+02  0.00000000000E+00 0. -1.
         11    1    3    3    0    0 -0.11882581196E+01 -0.12332633736E+01 -0.12556038628E+02  0.12672292697E+02  0.51100000000E-03 0. -1.
        -11    1    3    3    0    0  0.25077474189E+02  0.54569817466E+00  0.19348975200E+02  0.31679020499E+02  0.51100000000E-03 0.  1.
         12    1    3    3    0    0  0.18653510078E+01 -0.13975633439E+02  0.49721229660E+01  0.14950580965E+02  0.00000000000E+00 0. -1.
</event>
<event>
 7    1  0.7578565E-012  0.5930197E+02  0.7816164E-02  0.1266605E+00
        -11   -1    0    0    0    0  0.00000000000E+00  0.00000000000E+00  0.45593999997E+02  0.45594000000E+02  0.51100000000E-03 0.  1.
         11   -1    0    0    0    0 -0.00000000000E+00 -0.00000000000E+00 -0.45593999997E+02  0.45594000000E+02  0.51100000000E-03 0. -1.
    9900012    2    1    2    0    0  0.31147667332E+02  0.60193506952E+01 -0.32107782942E+01  0.59301970767E+02  0.50000048765E+02 0.  0.
         12    1    1    2    0    0 -0.31147667332E+02 -0.60193506952E+01  0.32107782942E+01  0.31886029233E+02  0.00000000000E+00 0. -1.
         11    1    3    3    0    0  0.26307396534E+02 -0.10329981953E+02 -0.37749841953E+01  0.28513823761E+02  0.51100000000E-03 0. -1.
        -11    1    3    3    0    0 -0.77266651720E+01  0.44251468679E+01  0.79678280951E+01  0.11948621858E+02  0.51100000000E-03 0.  1.
        -12    1    3    3    0    0  0.12566935970E+02  0.11924185781E+02 -0.74036221940E+01  0.18839525148E+02  0.00000000000E+00 0.  1.
</event>
<event>
 7    1  0.7578565E-012  0.5930194E+02  0.7816164E-02  0.1266605E+00
        -11   -1    0    0    0    0  0.00000000000E+00  0.00000000000E+00  0.45593999997E+02  0.45594000000E+02  0.51100000000E-03 0. -1.
         11   -1    0    0    0    0 -0.00000000000E+00 -0.00000000000E+00 -0.45593999997E+02  0.45594000000E+02  0.51100000000E-03 0.  1.
    9900012    2    1    2    0    0  0.61081327352E+01  0.17129405618E+02 -0.26191503006E+02  0.59301942670E+02  0.49999997524E+02 0.  0.
         12    1    1    2    0    0 -0.61081327352E+01 -0.17129405618E+02  0.26191503006E+02  0.31886057330E+02  0.00000000000E+00 0. -1.
         11    1    3    3    0    0 -0.17032558387E+02  0.11658400659E+01 -0.19783651863E+02  0.26131592175E+02  0.51100000000E-03 0.  1.
        -11    1    3    3    0    0  0.10704941764E+02  0.16568268953E+02 -0.63406418592E+01  0.20719726198E+02  0.51100000000E-03 0. -1.
         12    1    3    3    0    0  0.12435749358E+02 -0.60470340131E+00 -0.67209283973E-01  0.12450624297E+02  0.00000000000E+00 0. -1.
</event>
<event>
 7    1  0.7578565E-012  0.5930190E+02  0.7816164E-02  0.1266605E+00
        -11   -1    0    0    0    0  0.00000000000E+00  0.00000000000E+00  0.45593999997E+02  0.45594000000E+02  0.51100000000E-03 0.  1.
         11   -1    0    0    0    0 -0.00000000000E+00 -0.00000000000E+00 -0.45593999997E+02  0.45594000000E+02  0.51100000000E-03 0. -1.
    9900012    2    1    2    0    0  0.22414025275E+02  0.13521686180E+02  0.18207117872E+02  0.59301895387E+02  0.49999911291E+02 0.  0.
         12    1    1    2    0    0 -0.22414025275E+02 -0.13521686180E+02 -0.18207117872E+02  0.31886104613E+02  0.00000000000E+00 0. -1.
         11    1    3    3    0    0  0.50403568240E+01 -0.73943385594E+01 -0.86273749978E+00  0.89903145606E+01  0.51100000000E-03 0. -1.
        -11    1    3    3    0    0 -0.95975351731E-01  0.21011823903E+02 -0.39837901427E+01  0.21386363393E+02  0.51100000000E-03 0.  1.
        -12    1    3    3    0    0  0.17469643803E+02 -0.95799164293E-01  0.23053645514E+02  0.28925217434E+02  0.00000000000E+00 0.  1.
</event>
<event>
 7    1  0.7578565E-012  0.5930192E+02  0.7816164E-02  0.1266605E+00
        -11   -1    0    0    0    0  0.00000000000E+00  0.00000000000E+00  0.45593999997E+02  0.45594000000E+02  0.51100000000E-03 0.  1.
         11   -1    0    0    0    0 -0.00000000000E+00 -0.00000000000E+00 -0.45593999997E+02  0.45594000000E+02  0.51100000000E-03 0. -1.
    9900012    2    1    2    0    0  0.26185221503E+02  0.45173529831E+01  0.17625257049E+02  0.59301921703E+02  0.49999959285E+02 0.  0.
         12    1    1    2    0    0 -0.26185221503E+02 -0.45173529831E+01 -0.17625257049E+02  0.31886078297E+02  0.00000000000E+00 0. -1.
         11    1    3    3    0    0  0.13727694165E+02  0.73305961032E+01 -0.14120769169E+02  0.21013884660E+02  0.51100000000E-03 0. -1.
        -11    1    3    3    0    0  0.20579143621E+00 -0.58991776961E+01  0.20636017351E+02  0.21463640417E+02  0.51100000000E-03 0.  1.
        -12    1    3    3    0    0  0.12251735902E+02  0.30859345761E+01  0.11110008867E+02  0.16824396626E+02  0.00000000000E+00 0.  1.
</event>
<event>
 7    1  0.7578565E-012  0.5930194E+02  0.7816164E-02  0.1266605E+00
        -11   -1    0    0    0    0  0.00000000000E+00  0.00000000000E+00  0.45593999997E+02  0.45594000000E+02  0.51100000000E-03 0. -1.
         11   -1    0    0    0    0 -0.00000000000E+00 -0.00000000000E+00 -0.45593999997E+02  0.45594000000E+02  0.51100000000E-03 0.  1.
    9900012    2    1    2    0    0  0.29023690643E+02  0.15951280787E+01 -0.13107308443E+02  0.59301943694E+02  0.49999999392E+02 0.  0.
         12    1    1    2    0    0 -0.29023690643E+02 -0.15951280787E+01  0.13107308443E+02  0.31886056306E+02  0.00000000000E+00 0. -1.
         11    1    3    3    0    0  0.17191001313E+02  0.21597078607E+02  0.37051308075E+01  0.27851253564E+02  0.51100000000E-03 0. -1.
        -11    1    3    3    0    0  0.35988637187E+01 -0.98025249978E+01 -0.14913223733E+02  0.18205646343E+02  0.51100000000E-03 0.  1.
         12    1    3    3    0    0  0.82338256110E+01 -0.10199425531E+02 -0.18992155177E+01  0.13245043788E+02  0.00000000000E+00 0. -1.
</event>
<event>
 7    1  0.7578565E-012  0.5930223E+02  0.7816164E-02  0.1266604E+00
        -11   -1    0    0    0    0  0.00000000000E+00  0.00000000000E+00  0.45593999997E+02  0.45594000000E+02  0.51100000000E-03 0. -1.
         11   -1    0    0    0    0 -0.00000000000E+00 -0.00000000000E+00 -0.45593999997E+02  0.45594000000E+02  0.51100000000E-03 0.  1.
    9900012    2    1    2    0    0  0.14144647156E+02 -0.27733066499E+02 -0.68926083522E+01  0.59302234046E+02  0.50000528921E+02 0.  0.
         12    1    1    2    0    0 -0.14144647156E+02  0.27733066499E+02  0.68926083522E+01  0.31885765954E+02  0.00000000000E+00 0. -1.
         11    1    3    3    0    0 -0.13984731361E+02 -0.30226667675E+01  0.33949008600E+01  0.14704916788E+02  0.51100000000E-03 0. -1.
        -11    1    3    3    0    0  0.22652703711E+02 -0.19093321255E+02  0.23539959919E+01  0.29719374142E+02  0.51100000000E-03 0.  1.
        -12    1    3    3    0    0  0.54766748061E+01 -0.56170784760E+01 -0.12641505204E+02  0.14877943116E+02  0.00000000000E+00 0.  1.
</event>
<event>
 7    1  0.7578565E-012  0.5930195E+02  0.7816164E-02  0.1266605E+00
        -11   -1    0    0    0    0  0.00000000000E+00  0.00000000000E+00  0.45593999997E+02  0.45594000000E+02  0.51100000000E-03 0.  1.
         11   -1    0    0    0    0 -0.00000000000E+00 -0.00000000000E+00 -0.45593999997E+02  0.45594000000E+02  0.51100000000E-03 0. -1.
    9900012    2    1    2    0    0 -0.47662107714E+01  0.46554303585E+01  0.31182215389E+02  0.59301947351E+02  0.50000006061E+02 0.  0.
         12    1    1    2    0    0  0.47662107714E+01 -0.46554303585E+01 -0.31182215389E+02  0.31886052649E+02  0.00000000000E+00 0. -1.
         11    1    3    3    0    0 -0.51387224571E+01 -0.42066029376E+01  0.30083414395E+01  0.72905483500E+01  0.51100000000E-03 0. -1.
        -11    1    3    3    0    0 -0.30792700888E+01  0.25675011504E+02  0.12310904858E+02  0.28639945857E+02  0.51100000000E-03 0.  1.
        -12    1    3    3    0    0  0.34517817745E+01 -0.16812978208E+02  0.15862969092E+02  0.23371453144E+02  0.00000000000E+00 0.  1.
</event>
<event>
 7    1  0.7578565E-012  0.5930189E+02  0.7816164E-02  0.1266605E+00
        -11   -1    0    0    0    0  0.00000000000E+00  0.00000000000E+00  0.45593999997E+02  0.45594000000E+02  0.51100000000E-03 0.  1.
         11   -1    0    0    0    0 -0.00000000000E+00 -0.00000000000E+00 -0.45593999997E+02  0.45594000000E+02  0.51100000000E-03 0. -1.
    9900012    2    1    2    0    0 -0.12202614480E+02  0.23407634957E+02  0.17885830861E+02  0.59301888290E+02  0.49999898347E+02 0.  0.
         12    1    1    2    0    0  0.12202614480E+02 -0.23407634957E+02 -0.17885830861E+02  0.31886111710E+02  0.00000000000E+00 0. -1.
         11    1    3    3    0    0  0.51719853503E+01  0.79408166802E+01  0.11325033818E+01  0.95440330145E+01  0.51100000000E-03 0. -1.
        -11    1    3    3    0    0 -0.43576423247E+01 -0.40501809596E+01  0.24375532560E+02  0.25091026290E+02  0.51100000000E-03 0.  1.
        -12    1    3    3    0    0 -0.13016957506E+02  0.19516999236E+02 -0.76222050812E+01  0.24666828985E+02  0.00000000000E+00 0.  1.
</event>
<event>
 7    1  0.7578565E-012  0.5930198E+02  0.7816164E-02  0.1266605E+00
        -11   -1    0    0    0    0  0.00000000000E+00  0.00000000000E+00  0.45593999997E+02  0.45594000000E+02  0.51100000000E-03 0. -1.
         11   -1    0    0    0    0 -0.00000000000E+00 -0.00000000000E+00 -0.45593999997E+02  0.45594000000E+02  0.51100000000E-03 0.  1.
    9900012    2    1    2    0    0 -0.42514717491E+00  0.29665610831E+01 -0.31744878148E+02  0.59301976049E+02  0.50000058398E+02 0.  0.
         12    1    1    2    0    0  0.42514717491E+00 -0.29665610831E+01  0.31744878148E+02  0.31886023951E+02  0.00000000000E+00 0. -1.
         11    1    3    3    0    0 -0.20000668892E+02 -0.83240316199E+01 -0.27125493980E+02  0.34714675319E+02  0.51100000000E-03 0. -1.
        -11    1    3    3    0    0  0.61447209413E+01 -0.52162948438E+00 -0.21531640848E+01  0.65319069653E+01  0.51100000000E-03 0.  1.
         12    1    3    3    0    0  0.13430800776E+02  0.11812222187E+02 -0.24662200831E+01  0.18055393764E+02  0.00000000000E+00 0. -1.
</event>
<event>
 7    1  0.7578565E-012  0.5930206E+02  0.7816164E-02  0.1266604E+00
        -11   -1    0    0    0    0  0.00000000000E+00  0.00000000000E+00  0.45593999997E+02  0.45594000000E+02  0.51100000000E-03 0.  1.
         11   -1    0    0    0    0 -0.00000000000E+00 -0.00000000000E+00 -0.45593999997E+02  0.45594000000E+02  0.51100000000E-03 0. -1.
    9900012    2    1    2    0    0  0.17463516324E+02  0.13213843335E+00  0.26678104410E+02  0.59302060813E+02  0.50000212988E+02 0.  0.
         12    1    1    2    0    0 -0.17463516324E+02 -0.13213843335E+00 -0.26678104410E+02  0.31885939187E+02  0.00000000000E+00 0. -1.
         11    1    3    3    0    0  0.44075598818E+01 -0.18655027167E+02  0.13772139270E+02  0.23603144771E+02  0.51100000000E-03 0. -1.
        -11    1    3    3    0    0  0.43165800065E+01  0.19495601173E+02  0.16809536254E+02  0.26101184597E+02  0.51100000000E-03 0.  1.
        -12    1    3    3    0    0  0.87393764352E+01 -0.70843557219E+00 -0.39035711151E+01  0.95977314448E+01  0.00000000000E+00 0.  1.
</event>
<event>
 7    1  0.7578565E-012  0.5930198E+02  0.7816164E-02  0.1266605E+00
        -11   -1    0    0    0    0  0.00000000000E+00  0.00000000000E+00  0.45593999997E+02  0.45594000000E+02  0.51100000000E-03 0. -1.
         11   -1    0    0    0    0 -0.00000000000E+00 -0.00000000000E+00 -0.45593999997E+02  0.45594000000E+02  0.51100000000E-03 0.  1.
    9900012    2    1    2    0    0 -0.22658893581E+02  0.20656225784E+02 -0.87529095051E+01  0.59301975683E+02  0.50000057731E+02 0.  0.
         12    1    1    2    0    0  0.22658893581E+02 -0.20656225784E+02  0.87529095051E+01  0.31886024317E+02  0.00000000000E+00 0. -1.
         11    1    3    3    0    0  0.13528542793E+01 -0.94571971989E+01  0.11095008229E+02  0.14641311466E+02  0.51100000000E-03 0. -1.
        -11    1    3    3    0    0 -0.18331215609E+02  0.14864650674E+02 -0.13536125081E+02  0.27206947419E+02  0.51100000000E-03 0.  1.
         12    1    3    3    0    0 -0.56805322514E+01  0.15248772309E+02 -0.63117926533E+01  0.17453716799E+02  0.00000000000E+00 0. -1.
</event>
<event>
 7    1  0.7578565E-012  0.5930204E+02  0.7816164E-02  0.1266604E+00
        -11   -1    0    0    0    0  0.00000000000E+00  0.00000000000E+00  0.45593999997E+02  0.45594000000E+02  0.51100000000E-03 0. -1.
         11   -1    0    0    0    0 -0.00000000000E+00 -0.00000000000E+00 -0.45593999997E+02  0.45594000000E+02  0.51100000000E-03 0.  1.
    9900012    2    1    2    0    0  0.29022049268E+02  0.36979603473E+01 -0.12679114291E+02  0.59302043944E+02  0.50000182222E+02 0.  0.
         12    1    1    2    0    0 -0.29022049268E+02 -0.36979603473E+01  0.12679114291E+02  0.31885956056E+02  0.00000000000E+00 0. -1.
         11    1    3    3    0    0 -0.10582012806E+02 -0.27788908156E+01 -0.95138995725E+00  0.10982093257E+02  0.51100000000E-03 0. -1.
        -11    1    3    3    0    0  0.26290945476E+02  0.85710312886E+01 -0.18466856475E+02  0.33252085344E+02  0.51100000000E-03 0.  1.
        -12    1    3    3    0    0  0.13313116598E+02 -0.20941801257E+01  0.67391321418E+01  0.15067865343E+02  0.00000000000E+00 0.  1.
</event>
<event>
 7    1  0.7578565E-012  0.5930195E+02  0.7816164E-02  0.1266605E+00
        -11   -1    0    0    0    0  0.00000000000E+00  0.00000000000E+00  0.45593999997E+02  0.45594000000E+02  0.51100000000E-03 0. -1.
         11   -1    0    0    0    0 -0.00000000000E+00 -0.00000000000E+00 -0.45593999997E+02  0.45594000000E+02  0.51100000000E-03 0.  1.
    9900012    2    1    2    0    0 -0.59033799071E+01  0.17022161129E+02 -0.26308107990E+02  0.59301946468E+02  0.50000004450E+02 0.  0.
         12    1    1    2    0    0  0.59033799071E+01 -0.17022161129E+02  0.26308107990E+02  0.31886053532E+02  0.00000000000E+00 0. -1.
         11    1    3    3    0    0 -0.62461065866E+01  0.91386879011E+01  0.10921730611E+02  0.15550358962E+02  0.51100000000E-03 0. -1.
        -11    1    3    3    0    0  0.53974469092E+00  0.16190599653E+01 -0.37441623584E+02  0.37480499682E+02  0.51100000000E-03 0.  1.
        -12    1    3    3    0    0 -0.19701801147E+00  0.62644132625E+01  0.21178498277E+00  0.62710878242E+01  0.00000000000E+00 0.  1.
</event>
<event>
 7    1  0.7578565E-012  0.5930196E+02  0.7816164E-02  0.1266605E+00
        -11   -1    0    0    0    0  0.00000000000E+00  0.00000000000E+00  0.45593999997E+02  0.45594000000E+02  0.51100000000E-03 0. -1.
         11   -1    0    0    0    0 -0.00000000000E+00 -0.00000000000E+00 -0.45593999997E+02  0.45594000000E+02  0.51100000000E-03 0.  1.
    9900012    2    1    2    0    0  0.19231000342E+02  0.24201280971E+02 -0.78221424908E+01  0.59301964060E+02  0.50000036535E+02 0.  0.
         12    1    1    2    0    0 -0.19231000342E+02 -0.24201280971E+02  0.78221424908E+01  0.31886035940E+02  0.00000000000E+00 0. -1.
         11    1    3    3    0    0  0.61033253955E+01  0.13293546252E+02  0.19105383399E+02  0.24062099408E+02  0.51100000000E-03 0. -1.
        -11    1    3    3    0    0  0.96539710201E+01  0.12901138847E+02 -0.12867813128E+02  0.20620842732E+02  0.51100000000E-03 0.  1.
         12    1    3    3    0    0  0.34737039259E+01 -0.19934041283E+01 -0.14059712761E+02  0.14619021921E+02  0.00000000000E+00 0. -1.
</event>
<event>
 7    1  0.7578565E-012  0.5930194E+02  0.7816164E-02  0.1266605E+00
        -11   -1    0    0    0    0  0.00000000000E+00  0.00000000000E+00  0.45593999997E+02  0.45594000000E+02  0.51100000000E-03 0.  1.
         11   -1    0    0    0    0 -0.00000000000E+00 -0.00000000000E+00 -0.45593999997E+02  0.45594000000E+02  0.51100000000E-03 0. -1.
    9900012    2    1    2    0    0 -0.26994774013E+01  0.18543873897E+02  0.25798419215E+02  0.59301939231E+02  0.49999991253E+02 0.  0.
         12    1    1    2    0    0  0.26994774013E+01 -0.18543873897E+02 -0.25798419215E+02  0.31886060769E+02  0.00000000000E+00 0. -1.
         11    1    3    3    0    0  0.15637925579E+02  0.14510297535E+02  0.11678959231E+02  0.24320599087E+02  0.51100000000E-03 0.  1.
        -11    1    3    3    0    0 -0.13497049459E+02 -0.16098924957E+01 -0.49874655483E+01  0.14478843558E+02  0.51100000000E-03 0. -1.
        -12    1    3    3    0    0 -0.48403535214E+01  0.56434688579E+01  0.19106925532E+02  0.20502496586E+02  0.00000000000E+00 0.  1.
</event>
<event>
 7    1  0.7578565E-012  0.5930192E+02  0.7816164E-02  0.1266605E+00
        -11   -1    0    0    0    0  0.00000000000E+00  0.00000000000E+00  0.45593999997E+02  0.45594000000E+02  0.51100000000E-03 0. -1.
         11   -1    0    0    0    0 -0.00000000000E+00 -0.00000000000E+00 -0.45593999997E+02  0.45594000000E+02  0.51100000000E-03 0.  1.
    9900012    2    1    2    0    0 -0.24792487976E+02  0.19889499460E+02 -0.25421487198E+01  0.59301918884E+02  0.49999954143E+02 0.  0.
         12    1    1    2    0    0  0.24792487976E+02 -0.19889499460E+02  0.25421487198E+01  0.31886081116E+02  0.00000000000E+00 0. -1.
         11    1    3    3    0    0 -0.70331734633E+01 -0.16026804111E+02  0.34676247429E+01  0.17842320493E+02  0.51100000000E-03 0. -1.
        -11    1    3    3    0    0 -0.14330106266E+02  0.28977671317E+02 -0.83229213501E+01  0.33381557792E+02  0.51100000000E-03 0.  1.
         12    1    3    3    0    0 -0.34292082469E+01  0.69386322543E+01  0.23131478874E+01  0.80780405984E+01  0.00000000000E+00 0. -1.
</event>
<event>
 7    1  0.7578565E-012  0.5930193E+02  0.7816164E-02  0.1266605E+00
        -11   -1    0    0    0    0  0.00000000000E+00  0.00000000000E+00  0.45593999997E+02  0.45594000000E+02  0.51100000000E-03 0. -1.
         11   -1    0    0    0    0 -0.00000000000E+00 -0.00000000000E+00 -0.45593999997E+02  0.45594000000E+02  0.51100000000E-03 0.  1.
    9900012    2    1    2    0    0 -0.16208040073E+02 -0.22681187511E+02  0.15478515520E+02  0.59301932939E+02  0.49999979776E+02 0.  0.
         12    1    1    2    0    0  0.16208040073E+02  0.22681187511E+02 -0.15478515520E+02  0.31886067061E+02  0.00000000000E+00 0. -1.
         11    1    3    3    0    0 -0.49070082341E+01 -0.18133153281E+02  0.23997207067E+02  0.30475497125E+02  0.51100000000E-03 0.  1.
        -11    1    3    3    0    0  0.22316885765E+01  0.83778044844E+01 -0.41368648741E+01  0.96063360929E+01  0.51100000000E-03 0. -1.
         12    1    3    3    0    0 -0.13532720415E+02 -0.12925838714E+02 -0.43818266723E+01  0.19220099721E+02  0.00000000000E+00 0. -1.
</event>
<event>
 7    1  0.7578565E-012  0.5930203E+02  0.7816164E-02  0.1266604E+00
        -11   -1    0    0    0    0  0.00000000000E+00  0.00000000000E+00  0.45593999997E+02  0.45594000000E+02  0.51100000000E-03 0.  1.
         11   -1    0    0    0    0 -0.00000000000E+00 -0.00000000000E+00 -0.45593999997E+02  0.45594000000E+02  0.51100000000E-03 0. -1.
    9900012    2    1    2    0    0  0.42269833261E+01 -0.23722384398E+02  0.20882917867E+02  0.59302028662E+02  0.50000154352E+02 0.  0.
         12    1    1    2    0    0 -0.42269833261E+01  0.23722384398E+02 -0.20882917867E+02  0.31885971338E+02  0.00000000000E+00 0. -1.
         11    1    3    3    0    0 -0.13654651815E+02 -0.12369887567E+02 -0.41298245567E+01  0.18881712998E+02  0.51100000000E-03 0. -1.
        -11    1    3    3    0    0  0.18549316588E+02 -0.16095953391E+02  0.13669628017E+02  0.28107216010E+02  0.51100000000E-03 0.  1.
         12    1    3    3    0    0 -0.66768144694E+00  0.47434565598E+01  0.11343114406E+02  0.12313099654E+02  0.00000000000E+00 0. -1.
</event>
<event>
 7    1  0.7578565E-012  0.5930194E+02  0.7816164E-02  0.1266605E+00
        -11   -1    0    0    0    0  0.00000000000E+00  0.00000000000E+00  0.45593999997E+02  0.45594000000E+02  0.51100000000E-03 0.  1.
         11   -1    0    0    0    0 -0.00000000000E+00 -0.00000000000E+00 -0.45593999997E+02  0.45594000000E+02  0.51100000000E-03 0. -1.
    9900012    2    1    2    0    0 -0.25048762886E+02  0.13163153206E+01  0.19686227831E+02  0.59301940752E+02  0.49999994026E+02 0.  0.
         12    1    1    2    0    0  0.25048762886E+02 -0.13163153206E+01 -0.19686227831E+02  0.31886059248E+02  0.00000000000E+00 0. -1.
         11    1    3    3    0    0 -0.29211861537E+02 -0.23180365928E+00 -0.79320811610E+01  0.30270521952E+02  0.51100000000E-03 0. -1.
        -11    1    3    3    0    0 -0.80449505578E+00  0.34793804143E+01  0.96641246147E+01  0.10302844519E+02  0.51100000000E-03 0.  1.
         12    1    3    3    0    0  0.49675937072E+01 -0.19312614344E+01  0.17954184377E+02  0.18728574281E+02  0.00000000000E+00 0. -1.
</event>
<event>
 7    1  0.7578565E-012  0.5930194E+02  0.7816164E-02  0.1266605E+00
        -11   -1    0    0    0    0  0.00000000000E+00  0.00000000000E+00  0.45593999997E+02  0.45594000000E+02  0.51100000000E-03 0.  1.
         11   -1    0    0    0    0 -0.00000000000E+00 -0.00000000000E+00 -0.45593999997E+02  0.45594000000E+02  0.51100000000E-03 0. -1.
    9900012    2    1    2    0    0 -0.24565667345E+02 -0.92587392264E+01  0.18097635405E+02  0.59301942366E+02  0.49999996970E+02 0.  0.
         12    1    1    2    0    0  0.24565667345E+02  0.92587392264E+01 -0.18097635405E+02  0.31886057634E+02  0.00000000000E+00 0. -1.
         11    1    3    3    0    0  0.15980730585E+01  0.11318275476E+02 -0.42888192677E+01  0.12208651368E+02  0.51100000000E-03 0. -1.
        -11    1    3    3    0    0 -0.28677412971E+02 -0.10557874561E+02  0.19903765585E+02  0.36469475108E+02  0.51100000000E-03 0.  1.
         12    1    3    3    0    0  0.25136725670E+01 -0.10019140142E+02  0.24826890873E+01  0.10623815890E+02  0.00000000000E+00 0. -1.
</event>
<event>
 7    1  0.7578565E-012  0.5930201E+02  0.7816164E-02  0.1266605E+00
        -11   -1    0    0    0    0  0.00000000000E+00  0.00000000000E+00  0.45593999997E+02  0.45594000000E+02  0.51100000000E-03 0. -1.
         11   -1    0    0    0    0 -0.00000000000E+00 -0.00000000000E+00 -0.45593999997E+02  0.45594000000E+02  0.51100000000E-03 0.  1.
    9900012    2    1    2    0    0 -0.26021327462E+02  0.10770932185E+02 -0.14953064456E+02  0.59302006216E+02  0.50000113416E+02 0.  0.
         12    1    1    2    0    0  0.26021327462E+02 -0.10770932185E+02  0.14953064456E+02  0.31885993784E+02  0.00000000000E+00 0. -1.
         11    1    3    3    0    0 -0.10348807653E+02 -0.11655273400E+02 -0.80156522687E+01  0.17526947807E+02  0.51100000000E-03 0. -1.
        -11    1    3    3    0    0 -0.42531910149E+01  0.14556737782E+02 -0.18356363136E+02  0.23810592528E+02  0.51100000000E-03 0.  1.
         12    1    3    3    0    0 -0.11419328793E+02  0.78694678035E+01  0.11418950949E+02  0.17964465881E+02  0.00000000000E+00 0. -1.
</event>
<event>
 7    1  0.7578565E-012  0.5930194E+02  0.7816164E-02  0.1266605E+00
        -11   -1    0    0    0    0  0.00000000000E+00  0.00000000000E+00  0.45593999997E+02  0.45594000000E+02  0.51100000000E-03 0. -1.
         11   -1    0    0    0    0 -0.00000000000E+00 -0.00000000000E+00 -0.45593999997E+02  0.45594000000E+02  0.51100000000E-03 0.  1.
    9900012    2    1    2    0    0  0.22447246168E+02 -0.19444864190E+02 -0.11607720613E+02  0.59301940637E+02  0.49999993816E+02 0.  0.
         12    1    1    2    0    0 -0.22447246168E+02  0.19444864190E+02  0.11607720613E+02  0.31886059363E+02  0.00000000000E+00 0. -1.
         11    1    3    3    0    0  0.14928295958E+02 -0.19583083471E+02  0.65894957171E+01  0.25490638135E+02  0.51100000000E-03 0. -1.
        -11    1    3    3    0    0 -0.52558628939E+01 -0.38035009584E+01 -0.19334451549E+02  0.20393914074E+02  0.51100000000E-03 0.  1.
        -12    1    3    3    0    0  0.12774813104E+02  0.39417202392E+01  0.11372352192E+01  0.13417388428E+02  0.00000000000E+00 0.  1.
</event>
<event>
 7    1  0.7578565E-012  0.5930197E+02  0.7816164E-02  0.1266605E+00
        -11   -1    0    0    0    0  0.00000000000E+00  0.00000000000E+00  0.45593999997E+02  0.45594000000E+02  0.51100000000E-03 0. -1.
         11   -1    0    0    0    0 -0.00000000000E+00 -0.00000000000E+00 -0.45593999997E+02  0.45594000000E+02  0.51100000000E-03 0.  1.
    9900012    2    1    2    0    0  0.23420452458E+02  0.17721436621E+02 -0.12415786425E+02  0.59301973879E+02  0.50000054441E+02 0.  0.
         12    1    1    2    0    0 -0.23420452458E+02 -0.17721436621E+02  0.12415786425E+02  0.31886026121E+02  0.00000000000E+00 0. -1.
         11    1    3    3    0    0  0.13170703162E+02  0.68888867279E+01  0.15612934140E+02  0.21556620674E+02  0.51100000000E-03 0. -1.
        -11    1    3    3    0    0  0.16261129599E+02  0.98297500362E+01 -0.23075356416E+02  0.29891811514E+02  0.51100000000E-03 0.  1.
        -12    1    3    3    0    0 -0.60113803030E+01  0.10027998569E+01 -0.49533641485E+01  0.78535416907E+01  0.00000000000E+00 0.  1.
</event>
<event>
 7    1  0.7578565E-012  0.5930197E+02  0.7816164E-02  0.1266605E+00
        -11   -1    0    0    0    0  0.00000000000E+00  0.00000000000E+00  0.45593999997E+02  0.45594000000E+02  0.51100000000E-03 0.  1.
         11   -1    0    0    0    0 -0.00000000000E+00 -0.00000000000E+00 -0.45593999997E+02  0.45594000000E+02  0.51100000000E-03 0. -1.
    9900012    2    1    2    0    0 -0.31306731448E+02 -0.57600135363E+01  0.18519700500E+01  0.59301968843E+02  0.50000045257E+02 0.  0.
         12    1    1    2    0    0  0.31306731448E+02  0.57600135363E+01 -0.18519700500E+01  0.31886031157E+02  0.00000000000E+00 0. -1.
         11    1    3    3    0    0 -0.59768143876E+01  0.11066277290E+02 -0.72558367179E+01  0.14520054064E+02  0.51100000000E-03 0.  1.
        -11    1    3    3    0    0 -0.30489719101E+02 -0.20549425714E+02  0.10561767118E+02  0.38255101529E+02  0.51100000000E-03 0. -1.
        -12    1    3    3    0    0  0.51598020412E+01  0.37231348878E+01 -0.14539603501E+01  0.65268132497E+01  0.00000000000E+00 0.  1.
</event>
<event>
 7    1  0.7578565E-012  0.5930194E+02  0.7816164E-02  0.1266605E+00
        -11   -1    0    0    0    0  0.00000000000E+00  0.00000000000E+00  0.45593999997E+02  0.45594000000E+02  0.51100000000E-03 0. -1.
         11   -1    0    0    0    0 -0.00000000000E+00 -0.00000000000E+00 -0.45593999997E+02  0.45594000000E+02  0.51100000000E-03 0.  1.
    9900012    2    1    2    0    0 -0.66590920545E+01  0.15117061136E+02 -0.27273646962E+02  0.59301939363E+02  0.49999991492E+02 0.  0.
         12    1    1    2    0    0  0.66590920545E+01 -0.15117061136E+02  0.27273646962E+02  0.31886060637E+02  0.00000000000E+00 0. -1.
         11    1    3    3    0    0  0.13033011632E+02  0.96260976364E+01  0.82199086228E+01  0.18168325347E+02  0.51100000000E-03 0. -1.
        -11    1    3    3    0    0 -0.33281127361E+01  0.23739249322E+01 -0.59881105896E+01  0.72504705131E+01  0.51100000000E-03 0.  1.
         12    1    3    3    0    0 -0.16363990950E+02  0.31170385674E+01 -0.29505444995E+02  0.33883143502E+02  0.00000000000E+00 0. -1.
</event>
<event>
 7    1  0.7578565E-012  0.5930192E+02  0.7816164E-02  0.1266605E+00
        -11   -1    0    0    0    0  0.00000000000E+00  0.00000000000E+00  0.45593999997E+02  0.45594000000E+02  0.51100000000E-03 0.  1.
         11   -1    0    0    0    0 -0.00000000000E+00 -0.00000000000E+00 -0.45593999997E+02  0.45594000000E+02  0.51100000000E-03 0. -1.
    9900012    2    1    2    0    0  0.34125588181E+01 -0.53584335537E+01  0.31246819159E+02  0.59301920351E+02  0.49999956820E+02 0.  0.
         12    1    1    2    0    0 -0.34125588181E+01  0.53584335537E+01 -0.31246819159E+02  0.31886079649E+02  0.00000000000E+00 0. -1.
         11    1    3    3    0    0 -0.15500339560E+02 -0.16485123142E+02  0.21296768635E+02  0.31073657107E+02  0.51100000000E-03 0. -1.
        -11    1    3    3    0    0  0.45760524295E+01  0.10936591465E+02  0.63335289363E+01  0.13441089158E+02  0.51100000000E-03 0.  1.
         12    1    3    3    0    0  0.14336845948E+02  0.19009812343E+00  0.36165215876E+01  0.14787174086E+02  0.00000000000E+00 0. -1.
</event>
<event>
 7    1  0.7578565E-012  0.5930195E+02  0.7816164E-02  0.1266605E+00
        -11   -1    0    0    0    0  0.00000000000E+00  0.00000000000E+00  0.45593999997E+02  0.45594000000E+02  0.51100000000E-03 0.  1.
         11   -1    0    0    0    0 -0.00000000000E+00 -0.00000000000E+00 -0.45593999997E+02  0.45594000000E+02  0.51100000000E-03 0. -1.
    9900012    2    1    2    0    0 -0.14770595021E+01  0.18048817901E+02  0.26244593737E+02  0.59301949244E+02  0.50000009513E+02 0.  0.
         12    1    1    2    0    0  0.14770595021E+01 -0.18048817901E+02 -0.26244593737E+02  0.31886050756E+02  0.00000000000E+00 0. -1.
         11    1    3    3    0    0  0.13166380433E+02  0.25236848191E+02  0.56339061975E+01  0.29017115288E+02  0.51100000000E-03 0. -1.
        -11    1    3    3    0    0  0.15377889226E+01 -0.15058598090E+01  0.97511327689E+01  0.99858399282E+01  0.51100000000E-03 0.  1.
         12    1    3    3    0    0 -0.16181228857E+02 -0.56821704810E+01  0.10859554771E+02  0.20298994028E+02  0.00000000000E+00 0. -1.
</event>
<event>
 7    1  0.7578565E-012  0.5930194E+02  0.7816164E-02  0.1266605E+00
        -11   -1    0    0    0    0  0.00000000000E+00  0.00000000000E+00  0.45593999997E+02  0.45594000000E+02  0.51100000000E-03 0. -1.
         11   -1    0    0    0    0 -0.00000000000E+00 -0.00000000000E+00 -0.45593999997E+02  0.45594000000E+02  0.51100000000E-03 0.  1.
    9900012    2    1    2    0    0  0.73622499186E+01  0.18995831707E+02 -0.24529088098E+02  0.59301944913E+02  0.50000001614E+02 0.  0.
         12    1    1    2    0    0 -0.73622499186E+01 -0.18995831707E+02  0.24529088098E+02  0.31886055087E+02  0.00000000000E+00 0. -1.
         11    1    3    3    0    0  0.23803254016E+01  0.13609391965E+02  0.97179692588E+01  0.16891430533E+02  0.51100000000E-03 0. -1.
        -11    1    3    3    0    0 -0.67658545761E+01  0.66460189252E+01 -0.26838163863E+02  0.28464598987E+02  0.51100000000E-03 0.  1.
         12    1    3    3    0    0  0.11747779093E+02 -0.12595791829E+01 -0.74088934941E+01  0.13945915393E+02  0.00000000000E+00 0. -1.
</event>
<event>
 7    1  0.7578565E-012  0.5930194E+02  0.7816164E-02  0.1266605E+00
        -11   -1    0    0    0    0  0.00000000000E+00  0.00000000000E+00  0.45593999997E+02  0.45594000000E+02  0.51100000000E-03 0.  1.
         11   -1    0    0    0    0 -0.00000000000E+00 -0.00000000000E+00 -0.45593999997E+02  0.45594000000E+02  0.51100000000E-03 0. -1.
    9900012    2    1    2    0    0  0.10420656783E+02 -0.18567893275E+02  0.23735287384E+02  0.59301943241E+02  0.49999998565E+02 0.  0.
         12    1    1    2    0    0 -0.10420656783E+02  0.18567893275E+02 -0.23735287384E+02  0.31886056759E+02  0.00000000000E+00 0. -1.
         11    1    3    3    0    0 -0.34106640320E+01 -0.15379177759E+02  0.35362598530E+02  0.38712596306E+02  0.51100000000E-03 0. -1.
        -11    1    3    3    0    0  0.43866292430E+01 -0.56549910653E+01 -0.39802119136E+01  0.81892323939E+01  0.51100000000E-03 0.  1.
         12    1    3    3    0    0  0.94446915716E+01  0.24662755495E+01 -0.76470992324E+01  0.12400114541E+02  0.00000000000E+00 0. -1.
</event>
<event>
 7    1  0.7578565E-012  0.5930197E+02  0.7816164E-02  0.1266605E+00
        -11   -1    0    0    0    0  0.00000000000E+00  0.00000000000E+00  0.45593999997E+02  0.45594000000E+02  0.51100000000E-03 0. -1.
         11   -1    0    0    0    0 -0.00000000000E+00 -0.00000000000E+00 -0.45593999997E+02  0.45594000000E+02  0.51100000000E-03 0.  1.
    9900012    2    1    2    0    0 -0.26847826794E+02 -0.13613763631E+02  0.10515647586E+02  0.59301965315E+02  0.50000038823E+02 0.  0.
         12    1    1    2    0    0  0.26847826794E+02  0.13613763631E+02 -0.10515647586E+02  0.31886034685E+02  0.00000000000E+00 0. -1.
         11    1    3    3    0    0  0.85494313632E+01 -0.22904019635E+01  0.11101968462E+02  0.14198324612E+02  0.51100000000E-03 0. -1.
        -11    1    3    3    0    0 -0.12852768725E+02 -0.66058718916E+01 -0.12558282832E+02  0.19145278146E+02  0.51100000000E-03 0.  1.
         12    1    3    3    0    0 -0.22544489433E+02 -0.47174897762E+01  0.11971961956E+02  0.25958362557E+02  0.00000000000E+00 0. -1.
</event>
<event>
 7    1  0.7578565E-012  0.5930192E+02  0.7816164E-02  0.1266605E+00
        -11   -1    0    0    0    0  0.00000000000E+00  0.00000000000E+00  0.45593999997E+02  0.45594000000E+02  0.51100000000E-03 0. -1.
         11   -1    0    0    0    0 -0.00000000000E+00 -0.00000000000E+00 -0.45593999997E+02  0.45594000000E+02  0.51100000000E-03 0.  1.
    9900012    2    1    2    0    0  0.14784581205E+02 -0.27328116881E+02  0.71632651497E+01  0.59301918690E+02  0.49999953790E+02 0.  0.
         12    1    1    2    0    0 -0.14784581205E+02  0.27328116881E+02 -0.71632651497E+01  0.31886081310E+02  0.00000000000E+00 0. -1.
         11    1    3    3    0    0 -0.30044827804E+01  0.95421325777E+01 -0.25362254380E+01  0.10320448180E+02  0.51100000000E-03 0. -1.
        -11    1    3    3    0    0  0.22308253627E+02 -0.37301492203E+02  0.90501382544E+01  0.44395545983E+02  0.51100000000E-03 0.  1.
        -12    1    3    3    0    0 -0.45191896408E+01  0.43124274395E+00  0.64935233333E+00  0.45859245269E+01  0.00000000000E+00 0.  1.
</event>
<event>
 7    1  0.7578565E-012  0.5930196E+02  0.7816164E-02  0.1266605E+00
        -11   -1    0    0    0    0  0.00000000000E+00  0.00000000000E+00  0.45593999997E+02  0.45594000000E+02  0.51100000000E-03 0.  1.
         11   -1    0    0    0    0 -0.00000000000E+00 -0.00000000000E+00 -0.45593999997E+02  0.45594000000E+02  0.51100000000E-03 0. -1.
    9900012    2    1    2    0    0  0.20623298608E+02  0.21444373149E+02  0.11469009953E+02  0.59301956431E+02  0.50000022620E+02 0.  0.
         12    1    1    2    0    0 -0.20623298608E+02 -0.21444373149E+02 -0.11469009953E+02  0.31886043569E+02  0.00000000000E+00 0. -1.
         11    1    3    3    0    0  0.26513068973E+02 -0.16518117974E+00  0.76431174975E+01  0.27593248386E+02  0.51100000000E-03 0. -1.
        -11    1    3    3    0    0 -0.38218811596E+01  0.14618676454E+02  0.13040349253E+02  0.19959037696E+02  0.51100000000E-03 0.  1.
         12    1    3    3    0    0 -0.20678892053E+01  0.69908778741E+01 -0.92144567971E+01  0.11749670348E+02  0.00000000000E+00 0. -1.
</event>
<event>
 7    1  0.7578565E-012  0.5930194E+02  0.7816164E-02  0.1266605E+00
        -11   -1    0    0    0    0  0.00000000000E+00  0.00000000000E+00  0.45593999997E+02  0.45594000000E+02  0.51100000000E-03 0.  1.
         11   -1    0    0    0    0 -0.00000000000E+00 -0.00000000000E+00 -0.45593999997E+02  0.45594000000E+02  0.51100000000E-03 0. -1.
    9900012    2    1    2    0    0  0.17267953992E+02  0.42379881182E+01  0.26468432854E+02  0.59301941666E+02  0.49999995693E+02 0.  0.
         12    1    1    2    0    0 -0.17267953992E+02 -0.42379881182E+01 -0.26468432854E+02  0.31886058334E+02  0.00000000000E+00 0. -1.
         11    1    3    3    0    0  0.82537745762E+01  0.10536102666E+02 -0.95383298014E+01  0.16435144958E+02  0.51100000000E-03 0. -1.
        -11    1    3    3    0    0 -0.13297068015E+01  0.89401055586E+00  0.27766607615E+02  0.27812800538E+02  0.51100000000E-03 0.  1.
         12    1    3    3    0    0  0.10343886217E+02 -0.71921251037E+01  0.82401550397E+01  0.15053996169E+02  0.00000000000E+00 0. -1.
</event>
<event>
 7    1  0.7578565E-012  0.5930194E+02  0.7816164E-02  0.1266605E+00
        -11   -1    0    0    0    0  0.00000000000E+00  0.00000000000E+00  0.45593999997E+02  0.45594000000E+02  0.51100000000E-03 0. -1.
         11   -1    0    0    0    0 -0.00000000000E+00 -0.00000000000E+00 -0.45593999997E+02  0.45594000000E+02  0.51100000000E-03 0.  1.
    9900012    2    1    2    0    0 -0.95638327096E+01 -0.27208196163E+02 -0.13600303143E+02  0.59301935958E+02  0.49999985282E+02 0.  0.
         12    1    1    2    0    0  0.95638327096E+01  0.27208196163E+02  0.13600303143E+02  0.31886064042E+02  0.00000000000E+00 0. -1.
         11    1    3    3    0    0  0.12155996675E+02 -0.76580394213E+01  0.68758061634E+01  0.15927665667E+02  0.51100000000E-03 0. -1.
        -11    1    3    3    0    0 -0.11729364894E+02 -0.68477538378E+01 -0.23299358077E+02  0.26969053014E+02  0.51100000000E-03 0.  1.
        -12    1    3    3    0    0 -0.99904644910E+01 -0.12702402904E+02  0.28232487705E+01  0.16405217277E+02  0.00000000000E+00 0.  1.
</event>
<event>
 7    1  0.7578565E-012  0.5930157E+02  0.7816164E-02  0.1266606E+00
        -11   -1    0    0    0    0  0.00000000000E+00  0.00000000000E+00  0.45593999997E+02  0.45594000000E+02  0.51100000000E-03 0.  1.
         11   -1    0    0    0    0 -0.00000000000E+00 -0.00000000000E+00 -0.45593999997E+02  0.45594000000E+02  0.51100000000E-03 0. -1.
    9900012    2    1    2    0    0 -0.76258803026E+00 -0.68465595669E-01  0.31877231521E+02  0.59301574715E+02  0.49999326458E+02 0.  0.
         12    1    1    2    0    0  0.76258803026E+00  0.68465595669E-01 -0.31877231521E+02  0.31886425285E+02  0.00000000000E+00 0. -1.
         11    1    3    3    0    0  0.11456759748E+02 -0.17659813862E+02  0.55537032189E+01  0.21770851827E+02  0.51100000000E-03 0. -1.
        -11    1    3    3    0    0 -0.15742910015E+02  0.11108230057E+02  0.17499756904E+02  0.26028320782E+02  0.51100000000E-03 0.  1.
         12    1    3    3    0    0  0.35235622367E+01  0.64831182086E+01  0.88237713979E+01  0.11502402107E+02  0.00000000000E+00 0. -1.
</event>
<event>
 7    1  0.7578565E-012  0.5930193E+02  0.7816164E-02  0.1266605E+00
        -11   -1    0    0    0    0  0.00000000000E+00  0.00000000000E+00  0.45593999997E+02  0.45594000000E+02  0.51100000000E-03 0. -1.
         11   -1    0    0    0    0 -0.00000000000E+00 -0.00000000000E+00 -0.45593999997E+02  0.45594000000E+02  0.51100000000E-03 0.  1.
    9900012    2    1    2    0    0 -0.19220566104E+02  0.56430196828E+01 -0.24808215625E+02  0.59301931021E+02  0.49999976278E+02 0.  0.
         12    1    1    2    0    0  0.19220566104E+02 -0.56430196828E+01  0.24808215625E+02  0.31886068979E+02  0.00000000000E+00 0. -1.
         11    1    3    3    0    0  0.14010551952E+02  0.71518810490E+01 -0.24988943697E+01  0.15927631396E+02  0.51100000000E-03 0. -1.
        -11    1    3    3    0    0 -0.20808199490E+02  0.65524071777E+01 -0.16945490808E+02  0.27623628741E+02  0.51100000000E-03 0.  1.
         12    1    3    3    0    0 -0.12422918566E+02 -0.80612685440E+01 -0.53638304471E+01  0.15750670884E+02  0.00000000000E+00 0. -1.
</event>
<event>
 7    1  0.7578565E-012  0.5930199E+02  0.7816164E-02  0.1266605E+00
        -11   -1    0    0    0    0  0.00000000000E+00  0.00000000000E+00  0.45593999997E+02  0.45594000000E+02  0.51100000000E-03 0.  1.
         11   -1    0    0    0    0 -0.00000000000E+00 -0.00000000000E+00 -0.45593999997E+02  0.45594000000E+02  0.51100000000E-03 0. -1.
    9900012    2    1    2    0    0  0.26709988325E+02 -0.13120046528E+00  0.17414840239E+02  0.59301994442E+02  0.50000091943E+02 0.  0.
         12    1    1    2    0    0 -0.26709988325E+02  0.13120046528E+00 -0.17414840239E+02  0.31886005558E+02  0.00000000000E+00 0. -1.
         11    1    3    3    0    0  0.28260948663E+01 -0.19522373980E+02 -0.44879208365E+01  0.20229961239E+02  0.51100000000E-03 0. -1.
        -11    1    3    3    0    0  0.15215095434E+02  0.64330060972E+01  0.88593283893E+01  0.18744876534E+02  0.51100000000E-03 0.  1.
         12    1    3    3    0    0  0.86687980252E+01  0.12958167418E+02  0.13043432686E+02  0.20327156669E+02  0.00000000000E+00 0. -1.
</event>
<event>
 7    1  0.7578565E-012  0.5930197E+02  0.7816164E-02  0.1266605E+00
        -11   -1    0    0    0    0  0.00000000000E+00  0.00000000000E+00  0.45593999997E+02  0.45594000000E+02  0.51100000000E-03 0.  1.
         11   -1    0    0    0    0 -0.00000000000E+00 -0.00000000000E+00 -0.45593999997E+02  0.45594000000E+02  0.51100000000E-03 0. -1.
    9900012    2    1    2    0    0  0.21882937579E+02 -0.26083406311E+01  0.23044573201E+02  0.59301972465E+02  0.50000051863E+02 0.  0.
         12    1    1    2    0    0 -0.21882937579E+02  0.26083406311E+01 -0.23044573201E+02  0.31886027535E+02  0.00000000000E+00 0. -1.
         11    1    3    3    0    0  0.24336319527E+02  0.25707761557E+01 -0.63082575317E+01  0.25271712476E+02  0.51100000000E-03 0. -1.
        -11    1    3    3    0    0 -0.29939912014E+01 -0.57791028608E+01  0.31275130150E+02  0.31945199629E+02  0.51100000000E-03 0.  1.
        -12    1    3    3    0    0  0.54060925407E+00  0.59998607394E+00 -0.19222994171E+01  0.20850603597E+01  0.00000000000E+00 0.  1.
</event>
<event>
 7    1  0.7578565E-012  0.5930193E+02  0.7816164E-02  0.1266605E+00
        -11   -1    0    0    0    0  0.00000000000E+00  0.00000000000E+00  0.45593999997E+02  0.45594000000E+02  0.51100000000E-03 0.  1.
         11   -1    0    0    0    0 -0.00000000000E+00 -0.00000000000E+00 -0.45593999997E+02  0.45594000000E+02  0.51100000000E-03 0. -1.
    9900012    2    1    2    0    0  0.14985291526E+02 -0.24598731866E+02  0.13677159991E+02  0.59301932871E+02  0.49999979654E+02 0.  0.
         12    1    1    2    0    0 -0.14985291526E+02  0.24598731866E+02 -0.13677159991E+02  0.31886067129E+02  0.00000000000E+00 0. -1.
         11    1    3    3    0    0 -0.13819784116E+02  0.28940893226E+01  0.84155568291E+01  0.16437268113E+02  0.51100000000E-03 0. -1.
        -11    1    3    3    0    0  0.10529159531E+02 -0.75398148155E+01  0.86821308412E+01  0.15591388780E+02  0.51100000000E-03 0.  1.
         12    1    3    3    0    0  0.18275916110E+02 -0.19953006373E+02 -0.34205276792E+01  0.27273275978E+02  0.00000000000E+00 0. -1.
</event>
<event>
 7    1  0.7578565E-012  0.5930197E+02  0.7816164E-02  0.1266605E+00
        -11   -1    0    0    0    0  0.00000000000E+00  0.00000000000E+00  0.45593999997E+02  0.45594000000E+02  0.51100000000E-03 0.  1.
         11   -1    0    0    0    0 -0.00000000000E+00 -0.00000000000E+00 -0.45593999997E+02  0.45594000000E+02  0.51100000000E-03 0. -1.
    9900012    2    1    2    0    0 -0.19033263854E+02 -0.23919113929E+02 -0.90735670375E+01  0.59301972294E+02  0.50000051551E+02 0.  0.
         12    1    1    2    0    0  0.19033263854E+02  0.23919113929E+02  0.90735670375E+01  0.31886027706E+02  0.00000000000E+00 0. -1.
         11    1    3    3    0    0 -0.35971792254E+00 -0.25810884508E+01 -0.21911529242E+02  0.22065958591E+02  0.51100000000E-03 0. -1.
        -11    1    3    3    0    0 -0.55564749336E+01 -0.18495629714E+02  0.99722284276E+00  0.19337972641E+02  0.51100000000E-03 0.  1.
         12    1    3    3    0    0 -0.13117070997E+02 -0.28423957647E+01  0.11840739361E+02  0.17898041062E+02  0.00000000000E+00 0. -1.
</event>
<event>
 7    1  0.7578565E-012  0.5930193E+02  0.7816164E-02  0.1266605E+00
        -11   -1    0    0    0    0  0.00000000000E+00  0.00000000000E+00  0.45593999997E+02  0.45594000000E+02  0.51100000000E-03 0.  1.
         11   -1    0    0    0    0 -0.00000000000E+00 -0.00000000000E+00 -0.45593999997E+02  0.45594000000E+02  0.51100000000E-03 0. -1.
    9900012    2    1    2    0    0 -0.29933923808E+02  0.10214098022E+02  0.40439996053E+01  0.59301928970E+02  0.49999972538E+02 0.  0.
         12    1    1    2    0    0  0.29933923808E+02 -0.10214098022E+02 -0.40439996053E+01  0.31886071030E+02  0.00000000000E+00 0. -1.
         11    1    3    3    0    0 -0.62851664326E+01  0.81074639808E+01 -0.75273802353E+01  0.12723825791E+02  0.51100000000E-03 0. -1.
        -11    1    3    3    0    0 -0.31362216326E+01 -0.51970868380E+01  0.21722082575E+02  0.22554256125E+02  0.51100000000E-03 0.  1.
        -12    1    3    3    0    0 -0.20512535742E+02  0.73037208789E+01 -0.10150702734E+02  0.24023847054E+02  0.00000000000E+00 0.  1.
</event>
<event>
 7    1  0.7578565E-012  0.5930193E+02  0.7816164E-02  0.1266605E+00
        -11   -1    0    0    0    0  0.00000000000E+00  0.00000000000E+00  0.45593999997E+02  0.45594000000E+02  0.51100000000E-03 0. -1.
         11   -1    0    0    0    0 -0.00000000000E+00 -0.00000000000E+00 -0.45593999997E+02  0.45594000000E+02  0.51100000000E-03 0.  1.
    9900012    2    1    2    0    0  0.83842154706E+01 -0.95691862525E+01 -0.29237943327E+02  0.59301925851E+02  0.49999966851E+02 0.  0.
         12    1    1    2    0    0 -0.83842154706E+01  0.95691862525E+01  0.29237943327E+02  0.31886074149E+02  0.00000000000E+00 0. -1.
         11    1    3    3    0    0 -0.13860920034E+02 -0.19563352368E+01 -0.29073780756E+02  0.32268205396E+02  0.51100000000E-03 0. -1.
        -11    1    3    3    0    0  0.15249479594E+02 -0.16634661402E+01 -0.56374298515E+01  0.16343021846E+02  0.51100000000E-03 0.  1.
         12    1    3    3    0    0  0.69956559109E+01 -0.59493848755E+01  0.54732672805E+01  0.10690698609E+02  0.00000000000E+00 0. -1.
</event>
<event>
 7    1  0.7578565E-012  0.5930195E+02  0.7816164E-02  0.1266605E+00
        -11   -1    0    0    0    0  0.00000000000E+00  0.00000000000E+00  0.45593999997E+02  0.45594000000E+02  0.51100000000E-03 0.  1.
         11   -1    0    0    0    0 -0.00000000000E+00 -0.00000000000E+00 -0.45593999997E+02  0.45594000000E+02  0.51100000000E-03 0. -1.
    9900012    2    1    2    0    0  0.68171002021E+01 -0.25419868131E+02  0.18002149464E+02  0.59301953894E+02  0.50000017993E+02 0.  0.
         12    1    1    2    0    0 -0.68171002021E+01  0.25419868131E+02 -0.18002149464E+02  0.31886046106E+02  0.00000000000E+00 0. -1.
         11    1    3    3    0    0 -0.73109439028E+01 -0.16756645849E+02  0.23258122061E+02  0.29583362265E+02  0.51100000000E-03 0.  1.
        -11    1    3    3    0    0  0.73685774009E+01  0.61150689910E+01 -0.88904057790E+01  0.13066342903E+02  0.51100000000E-03 0. -1.
        -12    1    3    3    0    0  0.67594667041E+01 -0.14778291272E+02  0.36344331827E+01  0.16652248725E+02  0.00000000000E+00 0.  1.
</event>
<event>
 7    1  0.7578565E-012  0.5930195E+02  0.7816164E-02  0.1266605E+00
        -11   -1    0    0    0    0  0.00000000000E+00  0.00000000000E+00  0.45593999997E+02  0.45594000000E+02  0.51100000000E-03 0. -1.
         11   -1    0    0    0    0 -0.00000000000E+00 -0.00000000000E+00 -0.45593999997E+02  0.45594000000E+02  0.51100000000E-03 0.  1.
    9900012    2    1    2    0    0  0.13552411348E+02  0.13567556287E+01 -0.28830734471E+02  0.59301954630E+02  0.50000019336E+02 0.  0.
         12    1    1    2    0    0 -0.13552411348E+02 -0.13567556287E+01  0.28830734471E+02  0.31886045370E+02  0.00000000000E+00 0. -1.
         11    1    3    3    0    0 -0.74643645982E+00 -0.19424500811E+02 -0.16372766756E+02  0.25415268849E+02  0.51100000000E-03 0. -1.
        -11    1    3    3    0    0  0.49857952101E+01  0.16285397597E+02 -0.15581651893E+02  0.23083764961E+02  0.51100000000E-03 0.  1.
         12    1    3    3    0    0  0.93130525974E+01  0.44958588426E+01  0.31236841775E+01  0.10802920821E+02  0.00000000000E+00 0. -1.
</event>
<event>
 7    1  0.7578565E-012  0.5930185E+02  0.7816164E-02  0.1266605E+00
        -11   -1    0    0    0    0  0.00000000000E+00  0.00000000000E+00  0.45593999997E+02  0.45594000000E+02  0.51100000000E-03 0. -1.
         11   -1    0    0    0    0 -0.00000000000E+00 -0.00000000000E+00 -0.45593999997E+02  0.45594000000E+02  0.51100000000E-03 0.  1.
    9900012    2    1    2    0    0  0.99894669015E+01 -0.17294813785E+02 -0.24856116689E+02  0.59301849877E+02  0.49999828291E+02 0.  0.
         12    1    1    2    0    0 -0.99894669015E+01  0.17294813785E+02  0.24856116689E+02  0.31886150123E+02  0.00000000000E+00 0. -1.
         11    1    3    3    0    0  0.31377545610E+01 -0.46925719891E+01  0.12776673146E+02  0.13968146352E+02  0.51100000000E-03 0. -1.
        -11    1    3    3    0    0 -0.38851847584E+01 -0.10918793303E+02 -0.29692210557E+02  0.31873846267E+02  0.51100000000E-03 0.  1.
         12    1    3    3    0    0  0.10736897099E+02 -0.16834484930E+01 -0.79405792781E+01  0.13459857258E+02  0.00000000000E+00 0. -1.
</event>
<event>
 7    1  0.7578565E-012  0.5930205E+02  0.7816164E-02  0.1266604E+00
        -11   -1    0    0    0    0  0.00000000000E+00  0.00000000000E+00  0.45593999997E+02  0.45594000000E+02  0.51100000000E-03 0.  1.
         11   -1    0    0    0    0 -0.00000000000E+00 -0.00000000000E+00 -0.45593999997E+02  0.45594000000E+02  0.51100000000E-03 0. -1.
    9900012    2    1    2    0    0 -0.27961193182E+02 -0.11994682925E+01  0.15278957382E+02  0.59302053456E+02  0.50000199570E+02 0.  0.
         12    1    1    2    0    0  0.27961193182E+02  0.11994682925E+01 -0.15278957382E+02  0.31885946544E+02  0.00000000000E+00 0. -1.
         11    1    3    3    0    0  0.92212692017E+01 -0.88610271761E+01  0.19577502846E+01  0.12937634820E+02  0.51100000000E-03 0. -1.
        -11    1    3    3    0    0 -0.38769943001E+02  0.39599217199E+01  0.81585013675E+01  0.39816461484E+02  0.51100000000E-03 0.  1.
         12    1    3    3    0    0  0.15874806171E+01  0.37016371637E+01  0.51627057301E+01  0.65479571514E+01  0.00000000000E+00 0. -1.
</event>
<event>
 7    1  0.7578565E-012  0.5930195E+02  0.7816164E-02  0.1266605E+00
        -11   -1    0    0    0    0  0.00000000000E+00  0.00000000000E+00  0.45593999997E+02  0.45594000000E+02  0.51100000000E-03 0.  1.
         11   -1    0    0    0    0 -0.00000000000E+00 -0.00000000000E+00 -0.45593999997E+02  0.45594000000E+02  0.51100000000E-03 0. -1.
    9900012    2    1    2    0    0  0.23300881641E+02 -0.18642063966E+02 -0.11236668587E+02  0.59301947327E+02  0.50000006017E+02 0.  0.
         12    1    1    2    0    0 -0.23300881641E+02  0.18642063966E+02  0.11236668587E+02  0.31886052673E+02  0.00000000000E+00 0. -1.
         11    1    3    3    0    0  0.27608077225E+02  0.49403998012E+01 -0.17535354128E+02  0.33077214558E+02  0.51100000000E-03 0. -1.
        -11    1    3    3    0    0 -0.65569020444E+01 -0.18916595999E+02  0.64751378114E+01  0.21041815002E+02  0.51100000000E-03 0.  1.
         12    1    3    3    0    0  0.22497064604E+01 -0.46658677675E+01 -0.17645226989E+00  0.51829177676E+01  0.00000000000E+00 0. -1.
</event>
<event>
 7    1  0.7578565E-012  0.5930192E+02  0.7816164E-02  0.1266605E+00
        -11   -1    0    0    0    0  0.00000000000E+00  0.00000000000E+00  0.45593999997E+02  0.45594000000E+02  0.51100000000E-03 0. -1.
         11   -1    0    0    0    0 -0.00000000000E+00 -0.00000000000E+00 -0.45593999997E+02  0.45594000000E+02  0.51100000000E-03 0.  1.
    9900012    2    1    2    0    0 -0.48076933939E+01  0.10810108182E-01 -0.31521553002E+02  0.59301916259E+02  0.49999949357E+02 0.  0.
         12    1    1    2    0    0  0.48076933939E+01 -0.10810108182E-01  0.31521553002E+02  0.31886083741E+02  0.00000000000E+00 0. -1.
         11    1    3    3    0    0 -0.16212339569E+02  0.45194751512E+01 -0.36267584260E+02  0.39982537167E+02  0.51100000000E-03 0. -1.
        -11    1    3    3    0    0 -0.23717424731E+01 -0.12009183097E+01  0.44077821225E+01  0.51474178619E+01  0.51100000000E-03 0.  1.
         12    1    3    3    0    0  0.13776388648E+02 -0.33077467333E+01  0.33824913533E+00  0.14171961231E+02  0.00000000000E+00 0. -1.
</event>
<event>
 7    1  0.7578565E-012  0.5930199E+02  0.7816164E-02  0.1266605E+00
        -11   -1    0    0    0    0  0.00000000000E+00  0.00000000000E+00  0.45593999997E+02  0.45594000000E+02  0.51100000000E-03 0.  1.
         11   -1    0    0    0    0 -0.00000000000E+00 -0.00000000000E+00 -0.45593999997E+02  0.45594000000E+02  0.51100000000E-03 0. -1.
    9900012    2    1    2    0    0 -0.11345158191E+02  0.25566538445E+02  0.15308733609E+02  0.59301986967E+02  0.50000078311E+02 0.  0.
         12    1    1    2    0    0  0.11345158191E+02 -0.25566538445E+02 -0.15308733609E+02  0.31886013033E+02  0.00000000000E+00 0. -1.
         11    1    3    3    0    0 -0.15709033420E+02  0.21307075436E+02  0.81743023803E+01  0.27705313827E+02  0.51100000000E-03 0. -1.
        -11    1    3    3    0    0  0.12568100802E+02 -0.77538282143E+01 -0.12254065980E+01  0.14818253316E+02  0.51100000000E-03 0.  1.
        -12    1    3    3    0    0 -0.82042255733E+01  0.12013291223E+02  0.83598378269E+01  0.16778419823E+02  0.00000000000E+00 0.  1.
</event>
<event>
 7    1  0.7578565E-012  0.5930216E+02  0.7816164E-02  0.1266604E+00
        -11   -1    0    0    0    0  0.00000000000E+00  0.00000000000E+00  0.45593999997E+02  0.45594000000E+02  0.51100000000E-03 0.  1.
         11   -1    0    0    0    0 -0.00000000000E+00 -0.00000000000E+00 -0.45593999997E+02  0.45594000000E+02  0.51100000000E-03 0. -1.
    9900012    2    1    2    0    0 -0.35912474983E+01 -0.35330785571E+01  0.31485349350E+02  0.59302157901E+02  0.50000390051E+02 0.  0.
         12    1    1    2    0    0  0.35912474983E+01  0.35330785571E+01 -0.31485349350E+02  0.31885842099E+02  0.00000000000E+00 0. -1.
         11    1    3    3    0    0 -0.80816540588E+01  0.51911630707E+01  0.32615573542E+01  0.10143917537E+02  0.51100000000E-03 0. -1.
        -11    1    3    3    0    0  0.19071640520E+02 -0.22180000301E+01  0.27018535963E+02  0.33145863725E+02  0.51100000000E-03 0.  1.
        -12    1    3    3    0    0 -0.14581233959E+02 -0.65062415977E+01  0.12052560329E+01  0.16012376638E+02  0.00000000000E+00 0.  1.
</event>
<event>
 7    1  0.7578565E-012  0.5930197E+02  0.7816164E-02  0.1266605E+00
        -11   -1    0    0    0    0  0.00000000000E+00  0.00000000000E+00  0.45593999997E+02  0.45594000000E+02  0.51100000000E-03 0.  1.
         11   -1    0    0    0    0 -0.00000000000E+00 -0.00000000000E+00 -0.45593999997E+02  0.45594000000E+02  0.51100000000E-03 0. -1.
    9900012    2    1    2    0    0 -0.24479456000E+02 -0.16238875928E+02  0.12400558489E+02  0.59301973150E+02  0.50000053111E+02 0.  0.
         12    1    1    2    0    0  0.24479456000E+02  0.16238875928E+02 -0.12400558489E+02  0.31886026850E+02  0.00000000000E+00 0. -1.
         11    1    3    3    0    0  0.37967172935E+01  0.11281284396E+02 -0.54752180138E+01  0.13101925522E+02  0.51100000000E-03 0. -1.
        -11    1    3    3    0    0 -0.88574178424E+01 -0.39921190699E+00  0.63615542147E+01  0.10912497114E+02  0.51100000000E-03 0.  1.
         12    1    3    3    0    0 -0.19418755451E+02 -0.27120948417E+02  0.11514222288E+02  0.35287550513E+02  0.00000000000E+00 0. -1.
</event>
<event>
 7    1  0.7578565E-012  0.5930188E+02  0.7816164E-02  0.1266605E+00
        -11   -1    0    0    0    0  0.00000000000E+00  0.00000000000E+00  0.45593999997E+02  0.45594000000E+02  0.51100000000E-03 0.  1.
         11   -1    0    0    0    0 -0.00000000000E+00 -0.00000000000E+00 -0.45593999997E+02  0.45594000000E+02  0.51100000000E-03 0. -1.
    9900012    2    1    2    0    0 -0.65558210726E+01 -0.19958794145E+02  0.23987339027E+02  0.59301879395E+02  0.49999882125E+02 0.  0.
         12    1    1    2    0    0  0.65558210726E+01  0.19958794145E+02 -0.23987339027E+02  0.31886120605E+02  0.00000000000E+00 0. -1.
         11    1    3    3    0    0 -0.12846002852E+02 -0.27713604388E+02  0.65234863118E+01  0.31234908858E+02  0.51100000000E-03 0. -1.
        -11    1    3    3    0    0  0.90480838969E+01  0.73043072642E+01  0.20729855838E+02  0.23768627435E+02  0.51100000000E-03 0.  1.
        -12    1    3    3    0    0 -0.27579021177E+01  0.45050297935E+00 -0.32660031224E+01  0.42983431018E+01  0.00000000000E+00 0.  1.
</event>
<event>
 7    1  0.7578565E-012  0.5930195E+02  0.7816164E-02  0.1266605E+00
        -11   -1    0    0    0    0  0.00000000000E+00  0.00000000000E+00  0.45593999997E+02  0.45594000000E+02  0.51100000000E-03 0. -1.
         11   -1    0    0    0    0 -0.00000000000E+00 -0.00000000000E+00 -0.45593999997E+02  0.45594000000E+02  0.51100000000E-03 0.  1.
    9900012    2    1    2    0    0 -0.55164990626E+01  0.71783108600E+01 -0.30573846510E+02  0.59301952908E+02  0.50000016195E+02 0.  0.
         12    1    1    2    0    0  0.55164990626E+01 -0.71783108600E+01  0.30573846510E+02  0.31886047092E+02  0.00000000000E+00 0. -1.
         11    1    3    3    0    0  0.14706872057E+02 -0.41167546315E+01 -0.23638677380E+02  0.28142971110E+02  0.51100000000E-03 0. -1.
        -11    1    3    3    0    0 -0.18860038334E+02  0.16355317451E+02 -0.69681449474E+01  0.25918188578E+02  0.51100000000E-03 0.  1.
         12    1    3    3    0    0 -0.13633327853E+01 -0.50602519591E+01  0.32975816501E-01  0.52407932202E+01  0.00000000000E+00 0. -1.
</event>
<event>
 7    1  0.7578565E-012  0.5930196E+02  0.7816164E-02  0.1266605E+00
        -11   -1    0    0    0    0  0.00000000000E+00  0.00000000000E+00  0.45593999997E+02  0.45594000000E+02  0.51100000000E-03 0.  1.
         11   -1    0    0    0    0 -0.00000000000E+00 -0.00000000000E+00 -0.45593999997E+02  0.45594000000E+02  0.51100000000E-03 0. -1.
    9900012    2    1    2    0    0 -0.34230590906E+01 -0.13566382471E+01  0.31672733392E+02  0.59301955382E+02  0.50000020708E+02 0.  0.
         12    1    1    2    0    0  0.34230590906E+01  0.13566382471E+01 -0.31672733392E+02  0.31886044618E+02  0.00000000000E+00 0. -1.
         11    1    3    3    0    0 -0.17767820846E+02 -0.16803419642E+02  0.18722402039E+02  0.30799004978E+02  0.51100000000E-03 0. -1.
        -11    1    3    3    0    0  0.84685628951E+01  0.47133039078E+01  0.13062988755E+02  0.16265714454E+02  0.51100000000E-03 0.  1.
         12    1    3    3    0    0  0.58761988605E+01  0.10733477487E+02 -0.11265740197E+00  0.12237235950E+02  0.00000000000E+00 0. -1.
</event>
<event>
 7    1  0.7578565E-012  0.5930188E+02  0.7816164E-02  0.1266605E+00
        -11   -1    0    0    0    0  0.00000000000E+00  0.00000000000E+00  0.45593999997E+02  0.45594000000E+02  0.51100000000E-03 0.  1.
         11   -1    0    0    0    0 -0.00000000000E+00 -0.00000000000E+00 -0.45593999997E+02  0.45594000000E+02  0.51100000000E-03 0. -1.
    9900012    2    1    2    0    0  0.27003429448E+01  0.19745150364E+02  0.24891004112E+02  0.59301876049E+02  0.49999876023E+02 0.  0.
         12    1    1    2    0    0 -0.27003429448E+01 -0.19745150364E+02 -0.24891004112E+02  0.31886123951E+02  0.00000000000E+00 0. -1.
         11    1    3    3    0    0 -0.11654855042E+02  0.14127132543E+02 -0.80602434041E+01  0.20009473854E+02  0.51100000000E-03 0. -1.
        -11    1    3    3    0    0  0.63993530811E+01 -0.19923679412E+00  0.27066561562E+02  0.27813488997E+02  0.51100000000E-03 0.  1.
         12    1    3    3    0    0  0.79558449053E+01  0.58172546156E+01  0.58846859536E+01  0.11478913197E+02  0.00000000000E+00 0. -1.
</event>
<event>
 7    1  0.7578565E-012  0.5930193E+02  0.7816164E-02  0.1266605E+00
        -11   -1    0    0    0    0  0.00000000000E+00  0.00000000000E+00  0.45593999997E+02  0.45594000000E+02  0.51100000000E-03 0.  1.
         11   -1    0    0    0    0 -0.00000000000E+00 -0.00000000000E+00 -0.45593999997E+02  0.45594000000E+02  0.51100000000E-03 0. -1.
    9900012    2    1    2    0    0  0.18847584763E+02 -0.23555048326E+02  0.10327143214E+02  0.59301927178E+02  0.49999969270E+02 0.  0.
         12    1    1    2    0    0 -0.18847584763E+02  0.23555048326E+02 -0.10327143214E+02  0.31886072822E+02  0.00000000000E+00 0. -1.
         11    1    3    3    0    0  0.31363358221E+01  0.13534037638E+02  0.26709468405E+00  0.13895255198E+02  0.51100000000E-03 0. -1.
        -11    1    3    3    0    0  0.16202646605E+01 -0.24632382774E+02  0.99044223606E+01  0.26598442084E+02  0.51100000000E-03 0.  1.
         12    1    3    3    0    0  0.14090984280E+02 -0.12456703190E+02  0.15562616961E+00  0.18808229897E+02  0.00000000000E+00 0. -1.
</event>
<event>
 7    1  0.7578565E-012  0.5930192E+02  0.7816164E-02  0.1266605E+00
        -11   -1    0    0    0    0  0.00000000000E+00  0.00000000000E+00  0.45593999997E+02  0.45594000000E+02  0.51100000000E-03 0.  1.
         11   -1    0    0    0    0 -0.00000000000E+00 -0.00000000000E+00 -0.45593999997E+02  0.45594000000E+02  0.51100000000E-03 0. -1.
    9900012    2    1    2    0    0 -0.25114103705E+02 -0.26623028526E+00  0.19645180579E+02  0.59301918343E+02  0.49999953157E+02 0.  0.
         12    1    1    2    0    0  0.25114103705E+02  0.26623028526E+00 -0.19645180579E+02  0.31886081657E+02  0.00000000000E+00 0. -1.
         11    1    3    3    0    0 -0.33888911750E+02  0.86851210743E+01  0.40497342550E+01  0.35217751426E+02  0.51100000000E-03 0. -1.
        -11    1    3    3    0    0 -0.27735670673E+01 -0.55419893007E+01  0.66034155319E+01  0.90560154944E+01  0.51100000000E-03 0.  1.
         12    1    3    3    0    0  0.11548375113E+02 -0.34093620589E+01  0.89920307925E+01  0.15028151422E+02  0.00000000000E+00 0. -1.
</event>
<event>
 7    1  0.7578565E-012  0.5930192E+02  0.7816164E-02  0.1266605E+00
        -11   -1    0    0    0    0  0.00000000000E+00  0.00000000000E+00  0.45593999997E+02  0.45594000000E+02  0.51100000000E-03 0.  1.
         11   -1    0    0    0    0 -0.00000000000E+00 -0.00000000000E+00 -0.45593999997E+02  0.45594000000E+02  0.51100000000E-03 0. -1.
    9900012    2    1    2    0    0 -0.21973003821E+02  0.19386171878E+02  0.12573196767E+02  0.59301924137E+02  0.49999963724E+02 0.  0.
         12    1    1    2    0    0  0.21973003821E+02 -0.19386171878E+02 -0.12573196767E+02  0.31886075863E+02  0.00000000000E+00 0. -1.
         11    1    3    3    0    0 -0.16146083664E+02 -0.10044298505E+01 -0.14254866296E+02  0.21561681530E+02  0.51100000000E-03 0. -1.
        -11    1    3    3    0    0 -0.10230145332E+02  0.10879434623E+02  0.20936680068E+02  0.25716969957E+02  0.51100000000E-03 0.  1.
        -12    1    3    3    0    0  0.44032251749E+01  0.95111671052E+01  0.58913829952E+01  0.12023272651E+02  0.00000000000E+00 0.  1.
</event>
<event>
 7    1  0.7578565E-012  0.5930194E+02  0.7816164E-02  0.1266605E+00
        -11   -1    0    0    0    0  0.00000000000E+00  0.00000000000E+00  0.45593999997E+02  0.45594000000E+02  0.51100000000E-03 0.  1.
         11   -1    0    0    0    0 -0.00000000000E+00 -0.00000000000E+00 -0.45593999997E+02  0.45594000000E+02  0.51100000000E-03 0. -1.
    9900012    2    1    2    0    0 -0.89334854370E+01 -0.11697541363E+02  0.28285708747E+02  0.59301937915E+02  0.49999988852E+02 0.  0.
         12    1    1    2    0    0  0.89334854370E+01  0.11697541363E+02 -0.28285708747E+02  0.31886062085E+02  0.00000000000E+00 0. -1.
         11    1    3    3    0    0 -0.68838353545E+01 -0.23650547730E+01 -0.85311527139E+01  0.11214331909E+02  0.51100000000E-03 0. -1.
        -11    1    3    3    0    0  0.50292575941E+01 -0.16868041830E+02  0.32342302925E+02  0.36821852559E+02  0.51100000000E-03 0.  1.
         12    1    3    3    0    0 -0.70789076766E+01  0.75355552394E+01  0.44745585358E+01  0.11265753448E+02  0.00000000000E+00 0. -1.
</event>
<event>
 7    1  0.7578565E-012  0.5930192E+02  0.7816164E-02  0.1266605E+00
        -11   -1    0    0    0    0  0.00000000000E+00  0.00000000000E+00  0.45593999997E+02  0.45594000000E+02  0.51100000000E-03 0.  1.
         11   -1    0    0    0    0 -0.00000000000E+00 -0.00000000000E+00 -0.45593999997E+02  0.45594000000E+02  0.51100000000E-03 0. -1.
    9900012    2    1    2    0    0  0.79227785002E+01 -0.13367272082E+02  0.27843630363E+02  0.59301919434E+02  0.49999955146E+02 0.  0.
         12    1    1    2    0    0 -0.79227785002E+01  0.13367272082E+02 -0.27843630363E+02  0.31886080566E+02  0.00000000000E+00 0. -1.
         11    1    3    3    0    0  0.18019047492E+01  0.42722356054E-01 -0.54459989982E+01  0.57365138607E+01  0.51100000000E-03 0. -1.
        -11    1    3    3    0    0 -0.55034581527E+01 -0.15476840012E+02  0.37572253200E+02  0.41006034180E+02  0.51100000000E-03 0.  1.
        -12    1    3    3    0    0  0.11624331904E+02  0.20668455734E+01 -0.42826238387E+01  0.12559371393E+02  0.00000000000E+00 0.  1.
</event>
<event>
 7    1  0.7578565E-012  0.5930195E+02  0.7816164E-02  0.1266605E+00
        -11   -1    0    0    0    0  0.00000000000E+00  0.00000000000E+00  0.45593999997E+02  0.45594000000E+02  0.51100000000E-03 0.  1.
         11   -1    0    0    0    0 -0.00000000000E+00 -0.00000000000E+00 -0.45593999997E+02  0.45594000000E+02  0.51100000000E-03 0. -1.
    9900012    2    1    2    0    0  0.29201436992E+02 -0.69122552423E+01  0.10780396965E+02  0.59301950485E+02  0.50000011777E+02 0.  0.
         12    1    1    2    0    0 -0.29201436992E+02  0.69122552423E+01 -0.10780396965E+02  0.31886049515E+02  0.00000000000E+00 0. -1.
         11    1    3    3    0    0  0.77300146052E+00  0.10897616489E+02 -0.95616926499E+01  0.14518317499E+02  0.51100000000E-03 0. -1.
        -11    1    3    3    0    0  0.29381196461E+02 -0.11302712804E+02  0.10975226384E+02  0.33338590502E+02  0.51100000000E-03 0.  1.
         12    1    3    3    0    0 -0.95276092990E+00 -0.65071589268E+01  0.93668632314E+01  0.11445042485E+02  0.00000000000E+00 0. -1.
</event>
<event>
 7    1  0.7578565E-012  0.5930195E+02  0.7816164E-02  0.1266605E+00
        -11   -1    0    0    0    0  0.00000000000E+00  0.00000000000E+00  0.45593999997E+02  0.45594000000E+02  0.51100000000E-03 0.  1.
         11   -1    0    0    0    0 -0.00000000000E+00 -0.00000000000E+00 -0.45593999997E+02  0.45594000000E+02  0.51100000000E-03 0. -1.
    9900012    2    1    2    0    0 -0.12896463000E+02  0.26434254659E+02  0.12313882384E+02  0.59301948556E+02  0.50000008259E+02 0.  0.
         12    1    1    2    0    0  0.12896463000E+02 -0.26434254659E+02 -0.12313882384E+02  0.31886051444E+02  0.00000000000E+00 0. -1.
         11    1    3    3    0    0  0.14480261997E+01 -0.92692405187E+01 -0.97542965576E+00  0.94322353100E+01  0.51100000000E-03 0. -1.
        -11    1    3    3    0    0 -0.22053244745E+02  0.28165756973E+02  0.46893017528E+01  0.36078317877E+02  0.51100000000E-03 0.  1.
         12    1    3    3    0    0  0.77087555448E+01  0.75377382054E+01  0.86000102870E+01  0.13791395370E+02  0.00000000000E+00 0. -1.
</event>
<event>
 7    1  0.7578565E-012  0.5930193E+02  0.7816164E-02  0.1266605E+00
        -11   -1    0    0    0    0  0.00000000000E+00  0.00000000000E+00  0.45593999997E+02  0.45594000000E+02  0.51100000000E-03 0.  1.
         11   -1    0    0    0    0 -0.00000000000E+00 -0.00000000000E+00 -0.45593999997E+02  0.45594000000E+02  0.51100000000E-03 0. -1.
    9900012    2    1    2    0    0 -0.39723953028E+00  0.84403722390E+01  0.30746116616E+02  0.59301931416E+02  0.49999976999E+02 0.  0.
         12    1    1    2    0    0  0.39723953028E+00 -0.84403722390E+01 -0.30746116616E+02  0.31886068584E+02  0.00000000000E+00 0. -1.
         11    1    3    3    0    0  0.12153119179E+02  0.19098355227E+02  0.14423804634E+02  0.26841974938E+02  0.51100000000E-03 0.  1.
        -11    1    3    3    0    0 -0.18434024086E+02 -0.86873915103E+01  0.16547782401E+02  0.26250964133E+02  0.51100000000E-03 0. -1.
         12    1    3    3    0    0  0.58836653764E+01 -0.19705914779E+01 -0.22547041870E+00  0.62089923453E+01  0.00000000000E+00 0. -1.
</event>
<event>
 7    1  0.7578565E-012  0.5930201E+02  0.7816164E-02  0.1266605E+00
        -11   -1    0    0    0    0  0.00000000000E+00  0.00000000000E+00  0.45593999997E+02  0.45594000000E+02  0.51100000000E-03 0.  1.
         11   -1    0    0    0    0 -0.00000000000E+00 -0.00000000000E+00 -0.45593999997E+02  0.45594000000E+02  0.51100000000E-03 0. -1.
    9900012    2    1    2    0    0  0.29046161620E+02 -0.13024951590E+02 -0.18405742325E+01  0.59302006488E+02  0.50000113912E+02 0.  0.
         12    1    1    2    0    0 -0.29046161620E+02  0.13024951590E+02  0.18405742325E+01  0.31885993512E+02  0.00000000000E+00 0. -1.
         11    1    3    3    0    0  0.16054616169E+02 -0.25332201475E+02 -0.12121219722E+02  0.32348030847E+02  0.51100000000E-03 0.  1.
        -11    1    3    3    0    0  0.12198570104E+02  0.38500051611E+01  0.12797813902E+02  0.18094521084E+02  0.51100000000E-03 0. -1.
         12    1    3    3    0    0  0.79297534632E+00  0.84572447236E+01 -0.25171684131E+01  0.88594545563E+01  0.00000000000E+00 0. -1.
</event>
<event>
 7    1  0.7578565E-012  0.5930191E+02  0.7816164E-02  0.1266605E+00
        -11   -1    0    0    0    0  0.00000000000E+00  0.00000000000E+00  0.45593999997E+02  0.45594000000E+02  0.51100000000E-03 0.  1.
         11   -1    0    0    0    0 -0.00000000000E+00 -0.00000000000E+00 -0.45593999997E+02  0.45594000000E+02  0.51100000000E-03 0. -1.
    9900012    2    1    2    0    0 -0.43533473156E+01 -0.27348335371E+02  0.15806313042E+02  0.59301911930E+02  0.49999941461E+02 0.  0.
         12    1    1    2    0    0  0.43533473156E+01  0.27348335371E+02 -0.15806313042E+02  0.31886088070E+02  0.00000000000E+00 0. -1.
         11    1    3    3    0    0 -0.16654081644E+02 -0.15221600073E+01 -0.28482260730E+01  0.16964309550E+02  0.51100000000E-03 0. -1.
        -11    1    3    3    0    0  0.16161100089E+02 -0.28059885111E+02  0.12440516402E+02  0.34688683416E+02  0.51100000000E-03 0.  1.
         12    1    3    3    0    0 -0.38603657608E+01  0.22337097469E+01  0.62140227129E+01  0.76489189639E+01  0.00000000000E+00 0. -1.
</event>
<event>
 7    1  0.7578565E-012  0.5930191E+02  0.7816164E-02  0.1266605E+00
        -11   -1    0    0    0    0  0.00000000000E+00  0.00000000000E+00  0.45593999997E+02  0.45594000000E+02  0.51100000000E-03 0.  1.
         11   -1    0    0    0    0 -0.00000000000E+00 -0.00000000000E+00 -0.45593999997E+02  0.45594000000E+02  0.51100000000E-03 0. -1.
    9900012    2    1    2    0    0 -0.15387412911E+01  0.29268049495E+02  0.12559301260E+02  0.59301913785E+02  0.49999944844E+02 0.  0.
         12    1    1    2    0    0  0.15387412911E+01 -0.29268049495E+02 -0.12559301260E+02  0.31886086215E+02  0.00000000000E+00 0. -1.
         11    1    3    3    0    0 -0.19656204999E+01  0.15685550498E+02 -0.14461014597E+02  0.21424777754E+02  0.51100000000E-03 0. -1.
        -11    1    3    3    0    0  0.85370591652E+01  0.15860747217E+02  0.16782966883E+02  0.24619355376E+02  0.51100000000E-03 0.  1.
        -12    1    3    3    0    0 -0.81101799564E+01 -0.22782482206E+01  0.10237348973E+02  0.13257780654E+02  0.00000000000E+00 0.  1.
</event>
<event>
 7    1  0.7578565E-012  0.5930209E+02  0.7816164E-02  0.1266604E+00
        -11   -1    0    0    0    0  0.00000000000E+00  0.00000000000E+00  0.45593999997E+02  0.45594000000E+02  0.51100000000E-03 0.  1.
         11   -1    0    0    0    0 -0.00000000000E+00 -0.00000000000E+00 -0.45593999997E+02  0.45594000000E+02  0.51100000000E-03 0. -1.
    9900012    2    1    2    0    0  0.26093291037E+02 -0.14802981573E+02  0.10803840924E+02  0.59302092779E+02  0.50000271287E+02 0.  0.
         12    1    1    2    0    0 -0.26093291037E+02  0.14802981573E+02 -0.10803840924E+02  0.31885907221E+02  0.00000000000E+00 0. -1.
         11    1    3    3    0    0 -0.41414539900E+01 -0.17500571651E+02 -0.42362572084E+01  0.18476133920E+02  0.51100000000E-03 0. -1.
        -11    1    3    3    0    0  0.26928686272E+02  0.43905907835E+01  0.21018528983E+01  0.27365109494E+02  0.51100000000E-03 0.  1.
        -12    1    3    3    0    0  0.33060587546E+01 -0.16930007057E+01  0.12938245234E+02  0.13460849365E+02  0.00000000000E+00 0.  1.
</event>
<event>
 7    1  0.7578565E-012  0.5930193E+02  0.7816164E-02  0.1266605E+00
        -11   -1    0    0    0    0  0.00000000000E+00  0.00000000000E+00  0.45593999997E+02  0.45594000000E+02  0.51100000000E-03 0.  1.
         11   -1    0    0    0    0 -0.00000000000E+00 -0.00000000000E+00 -0.45593999997E+02  0.45594000000E+02  0.51100000000E-03 0. -1.
    9900012    2    1    2    0    0 -0.25920803824E+02  0.20413890660E+01 -0.18457150702E+02  0.59301925418E+02  0.49999966061E+02 0.  0.
         12    1    1    2    0    0  0.25920803824E+02 -0.20413890660E+01  0.18457150702E+02  0.31886074582E+02  0.00000000000E+00 0. -1.
         11    1    3    3    0    0 -0.22853447444E+02  0.23373650511E+02 -0.13835939462E+02  0.35497053671E+02  0.51100000000E-03 0. -1.
        -11    1    3    3    0    0 -0.19663785015E+01 -0.12841320526E+02  0.17829028240E+01  0.13112776212E+02  0.51100000000E-03 0.  1.
         12    1    3    3    0    0 -0.11009778783E+01 -0.84909409189E+01 -0.64041140646E+01  0.10692095535E+02  0.00000000000E+00 0. -1.
</event>
<event>
 7    1  0.7578565E-012  0.5930192E+02  0.7816164E-02  0.1266605E+00
        -11   -1    0    0    0    0  0.00000000000E+00  0.00000000000E+00  0.45593999997E+02  0.45594000000E+02  0.51100000000E-03 0. -1.
         11   -1    0    0    0    0 -0.00000000000E+00 -0.00000000000E+00 -0.45593999997E+02  0.45594000000E+02  0.51100000000E-03 0.  1.
    9900012    2    1    2    0    0 -0.30870608655E+01  0.24106397476E+02 -0.20641557137E+02  0.59301918004E+02  0.49999952538E+02 0.  0.
         12    1    1    2    0    0  0.30870608655E+01 -0.24106397476E+02  0.20641557137E+02  0.31886081996E+02  0.00000000000E+00 0. -1.
         11    1    3    3    0    0  0.11892846972E+01  0.34042167881E+02 -0.14194942575E+02  0.36902303277E+02  0.51100000000E-03 0. -1.
        -11    1    3    3    0    0 -0.56974801716E+01 -0.10106501530E+01 -0.10887697424E+02  0.12329827635E+02  0.51100000000E-03 0.  1.
         12    1    3    3    0    0  0.14211346089E+01 -0.89251202524E+01  0.44410828622E+01  0.10069787092E+02  0.00000000000E+00 0. -1.
</event>
<event>
 7    1  0.7578565E-012  0.5930196E+02  0.7816164E-02  0.1266605E+00
        -11   -1    0    0    0    0  0.00000000000E+00  0.00000000000E+00  0.45593999997E+02  0.45594000000E+02  0.51100000000E-03 0. -1.
         11   -1    0    0    0    0 -0.00000000000E+00 -0.00000000000E+00 -0.45593999997E+02  0.45594000000E+02  0.51100000000E-03 0.  1.
    9900012    2    1    2    0    0 -0.16547087857E+02  0.74231859572E+01 -0.26226124138E+02  0.59301962404E+02  0.50000033514E+02 0.  0.
         12    1    1    2    0    0  0.16547087857E+02 -0.74231859572E+01  0.26226124138E+02  0.31886037596E+02  0.00000000000E+00 0. -1.
         11    1    3    3    0    0  0.15203516373E+02  0.29004636432E+01 -0.13065487129E+02  0.20255037735E+02  0.51100000000E-03 0. -1.
        -11    1    3    3    0    0 -0.17738323818E+02  0.11047110901E+02 -0.10413349552E+02  0.23347904409E+02  0.51100000000E-03 0.  1.
         12    1    3    3    0    0 -0.14012280411E+02 -0.65243885868E+01 -0.27472874566E+01  0.15699020260E+02  0.00000000000E+00 0. -1.
</event>
<event>
 7    1  0.7578565E-012  0.5930193E+02  0.7816164E-02  0.1266605E+00
        -11   -1    0    0    0    0  0.00000000000E+00  0.00000000000E+00  0.45593999997E+02  0.45594000000E+02  0.51100000000E-03 0. -1.
         11   -1    0    0    0    0 -0.00000000000E+00 -0.00000000000E+00 -0.45593999997E+02  0.45594000000E+02  0.51100000000E-03 0.  1.
    9900012    2    1    2    0    0 -0.13794369887E+02  0.27865664446E+02 -0.70669292789E+01  0.59301931176E+02  0.49999976561E+02 0.  0.
         12    1    1    2    0    0  0.13794369887E+02 -0.27865664446E+02  0.70669292789E+01  0.31886068824E+02  0.00000000000E+00 0. -1.
         11    1    3    3    0    0 -0.31738264514E+02  0.10136195949E+02 -0.46539403094E+01  0.33641032436E+02  0.51100000000E-03 0.  1.
        -11    1    3    3    0    0  0.15838757090E+02  0.17188692438E+02 -0.21743768070E+01  0.23474353850E+02  0.51100000000E-03 0. -1.
        -12    1    3    3    0    0  0.21051375367E+01  0.54077605868E+00 -0.23861216255E+00  0.21865448905E+01  0.00000000000E+00 0.  1.
</event>
<event>
 7    1  0.7578565E-012  0.5930204E+02  0.7816164E-02  0.1266604E+00
        -11   -1    0    0    0    0  0.00000000000E+00  0.00000000000E+00  0.45593999997E+02  0.45594000000E+02  0.51100000000E-03 0.  1.
         11   -1    0    0    0    0 -0.00000000000E+00 -0.00000000000E+00 -0.45593999997E+02  0.45594000000E+02  0.51100000000E-03 0. -1.
    9900012    2    1    2    0    0  0.12462463117E+02 -0.28871775301E+02  0.52746533232E+01  0.59302041278E+02  0.50000177360E+02 0.  0.
         12    1    1    2    0    0 -0.12462463117E+02  0.28871775301E+02 -0.52746533232E+01  0.31885958722E+02  0.00000000000E+00 0. -1.
         11    1    3    3    0    0 -0.51780943912E+01 -0.66456977467E+01 -0.57658270211E+01  0.10208953010E+02  0.51100000000E-03 0. -1.
        -11    1    3    3    0    0  0.26244503569E+02 -0.23439880359E+02  0.16465033273E+02  0.38849701154E+02  0.51100000000E-03 0.  1.
        -12    1    3    3    0    0 -0.86039460615E+01  0.12138028046E+01 -0.54245529283E+01  0.10243387113E+02  0.00000000000E+00 0.  1.
</event>
<event>
 7    1  0.7578565E-012  0.5930195E+02  0.7816164E-02  0.1266605E+00
        -11   -1    0    0    0    0  0.00000000000E+00  0.00000000000E+00  0.45593999997E+02  0.45594000000E+02  0.51100000000E-03 0.  1.
         11   -1    0    0    0    0 -0.00000000000E+00 -0.00000000000E+00 -0.45593999997E+02  0.45594000000E+02  0.51100000000E-03 0. -1.
    9900012    2    1    2    0    0  0.27455675077E+02  0.50880180569E+01  0.15395397105E+02  0.59301948603E+02  0.50000008344E+02 0.  0.
         12    1    1    2    0    0 -0.27455675077E+02 -0.50880180569E+01 -0.15395397105E+02  0.31886051397E+02  0.00000000000E+00 0. -1.
         11    1    3    3    0    0 -0.10070026474E+02 -0.63673616207E+01  0.75125666739E+01  0.14085005697E+02  0.51100000000E-03 0. -1.
        -11    1    3    3    0    0  0.16308947280E+02  0.46888840324E+01  0.14135991732E+02  0.22086051194E+02  0.51100000000E-03 0.  1.
         12    1    3    3    0    0  0.21216754271E+02  0.67664956452E+01 -0.62531613015E+01  0.23130891712E+02  0.00000000000E+00 0. -1.
</event>
<event>
 7    1  0.8174672E-012  0.5930195E+02  0.7816164E-02  0.1266605E+00
        -11   -1    0    0    0    0  0.00000000000E+00  0.00000000000E+00  0.45593999997E+02  0.45594000000E+02  0.51100000000E-03 0.  1.
         11   -1    0    0    0    0 -0.00000000000E+00 -0.00000000000E+00 -0.45593999997E+02  0.45594000000E+02  0.51100000000E-03 0. -1.
    9900012    2    1    2    0    0  0.94915829132E+01  0.30073679956E+02  0.47121139257E+01  0.59301946780E+02  0.50000005020E+02 0.  0.
         12    1    1    2    0    0 -0.94915829132E+01 -0.30073679956E+02 -0.47121139257E+01  0.31886053220E+02  0.00000000000E+00 0. -1.
         11    1    3    3    0    0  0.79765835318E+01 -0.51011549370E+01  0.15572839752E+02  0.18225284764E+02  0.51100000000E-03 0. -1.
        -11    1    3    3    0    0  0.55336750200E+01  0.18770020923E+02  0.22468806298E+01  0.19697302290E+02  0.51100000000E-03 0.  1.
         12    1    3    3    0    0 -0.40186756386E+01  0.16404813969E+02 -0.13107606457E+02  0.21379359726E+02  0.00000000000E+00 0. -1.
</event>
<event>
 7    1  0.7578565E-012  0.5930195E+02  0.7816164E-02  0.1266605E+00
        -11   -1    0    0    0    0  0.00000000000E+00  0.00000000000E+00  0.45593999997E+02  0.45594000000E+02  0.51100000000E-03 0.  1.
         11   -1    0    0    0    0 -0.00000000000E+00 -0.00000000000E+00 -0.45593999997E+02  0.45594000000E+02  0.51100000000E-03 0. -1.
    9900012    2    1    2    0    0  0.16328196996E+01  0.45199893528E+01  0.31521802662E+02  0.59301945886E+02  0.50000003388E+02 0.  0.
         12    1    1    2    0    0 -0.16328196996E+01 -0.45199893528E+01 -0.31521802662E+02  0.31886054114E+02  0.00000000000E+00 0. -1.
         11    1    3    3    0    0 -0.14607252985E+02 -0.90296154511E+01  0.54296010893E+01  0.18010729113E+02  0.51100000000E-03 0. -1.
        -11    1    3    3    0    0  0.17431019032E+02  0.22852757375E+01  0.24035889903E+02  0.29778967635E+02  0.51100000000E-03 0.  1.
         12    1    3    3    0    0 -0.11909463474E+01  0.11264329066E+02  0.20563116694E+01  0.11512249137E+02  0.00000000000E+00 0. -1.
</event>
<event>
 7    1  0.7578565E-012  0.5930194E+02  0.7816164E-02  0.1266605E+00
        -11   -1    0    0    0    0  0.00000000000E+00  0.00000000000E+00  0.45593999997E+02  0.45594000000E+02  0.51100000000E-03 0.  1.
         11   -1    0    0    0    0 -0.00000000000E+00 -0.00000000000E+00 -0.45593999997E+02  0.45594000000E+02  0.51100000000E-03 0. -1.
    9900012    2    1    2    0    0 -0.30671414114E+02 -0.84370445961E+01 -0.21911601076E+01  0.59301944303E+02  0.50000000502E+02 0.  0.
         12    1    1    2    0    0  0.30671414114E+02  0.84370445961E+01  0.21911601076E+01  0.31886055697E+02  0.00000000000E+00 0. -1.
         11    1    3    3    0    0  0.85954951898E+01 -0.40774369886E+01 -0.17249251732E+01  0.96686812477E+01  0.51100000000E-03 0. -1.
        -11    1    3    3    0    0 -0.35449206577E+02 -0.14252552245E+02 -0.40941323130E+01  0.38425816999E+02  0.51100000000E-03 0.  1.
        -12    1    3    3    0    0 -0.38177027271E+01  0.98929446373E+01  0.36278973786E+01  0.11207446056E+02  0.00000000000E+00 0.  1.
</event>
<event>
 7    1  0.7578565E-012  0.5930198E+02  0.7816164E-02  0.1266605E+00
        -11   -1    0    0    0    0  0.00000000000E+00  0.00000000000E+00  0.45593999997E+02  0.45594000000E+02  0.51100000000E-03 0.  1.
         11   -1    0    0    0    0 -0.00000000000E+00 -0.00000000000E+00 -0.45593999997E+02  0.45594000000E+02  0.51100000000E-03 0. -1.
    9900012    2    1    2    0    0 -0.22738716840E+02  0.59134269465E+01  0.21556915744E+02  0.59301976758E+02  0.50000059693E+02 0.  0.
         12    1    1    2    0    0  0.22738716840E+02 -0.59134269465E+01 -0.21556915744E+02  0.31886023242E+02  0.00000000000E+00 0. -1.
         11    1    3    3    0    0 -0.16762615335E+02  0.16083646286E+02  0.15072099005E+02  0.27691824053E+02  0.51100000000E-03 0.  1.
        -11    1    3    3    0    0  0.10988939887E+02 -0.56014076976E+01 -0.12817398712E+01  0.12400621976E+02  0.51100000000E-03 0. -1.
         12    1    3    3    0    0 -0.16965041392E+02 -0.45688116415E+01  0.77665566101E+01  0.19209530729E+02  0.00000000000E+00 0. -1.
</event>
<event>
 7    1  0.7578565E-012  0.5930194E+02  0.7816164E-02  0.1266605E+00
        -11   -1    0    0    0    0  0.00000000000E+00  0.00000000000E+00  0.45593999997E+02  0.45594000000E+02  0.51100000000E-03 0. -1.
         11   -1    0    0    0    0 -0.00000000000E+00 -0.00000000000E+00 -0.45593999997E+02  0.45594000000E+02  0.51100000000E-03 0.  1.
    9900012    2    1    2    0    0  0.33943033877E+01 -0.31653166594E+02  0.18102076460E+01  0.59301935605E+02  0.49999984638E+02 0.  0.
         12    1    1    2    0    0 -0.33943033877E+01  0.31653166594E+02 -0.18102076460E+01  0.31886064395E+02  0.00000000000E+00 0. -1.
         11    1    3    3    0    0  0.19649367176E+01  0.22502720244E+01  0.33330431728E+01  0.44759219766E+01  0.51100000000E-03 0. -1.
        -11    1    3    3    0    0 -0.14875889453E+01 -0.41516612049E+02 -0.10346648944E+02  0.42812324646E+02  0.51100000000E-03 0.  1.
        -12    1    3    3    0    0  0.29169556153E+01  0.76131734313E+01  0.88238134167E+01  0.12013688983E+02  0.00000000000E+00 0.  1.
</event>
<event>
 7    1  0.7578565E-012  0.5930193E+02  0.7816164E-02  0.1266605E+00
        -11   -1    0    0    0    0  0.00000000000E+00  0.00000000000E+00  0.45593999997E+02  0.45594000000E+02  0.51100000000E-03 0.  1.
         11   -1    0    0    0    0 -0.00000000000E+00 -0.00000000000E+00 -0.45593999997E+02  0.45594000000E+02  0.51100000000E-03 0. -1.
    9900012    2    1    2    0    0  0.20906474586E+02  0.23887566377E+02  0.30041458724E+01  0.59301930950E+02  0.49999976150E+02 0.  0.
         12    1    1    2    0    0 -0.20906474586E+02 -0.23887566377E+02 -0.30041458724E+01  0.31886069050E+02  0.00000000000E+00 0. -1.
         11    1    3    3    0    0  0.14785653361E+02  0.19036424066E+02 -0.59738523952E+01  0.24833201550E+02  0.51100000000E-03 0. -1.
        -11    1    3    3    0    0 -0.52801996179E+01 -0.45335586412E+01  0.16491949097E+02  0.17900224782E+02  0.51100000000E-03 0.  1.
         12    1    3    3    0    0  0.11401020843E+02  0.93847009524E+01 -0.75139508294E+01  0.16568504618E+02  0.00000000000E+00 0. -1.
</event>
<event>
 7    1  0.7578565E-012  0.5930194E+02  0.7816164E-02  0.1266605E+00
        -11   -1    0    0    0    0  0.00000000000E+00  0.00000000000E+00  0.45593999997E+02  0.45594000000E+02  0.51100000000E-03 0.  1.
         11   -1    0    0    0    0 -0.00000000000E+00 -0.00000000000E+00 -0.45593999997E+02  0.45594000000E+02  0.51100000000E-03 0. -1.
    9900012    2    1    2    0    0 -0.28492531159E+02  0.97903953344E+01  0.10442447793E+02  0.59301938961E+02  0.49999990760E+02 0.  0.
         12    1    1    2    0    0  0.28492531159E+02 -0.97903953344E+01 -0.10442447793E+02  0.31886061039E+02  0.00000000000E+00 0. -1.
         11    1    3    3    0    0 -0.35690880777E+02  0.10428999709E+02 -0.24112011023E+01  0.37261466645E+02  0.51100000000E-03 0. -1.
        -11    1    3    3    0    0  0.65788927084E+01  0.63402318732E+01  0.11848911175E+02  0.14962522039E+02  0.51100000000E-03 0.  1.
        -12    1    3    3    0    0  0.61945690895E+00 -0.69788362477E+01  0.10047377201E+01  0.70779502768E+01  0.00000000000E+00 0.  1.
</event>
<event>
 7    1  0.7578565E-012  0.5930193E+02  0.7816164E-02  0.1266605E+00
        -11   -1    0    0    0    0  0.00000000000E+00  0.00000000000E+00  0.45593999997E+02  0.45594000000E+02  0.51100000000E-03 0. -1.
         11   -1    0    0    0    0 -0.00000000000E+00 -0.00000000000E+00 -0.45593999997E+02  0.45594000000E+02  0.51100000000E-03 0.  1.
    9900012    2    1    2    0    0  0.31432425085E+02  0.53521761141E+01  0.27972548807E+00  0.59301931220E+02  0.49999976642E+02 0.  0.
         12    1    1    2    0    0 -0.31432425085E+02 -0.53521761141E+01 -0.27972548807E+00  0.31886068780E+02  0.00000000000E+00 0. -1.
         11    1    3    3    0    0  0.49615713078E+01  0.12249474001E+02 -0.18710376163E+02  0.22907312797E+02  0.51100000000E-03 0. -1.
        -11    1    3    3    0    0  0.35667587849E+01  0.42307465586E+01  0.41972475323E+01  0.69453489316E+01  0.51100000000E-03 0.  1.
         12    1    3    3    0    0  0.22904094992E+02 -0.11128044446E+02  0.14792854119E+02  0.29449269492E+02  0.00000000000E+00 0. -1.
</event>
<event>
 7    1  0.9200522E-012  0.5930196E+02  0.7816164E-02  0.1266605E+00
        -11   -1    0    0    0    0  0.00000000000E+00  0.00000000000E+00  0.45593999997E+02  0.45594000000E+02  0.51100000000E-03 0.  1.
         11   -1    0    0    0    0 -0.00000000000E+00 -0.00000000000E+00 -0.45593999997E+02  0.45594000000E+02  0.51100000000E-03 0. -1.
    9900012    2    1    2    0    0  0.21799526038E+02  0.13898412660E+02  0.18663712150E+02  0.59301962912E+02  0.50000034440E+02 0.  0.
         12    1    1    2    0    0 -0.21799526038E+02 -0.13898412660E+02 -0.18663712150E+02  0.31886037088E+02  0.00000000000E+00 0. -1.
         11    1    3    3    0    0  0.12768569052E+02 -0.12012024515E+02  0.41177354150E+01  0.18007799249E+02  0.51100000000E-03 0.  1.
        -11    1    3    3    0    0 -0.61104591939E+01  0.16274046397E+02  0.15542868329E+02  0.23318727534E+02  0.51100000000E-03 0. -1.
         12    1    3    3    0    0  0.15141416180E+02  0.96363907786E+01 -0.99689159358E+00  0.17975436129E+02  0.00000000000E+00 0. -1.
</event>
<event>
 7    1  0.7578565E-012  0.5930206E+02  0.7816164E-02  0.1266604E+00
        -11   -1    0    0    0    0  0.00000000000E+00  0.00000000000E+00  0.45593999997E+02  0.45594000000E+02  0.51100000000E-03 0.  1.
         11   -1    0    0    0    0 -0.00000000000E+00 -0.00000000000E+00 -0.45593999997E+02  0.45594000000E+02  0.51100000000E-03 0. -1.
    9900012    2    1    2    0    0  0.96600167696E+01  0.29067006761E+02 -0.88603831953E+01  0.59302059581E+02  0.50000210740E+02 0.  0.
         12    1    1    2    0    0 -0.96600167696E+01 -0.29067006761E+02  0.88603831953E+01  0.31885940419E+02  0.00000000000E+00 0. -1.
         11    1    3    3    0    0 -0.24613629147E+01  0.11293313019E+02 -0.17431454656E+02  0.20915373246E+02  0.51100000000E-03 0. -1.
        -11    1    3    3    0    0  0.13105945608E+02  0.41307267311E+00  0.14931193596E+02  0.19871511814E+02  0.51100000000E-03 0.  1.
        -12    1    3    3    0    0 -0.98456592344E+00  0.17360621070E+02 -0.63601221351E+01  0.18515174521E+02  0.00000000000E+00 0.  1.
</event>
<event>
 7    1  0.7578565E-012  0.5930194E+02  0.7816164E-02  0.1266605E+00
        -11   -1    0    0    0    0  0.00000000000E+00  0.00000000000E+00  0.45593999997E+02  0.45594000000E+02  0.51100000000E-03 0. -1.
         11   -1    0    0    0    0 -0.00000000000E+00 -0.00000000000E+00 -0.45593999997E+02  0.45594000000E+02  0.51100000000E-03 0.  1.
    9900012    2    1    2    0    0  0.21326255404E+01 -0.11902407820E+02 -0.29504329030E+02  0.59301939799E+02  0.49999992289E+02 0.  0.
         12    1    1    2    0    0 -0.21326255404E+01  0.11902407820E+02  0.29504329030E+02  0.31886060201E+02  0.00000000000E+00 0. -1.
         11    1    3    3    0    0 -0.16955353042E+02 -0.20265879106E+02 -0.13998596755E+02  0.29902350478E+02  0.51100000000E-03 0.  1.
        -11    1    3    3    0    0  0.34342691350E+01 -0.33603588405E+01 -0.66857109830E+00  0.48511033387E+01  0.51100000000E-03 0. -1.
         12    1    3    3    0    0  0.15653709447E+02  0.11723830127E+02 -0.14837161176E+02  0.24548485983E+02  0.00000000000E+00 0. -1.
</event>
<event>
 7    1  0.7578565E-012  0.5930197E+02  0.7816164E-02  0.1266605E+00
        -11   -1    0    0    0    0  0.00000000000E+00  0.00000000000E+00  0.45593999997E+02  0.45594000000E+02  0.51100000000E-03 0. -1.
         11   -1    0    0    0    0 -0.00000000000E+00 -0.00000000000E+00 -0.45593999997E+02  0.45594000000E+02  0.51100000000E-03 0.  1.
    9900012    2    1    2    0    0 -0.22797039728E+02 -0.22290174376E+02  0.40257732026E+00  0.59301969162E+02  0.50000045839E+02 0.  0.
         12    1    1    2    0    0  0.22797039728E+02  0.22290174376E+02 -0.40257732026E+00  0.31886030838E+02  0.00000000000E+00 0. -1.
         11    1    3    3    0    0 -0.18102726022E+01 -0.23463065661E+01  0.76787082583E+01  0.82307230651E+01  0.51100000000E-03 0. -1.
        -11    1    3    3    0    0 -0.31993916881E+02 -0.71990942430E+01 -0.93582204526E+01  0.34102990567E+02  0.51100000000E-03 0.  1.
        -12    1    3    3    0    0  0.11007149755E+02 -0.12744773567E+02  0.20820895146E+01  0.16968255531E+02  0.00000000000E+00 0.  1.
</event>
<event>
 7    1  0.7578565E-012  0.5930201E+02  0.7816164E-02  0.1266605E+00
        -11   -1    0    0    0    0  0.00000000000E+00  0.00000000000E+00  0.45593999997E+02  0.45594000000E+02  0.51100000000E-03 0. -1.
         11   -1    0    0    0    0 -0.00000000000E+00 -0.00000000000E+00 -0.45593999997E+02  0.45594000000E+02  0.51100000000E-03 0.  1.
    9900012    2    1    2    0    0  0.11271069931E+02  0.39640108101E+00 -0.29824855839E+02  0.59302012842E+02  0.50000125501E+02 0.  0.
         12    1    1    2    0    0 -0.11271069931E+02 -0.39640108101E+00  0.29824855839E+02  0.31885987158E+02  0.00000000000E+00 0. -1.
         11    1    3    3    0    0  0.21789669253E+02 -0.58323568265E+01 -0.22646100600E+01  0.22670124201E+02  0.51100000000E-03 0. -1.
        -11    1    3    3    0    0 -0.15414691692E+02 -0.33389621419E+00 -0.14192734960E+02  0.20956095356E+02  0.51100000000E-03 0.  1.
         12    1    3    3    0    0  0.48960923697E+01  0.65626541217E+01 -0.13367510819E+02  0.15675793285E+02  0.00000000000E+00 0. -1.
</event>
<event>
 7    1  0.7578565E-012  0.5930203E+02  0.7816164E-02  0.1266604E+00
        -11   -1    0    0    0    0  0.00000000000E+00  0.00000000000E+00  0.45593999997E+02  0.45594000000E+02  0.51100000000E-03 0.  1.
         11   -1    0    0    0    0 -0.00000000000E+00 -0.00000000000E+00 -0.45593999997E+02  0.45594000000E+02  0.51100000000E-03 0. -1.
    9900012    2    1    2    0    0 -0.18025105054E+02 -0.21163775305E+02  0.15617458558E+02  0.59302034291E+02  0.50000164619E+02 0.  0.
         12    1    1    2    0    0  0.18025105054E+02  0.21163775305E+02 -0.15617458558E+02  0.31885965709E+02  0.00000000000E+00 0. -1.
         11    1    3    3    0    0 -0.24431443159E+02  0.62744761301E+01 -0.59746242293E+00  0.25231358012E+02  0.51100000000E-03 0. -1.
        -11    1    3    3    0    0  0.26172629837E+01 -0.51399812524E+01  0.83009707223E+01  0.10108194102E+02  0.51100000000E-03 0.  1.
         12    1    3    3    0    0  0.37890751212E+01 -0.22298270183E+02  0.79139502586E+01  0.23962482177E+02  0.00000000000E+00 0. -1.
</event>
<event>
 7    1  0.7578565E-012  0.5930195E+02  0.7816164E-02  0.1266605E+00
        -11   -1    0    0    0    0  0.00000000000E+00  0.00000000000E+00  0.45593999997E+02  0.45594000000E+02  0.51100000000E-03 0. -1.
         11   -1    0    0    0    0 -0.00000000000E+00 -0.00000000000E+00 -0.45593999997E+02  0.45594000000E+02  0.51100000000E-03 0.  1.
    9900012    2    1    2    0    0 -0.19697860660E+02 -0.33932072361E+00 -0.25071889557E+02  0.59301945069E+02  0.50000001899E+02 0.  0.
         12    1    1    2    0    0  0.19697860660E+02  0.33932072361E+00  0.25071889557E+02  0.31886054931E+02  0.00000000000E+00 0. -1.
         11    1    3    3    0    0 -0.17518715067E+02  0.61831581434E+01 -0.28022323154E+02  0.33621234620E+02  0.51100000000E-03 0. -1.
        -11    1    3    3    0    0 -0.28221305469E+01 -0.15361021405E+02 -0.16337623910E+01  0.15703330196E+02  0.51100000000E-03 0.  1.
         12    1    3    3    0    0  0.64298495400E+00  0.88385425381E+01  0.45841959879E+01  0.99773802525E+01  0.00000000000E+00 0. -1.
</event>
<event>
 7    1  0.7578565E-012  0.5930195E+02  0.7816164E-02  0.1266605E+00
        -11   -1    0    0    0    0  0.00000000000E+00  0.00000000000E+00  0.45593999997E+02  0.45594000000E+02  0.51100000000E-03 0. -1.
         11   -1    0    0    0    0 -0.00000000000E+00 -0.00000000000E+00 -0.45593999997E+02  0.45594000000E+02  0.51100000000E-03 0.  1.
    9900012    2    1    2    0    0 -0.12842505267E+02  0.28480687126E+02  0.63749844199E+01  0.59301954352E+02  0.50000018829E+02 0.  0.
         12    1    1    2    0    0  0.12842505267E+02 -0.28480687126E+02 -0.63749844199E+01  0.31886045648E+02  0.00000000000E+00 0. -1.
         11    1    3    3    0    0 -0.16370862572E+02 -0.91950074907E+01 -0.48332864354E+01  0.19388500771E+02  0.51100000000E-03 0. -1.
        -11    1    3    3    0    0  0.16493663639E+01  0.12382949360E+02  0.86247552330E+00  0.12522048895E+02  0.51100000000E-03 0.  1.
         12    1    3    3    0    0  0.18789909417E+01  0.25292745257E+02  0.10345795332E+02  0.27391404686E+02  0.00000000000E+00 0. -1.
</event>
<event>
 7    1  0.7578565E-012  0.5930196E+02  0.7816164E-02  0.1266605E+00
        -11   -1    0    0    0    0  0.00000000000E+00  0.00000000000E+00  0.45593999997E+02  0.45594000000E+02  0.51100000000E-03 0.  1.
         11   -1    0    0    0    0 -0.00000000000E+00 -0.00000000000E+00 -0.45593999997E+02  0.45594000000E+02  0.51100000000E-03 0. -1.
    9900012    2    1    2    0    0 -0.17407000838E+02 -0.11625234000E+02  0.24053473334E+02  0.59301963508E+02  0.50000035528E+02 0.  0.
         12    1    1    2    0    0  0.17407000838E+02  0.11625234000E+02 -0.24053473334E+02  0.31886036492E+02  0.00000000000E+00 0. -1.
         11    1    3    3    0    0 -0.15745536338E+02 -0.27760523630E+02  0.22160532466E+02  0.38854314898E+02  0.51100000000E-03 0. -1.
        -11    1    3    3    0    0 -0.18694701997E+00  0.22243622566E+01  0.55555798640E+01  0.59872535042E+01  0.51100000000E-03 0.  1.
         12    1    3    3    0    0 -0.14745174802E+01  0.13910927374E+02 -0.36626389962E+01  0.14460395106E+02  0.00000000000E+00 0. -1.
</event>
<event>
 7    1  0.7578565E-012  0.5930178E+02  0.7816164E-02  0.1266605E+00
        -11   -1    0    0    0    0  0.00000000000E+00  0.00000000000E+00  0.45593999997E+02  0.45594000000E+02  0.51100000000E-03 0. -1.
         11   -1    0    0    0    0 -0.00000000000E+00 -0.00000000000E+00 -0.45593999997E+02  0.45594000000E+02  0.51100000000E-03 0.  1.
    9900012    2    1    2    0    0 -0.63704529484E+01 -0.19956202438E+01 -0.31179574745E+02  0.59301779587E+02  0.49999700099E+02 0.  0.
         12    1    1    2    0    0  0.63704529484E+01  0.19956202438E+01  0.31179574745E+02  0.31886220413E+02  0.00000000000E+00 0. -1.
         11    1    3    3    0    0 -0.30588372842E+01  0.10103257671E+02  0.58138415545E+01  0.12051267775E+02  0.51100000000E-03 0. -1.
        -11    1    3    3    0    0 -0.13492395309E+02 -0.13436088197E+02 -0.25724137793E+02  0.32004756876E+02  0.51100000000E-03 0.  1.
        -12    1    3    3    0    0  0.10180779645E+02  0.13372102820E+01 -0.11269278507E+02  0.15245754936E+02  0.00000000000E+00 0.  1.
</event>
<event>
 7    1  0.7578565E-012  0.5930195E+02  0.7816164E-02  0.1266605E+00
        -11   -1    0    0    0    0  0.00000000000E+00  0.00000000000E+00  0.45593999997E+02  0.45594000000E+02  0.51100000000E-03 0. -1.
         11   -1    0    0    0    0 -0.00000000000E+00 -0.00000000000E+00 -0.45593999997E+02  0.45594000000E+02  0.51100000000E-03 0.  1.
    9900012    2    1    2    0    0  0.23634067676E+02 -0.21332107237E+02  0.17584476374E+01  0.59301951449E+02  0.50000013535E+02 0.  0.
         12    1    1    2    0    0 -0.23634067676E+02  0.21332107237E+02 -0.17584476374E+01  0.31886048551E+02  0.00000000000E+00 0. -1.
         11    1    3    3    0    0 -0.12324562339E+02  0.17248000741E+01  0.73108161028E+01  0.14433218785E+02  0.51100000000E-03 0. -1.
        -11    1    3    3    0    0  0.15566692936E+02 -0.99737433401E+01  0.38425646608E+01  0.18882870243E+02  0.51100000000E-03 0.  1.
         12    1    3    3    0    0  0.20391937079E+02 -0.13083163971E+02 -0.93949331262E+01  0.25985862421E+02  0.00000000000E+00 0. -1.
</event>
<event>
 7    1  0.7578565E-012  0.5930185E+02  0.7816164E-02  0.1266605E+00
        -11   -1    0    0    0    0  0.00000000000E+00  0.00000000000E+00  0.45593999997E+02  0.45594000000E+02  0.51100000000E-03 0. -1.
         11   -1    0    0    0    0 -0.00000000000E+00 -0.00000000000E+00 -0.45593999997E+02  0.45594000000E+02  0.51100000000E-03 0.  1.
    9900012    2    1    2    0    0 -0.63248387304E+01 -0.13816984176E+02 -0.28032378099E+02  0.59301845346E+02  0.49999820028E+02 0.  0.
         12    1    1    2    0    0  0.63248387304E+01  0.13816984176E+02  0.28032378099E+02  0.31886154654E+02  0.00000000000E+00 0. -1.
         11    1    3    3    0    0 -0.64227962350E+01  0.10017219858E+02 -0.10416278746E+02  0.15814419633E+02  0.51100000000E-03 0. -1.
        -11    1    3    3    0    0  0.67123439196E+01 -0.28904118041E+02 -0.79402127539E+01  0.30717268425E+02  0.51100000000E-03 0.  1.
        -12    1    3    3    0    0 -0.66143864150E+01  0.50699140066E+01 -0.96758866000E+01  0.12770157289E+02  0.00000000000E+00 0.  1.
</event>
<event>
 7    1  0.7578565E-012  0.5930196E+02  0.7816164E-02  0.1266605E+00
        -11   -1    0    0    0    0  0.00000000000E+00  0.00000000000E+00  0.45593999997E+02  0.45594000000E+02  0.51100000000E-03 0.  1.
         11   -1    0    0    0    0 -0.00000000000E+00 -0.00000000000E+00 -0.45593999997E+02  0.45594000000E+02  0.51100000000E-03 0. -1.
    9900012    2    1    2    0    0  0.11475757998E+02  0.58508603606E+01  0.29168372839E+02  0.59301959752E+02  0.50000028678E+02 0.  0.
         12    1    1    2    0    0 -0.11475757998E+02 -0.58508603606E+01 -0.29168372839E+02  0.31886040248E+02  0.00000000000E+00 0. -1.
         11    1    3    3    0    0 -0.27983925250E+01 -0.45869117131E+01  0.14366757078E+02  0.15338659295E+02  0.51100000000E-03 0. -1.
        -11    1    3    3    0    0  0.17640528797E+02 -0.93795685171E+01  0.18805478087E+01  0.20067411944E+02  0.51100000000E-03 0.  1.
        -12    1    3    3    0    0 -0.33663782741E+01  0.19817340591E+02  0.12921067953E+02  0.23895888513E+02  0.00000000000E+00 0.  1.
</event>
<event>
 7    1  0.7578565E-012  0.5930195E+02  0.7816164E-02  0.1266605E+00
        -11   -1    0    0    0    0  0.00000000000E+00  0.00000000000E+00  0.45593999997E+02  0.45594000000E+02  0.51100000000E-03 0.  1.
         11   -1    0    0    0    0 -0.00000000000E+00 -0.00000000000E+00 -0.45593999997E+02  0.45594000000E+02  0.51100000000E-03 0. -1.
    9900012    2    1    2    0    0  0.18551833585E+02  0.25783430569E+02  0.27864652952E+01  0.59301949601E+02  0.50000010164E+02 0.  0.
         12    1    1    2    0    0 -0.18551833585E+02 -0.25783430569E+02 -0.27864652952E+01  0.31886050399E+02  0.00000000000E+00 0. -1.
         11    1    3    3    0    0  0.31141846742E+02  0.10590358274E+02  0.64648854753E+01  0.33522605079E+02  0.51100000000E-03 0. -1.
        -11    1    3    3    0    0 -0.36661652024E+01 -0.32328811232E+01  0.39849405122E+00  0.49041905976E+01  0.51100000000E-03 0.  1.
         12    1    3    3    0    0 -0.89238479547E+01  0.18425953418E+02 -0.40769142314E+01  0.20875153924E+02  0.00000000000E+00 0. -1.
</event>
<event>
 7    1  0.7578565E-012  0.5930198E+02  0.7816164E-02  0.1266605E+00
        -11   -1    0    0    0    0  0.00000000000E+00  0.00000000000E+00  0.45593999997E+02  0.45594000000E+02  0.51100000000E-03 0. -1.
         11   -1    0    0    0    0 -0.00000000000E+00 -0.00000000000E+00 -0.45593999997E+02  0.45594000000E+02  0.51100000000E-03 0.  1.
    9900012    2    1    2    0    0  0.21050144176E-02  0.12816647103E+02 -0.29196776286E+02  0.59301981232E+02  0.50000067851E+02 0.  0.
         12    1    1    2    0    0 -0.21050144176E-02 -0.12816647103E+02  0.29196776286E+02  0.31886018768E+02  0.00000000000E+00 0. -1.
         11    1    3    3    0    0  0.86287994022E+01 -0.45321445465E+01 -0.32733292709E+02  0.34153549817E+02  0.51100000000E-03 0.  1.
        -11    1    3    3    0    0 -0.11264037646E+02  0.14103932101E+02  0.73501323728E+01  0.19489071065E+02  0.51100000000E-03 0. -1.
         12    1    3    3    0    0  0.26373432584E+01  0.32448595478E+01 -0.38136159502E+01  0.56593603493E+01  0.00000000000E+00 0. -1.
</event>
<event>
 7    1  0.7578565E-012  0.5930193E+02  0.7816164E-02  0.1266605E+00
        -11   -1    0    0    0    0  0.00000000000E+00  0.00000000000E+00  0.45593999997E+02  0.45594000000E+02  0.51100000000E-03 0.  1.
         11   -1    0    0    0    0 -0.00000000000E+00 -0.00000000000E+00 -0.45593999997E+02  0.45594000000E+02  0.51100000000E-03 0. -1.
    9900012    2    1    2    0    0 -0.19079407695E+02 -0.25013418193E+02 -0.51987384501E+01  0.59301925153E+02  0.49999965576E+02 0.  0.
         12    1    1    2    0    0  0.19079407695E+02  0.25013418193E+02  0.51987384501E+01  0.31886074847E+02  0.00000000000E+00 0. -1.
         11    1    3    3    0    0 -0.66781636165E+01  0.53657341719E+01 -0.13826419371E+02  0.16265264996E+02  0.51100000000E-03 0. -1.
        -11    1    3    3    0    0 -0.81962088019E+01 -0.25439750650E+02 -0.56824563138E+01  0.27324879906E+02  0.51100000000E-03 0.  1.
        -12    1    3    3    0    0 -0.42050352761E+01 -0.49394017154E+01  0.14310137235E+02  0.15711780251E+02  0.00000000000E+00 0.  1.
</event>
<event>
 7    1  0.7578565E-012  0.5930196E+02  0.7816164E-02  0.1266605E+00
        -11   -1    0    0    0    0  0.00000000000E+00  0.00000000000E+00  0.45593999997E+02  0.45594000000E+02  0.51100000000E-03 0. -1.
         11   -1    0    0    0    0 -0.00000000000E+00 -0.00000000000E+00 -0.45593999997E+02  0.45594000000E+02  0.51100000000E-03 0.  1.
    9900012    2    1    2    0    0 -0.27353466380E+02 -0.32034487380E+01 -0.16070021095E+02  0.59301956269E+02  0.50000022324E+02 0.  0.
         12    1    1    2    0    0  0.27353466380E+02  0.32034487380E+01  0.16070021095E+02  0.31886043731E+02  0.00000000000E+00 0. -1.
         11    1    3    3    0    0  0.11258048020E+02  0.10436203687E+02 -0.26933236193E+01  0.15585633930E+02  0.51100000000E-03 0. -1.
        -11    1    3    3    0    0 -0.32981162516E+02 -0.87012204376E+01 -0.11492365942E+02  0.35993649345E+02  0.51100000000E-03 0.  1.
         12    1    3    3    0    0 -0.56303518842E+01 -0.49384319876E+01 -0.18843315342E+01  0.77226729936E+01  0.00000000000E+00 0. -1.
</event>
<event>
 7    1  0.7578565E-012  0.5930192E+02  0.7816164E-02  0.1266605E+00
        -11   -1    0    0    0    0  0.00000000000E+00  0.00000000000E+00  0.45593999997E+02  0.45594000000E+02  0.51100000000E-03 0. -1.
         11   -1    0    0    0    0 -0.00000000000E+00 -0.00000000000E+00 -0.45593999997E+02  0.45594000000E+02  0.51100000000E-03 0.  1.
    9900012    2    1    2    0    0 -0.18596485912E+02 -0.24203049029E+02 -0.92252536456E+01  0.59301918782E+02  0.49999953958E+02 0.  0.
         12    1    1    2    0    0  0.18596485912E+02  0.24203049029E+02  0.92252536456E+01  0.31886081218E+02  0.00000000000E+00 0. -1.
         11    1    3    3    0    0 -0.13812344456E+01 -0.44394707925E+01  0.10915139757E+02  0.11864104925E+02  0.51100000000E-03 0. -1.
        -11    1    3    3    0    0 -0.13113774600E+02 -0.18912451403E+02 -0.29363682836E+02  0.37307878153E+02  0.51100000000E-03 0.  1.
        -12    1    3    3    0    0 -0.41014768663E+01 -0.85112683398E+00  0.92232894341E+01  0.10129935704E+02  0.00000000000E+00 0.  1.
</event>
<event>
 7    1  0.7578565E-012  0.5930199E+02  0.7816164E-02  0.1266605E+00
        -11   -1    0    0    0    0  0.00000000000E+00  0.00000000000E+00  0.45593999997E+02  0.45594000000E+02  0.51100000000E-03 0.  1.
         11   -1    0    0    0    0 -0.00000000000E+00 -0.00000000000E+00 -0.45593999997E+02  0.45594000000E+02  0.51100000000E-03 0. -1.
    9900012    2    1    2    0    0 -0.63286532163E+01 -0.20660041543E+02  0.23448420055E+02  0.59301990981E+02  0.50000085632E+02 0.  0.
         12    1    1    2    0    0  0.63286532163E+01  0.20660041543E+02 -0.23448420055E+02  0.31886009019E+02  0.00000000000E+00 0. -1.
         11    1    3    3    0    0  0.29275994308E+01 -0.24352017363E+02  0.16675728332E+01  0.24583986403E+02  0.51100000000E-03 0. -1.
        -11    1    3    3    0    0 -0.14339369477E+01  0.11885473735E+02  0.23112176828E+01  0.12192718667E+02  0.51100000000E-03 0.  1.
         12    1    3    3    0    0 -0.78223156994E+01 -0.81934979146E+01  0.19469629539E+02  0.22525285910E+02  0.00000000000E+00 0. -1.
</event>
<event>
 7    1  0.7578565E-012  0.5930199E+02  0.7816164E-02  0.1266605E+00
        -11   -1    0    0    0    0  0.00000000000E+00  0.00000000000E+00  0.45593999997E+02  0.45594000000E+02  0.51100000000E-03 0. -1.
         11   -1    0    0    0    0 -0.00000000000E+00 -0.00000000000E+00 -0.45593999997E+02  0.45594000000E+02  0.51100000000E-03 0.  1.
    9900012    2    1    2    0    0  0.77320217176E+01 -0.52678397899E+01 -0.30482512115E+02  0.59301986754E+02  0.50000077922E+02 0.  0.
         12    1    1    2    0    0 -0.77320217176E+01  0.52678397899E+01  0.30482512115E+02  0.31886013246E+02  0.00000000000E+00 0. -1.
         11    1    3    3    0    0  0.10070092925E+02  0.14517705230E+02 -0.11254063541E+02  0.20948137939E+02  0.51100000000E-03 0. -1.
        -11    1    3    3    0    0 -0.13350429926E+02 -0.17294570474E+02 -0.11701119357E+02  0.24784114702E+02  0.51100000000E-03 0.  1.
        -12    1    3    3    0    0  0.11012358718E+02 -0.24909745460E+01 -0.75273292174E+01  0.13569734112E+02  0.00000000000E+00 0.  1.
</event>
<event>
 7    1  0.7578565E-012  0.5930194E+02  0.7816164E-02  0.1266605E+00
        -11   -1    0    0    0    0  0.00000000000E+00  0.00000000000E+00  0.45593999997E+02  0.45594000000E+02  0.51100000000E-03 0. -1.
         11   -1    0    0    0    0 -0.00000000000E+00 -0.00000000000E+00 -0.45593999997E+02  0.45594000000E+02  0.51100000000E-03 0.  1.
    9900012    2    1    2    0    0  0.34658922416E+01  0.29173689202E+02  0.12393721668E+02  0.59301938979E+02  0.49999990792E+02 0.  0.
         12    1    1    2    0    0 -0.34658922416E+01 -0.29173689202E+02 -0.12393721668E+02  0.31886061021E+02  0.00000000000E+00 0. -1.
         11    1    3    3    0    0  0.61577747546E+01  0.13072190932E+02  0.23383049514E+02  0.27487585753E+02  0.51100000000E-03 0. -1.
        -11    1    3    3    0    0 -0.70055363215E+01 -0.32710188411E+01 -0.90045310157E+01  0.11868390054E+02  0.51100000000E-03 0.  1.
        -12    1    3    3    0    0  0.43136538084E+01  0.19372517111E+02 -0.19847968305E+01  0.19945963171E+02  0.00000000000E+00 0.  1.
</event>
<event>
 7    1  0.7578565E-012  0.5930185E+02  0.7816164E-02  0.1266605E+00
        -11   -1    0    0    0    0  0.00000000000E+00  0.00000000000E+00  0.45593999997E+02  0.45594000000E+02  0.51100000000E-03 0. -1.
         11   -1    0    0    0    0 -0.00000000000E+00 -0.00000000000E+00 -0.45593999997E+02  0.45594000000E+02  0.51100000000E-03 0.  1.
    9900012    2    1    2    0    0 -0.20576224107E+02 -0.23324915306E+02 -0.70209503341E+01  0.59301852285E+02  0.49999832682E+02 0.  0.
         12    1    1    2    0    0  0.20576224107E+02  0.23324915306E+02  0.70209503341E+01  0.31886147715E+02  0.00000000000E+00 0. -1.
         11    1    3    3    0    0  0.53294444319E+01  0.63098541926E+01 -0.11815025226E+02  0.14415687956E+02  0.51100000000E-03 0. -1.
        -11    1    3    3    0    0 -0.19153925695E+02 -0.72474916823E+01 -0.18902570139E+01  0.20566284960E+02  0.51100000000E-03 0.  1.
         12    1    3    3    0    0 -0.67517428433E+01 -0.22387277816E+02  0.66843319062E+01  0.24319879368E+02  0.00000000000E+00 0. -1.
</event>
<event>
 7    1  0.7578565E-012  0.5930206E+02  0.7816164E-02  0.1266604E+00
        -11   -1    0    0    0    0  0.00000000000E+00  0.00000000000E+00  0.45593999997E+02  0.45594000000E+02  0.51100000000E-03 0.  1.
         11   -1    0    0    0    0 -0.00000000000E+00 -0.00000000000E+00 -0.45593999997E+02  0.45594000000E+02  0.51100000000E-03 0. -1.
    9900012    2    1    2    0    0 -0.68735151462E+01 -0.27723823639E+02  0.14172418995E+02  0.59302061598E+02  0.50000214419E+02 0.  0.
         12    1    1    2    0    0  0.68735151462E+01  0.27723823639E+02 -0.14172418995E+02  0.31885938402E+02  0.00000000000E+00 0. -1.
         11    1    3    3    0    0  0.10909572381E+02 -0.86180165542E+01 -0.47580835751E+00  0.13910980293E+02  0.51100000000E-03 0. -1.
        -11    1    3    3    0    0 -0.18635224416E+02 -0.23597810605E+02  0.21633620074E+02  0.37042432050E+02  0.51100000000E-03 0.  1.
        -12    1    3    3    0    0  0.85213688905E+00  0.44920035194E+01 -0.69853927219E+01  0.83486492545E+01  0.00000000000E+00 0.  1.
</event>
<event>
 7    1  0.7578565E-012  0.5930195E+02  0.7816164E-02  0.1266605E+00
        -11   -1    0    0    0    0  0.00000000000E+00  0.00000000000E+00  0.45593999997E+02  0.45594000000E+02  0.51100000000E-03 0.  1.
         11   -1    0    0    0    0 -0.00000000000E+00 -0.00000000000E+00 -0.45593999997E+02  0.45594000000E+02  0.51100000000E-03 0. -1.
    9900012    2    1    2    0    0 -0.70014744748E+01 -0.16597258547E+01  0.31063565074E+02  0.59301946469E+02  0.50000004451E+02 0.  0.
         12    1    1    2    0    0  0.70014744748E+01  0.16597258547E+01 -0.31063565074E+02  0.31886053531E+02  0.00000000000E+00 0. -1.
         11    1    3    3    0    0  0.11642402175E+02  0.63431857008E+01  0.44255899891E+01  0.13977388177E+02  0.51100000000E-03 0. -1.
        -11    1    3    3    0    0 -0.14556755706E+02 -0.52422747664E+01  0.33484678656E+02  0.36886369927E+02  0.51100000000E-03 0.  1.
         12    1    3    3    0    0 -0.40871209438E+01 -0.27606367891E+01 -0.68467035716E+01  0.84381883653E+01  0.00000000000E+00 0. -1.
</event>
<event>
 7    1  0.7578565E-012  0.5930190E+02  0.7816164E-02  0.1266605E+00
        -11   -1    0    0    0    0  0.00000000000E+00  0.00000000000E+00  0.45593999997E+02  0.45594000000E+02  0.51100000000E-03 0. -1.
         11   -1    0    0    0    0 -0.00000000000E+00 -0.00000000000E+00 -0.45593999997E+02  0.45594000000E+02  0.51100000000E-03 0.  1.
    9900012    2    1    2    0    0 -0.41621092210E+01 -0.31393059071E+02  0.37250934901E+01  0.59301895934E+02  0.49999912288E+02 0.  0.
         12    1    1    2    0    0  0.41621092210E+01  0.31393059071E+02 -0.37250934901E+01  0.31886104066E+02  0.00000000000E+00 0. -1.
         11    1    3    3    0    0 -0.88309853347E+00  0.90560222912E+01 -0.44680057817E+01  0.10136788381E+02  0.51100000000E-03 0. -1.
        -11    1    3    3    0    0 -0.23506283831E+01 -0.23779150232E+02  0.17896886235E+02  0.29854178547E+02  0.51100000000E-03 0.  1.
         12    1    3    3    0    0 -0.92838230444E+00 -0.16669931131E+02 -0.97037869637E+01  0.19310929005E+02  0.00000000000E+00 0. -1.
</event>
<event>
 7    1  0.7578565E-012  0.5930194E+02  0.7816164E-02  0.1266605E+00
        -11   -1    0    0    0    0  0.00000000000E+00  0.00000000000E+00  0.45593999997E+02  0.45594000000E+02  0.51100000000E-03 0.  1.
         11   -1    0    0    0    0 -0.00000000000E+00 -0.00000000000E+00 -0.45593999997E+02  0.45594000000E+02  0.51100000000E-03 0. -1.
    9900012    2    1    2    0    0  0.55851887596E+01  0.10725617419E+02  0.29504030880E+02  0.59301936576E+02  0.49999986410E+02 0.  0.
         12    1    1    2    0    0 -0.55851887596E+01 -0.10725617419E+02 -0.29504030880E+02  0.31886063424E+02  0.00000000000E+00 0. -1.
         11    1    3    3    0    0 -0.21946879805E+01  0.16354105937E+00 -0.96092739179E+01  0.98580701205E+01  0.51100000000E-03 0. -1.
        -11    1    3    3    0    0 -0.63941803601E+01  0.62236539367E+01  0.31579781917E+02  0.32816185595E+02  0.51100000000E-03 0.  1.
        -12    1    3    3    0    0  0.14174057100E+02  0.43384224233E+01  0.75335228812E+01  0.16627680861E+02  0.00000000000E+00 0.  1.
</event>
<event>
 7    1  0.7578565E-012  0.5930193E+02  0.7816164E-02  0.1266605E+00
        -11   -1    0    0    0    0  0.00000000000E+00  0.00000000000E+00  0.45593999997E+02  0.45594000000E+02  0.51100000000E-03 0. -1.
         11   -1    0    0    0    0 -0.00000000000E+00 -0.00000000000E+00 -0.45593999997E+02  0.45594000000E+02  0.51100000000E-03 0.  1.
    9900012    2    1    2    0    0 -0.70918478144E+01  0.31041334404E+02 -0.16919833878E+01  0.59301928515E+02  0.49999971708E+02 0.  0.
         12    1    1    2    0    0  0.70918478144E+01 -0.31041334404E+02  0.16919833878E+01  0.31886071485E+02  0.00000000000E+00 0. -1.
         11    1    3    3    0    0 -0.82865977323E+01  0.20089605592E+02  0.12737396003E+02  0.25189307494E+02  0.51100000000E-03 0. -1.
        -11    1    3    3    0    0 -0.10918838115E+02  0.12457069500E+02 -0.14333545375E+02  0.21905481725E+02  0.51100000000E-03 0.  1.
        -12    1    3    3    0    0  0.12113588033E+02 -0.15053406879E+01 -0.95834016118E-01  0.12207139296E+02  0.00000000000E+00 0.  1.
</event>
<event>
 7    1  0.7578565E-012  0.5930195E+02  0.7816164E-02  0.1266605E+00
        -11   -1    0    0    0    0  0.00000000000E+00  0.00000000000E+00  0.45593999997E+02  0.45594000000E+02  0.51100000000E-03 0. -1.
         11   -1    0    0    0    0 -0.00000000000E+00 -0.00000000000E+00 -0.45593999997E+02  0.45594000000E+02  0.51100000000E-03 0.  1.
    9900012    2    1    2    0    0 -0.31204730309E+02  0.21556578696E+01  0.61917908339E+01  0.59301947747E+02  0.50000006784E+02 0.  0.
         12    1    1    2    0    0  0.31204730309E+02 -0.21556578696E+01 -0.61917908339E+01  0.31886052253E+02  0.00000000000E+00 0. -1.
         11    1    3    3    0    0  0.68937316622E+01  0.70154782867E+01  0.12559237615E+01  0.99155341045E+01  0.51100000000E-03 0. -1.
        -11    1    3    3    0    0 -0.29974642933E+02 -0.71137632923E+01 -0.98689982786E+01  0.32349373632E+02  0.51100000000E-03 0.  1.
        -12    1    3    3    0    0 -0.81238190390E+01  0.22539428752E+01  0.14804865351E+02  0.17037040011E+02  0.00000000000E+00 0.  1.
</event>
<event>
 7    1  0.7578565E-012  0.5930194E+02  0.7816164E-02  0.1266605E+00
        -11   -1    0    0    0    0  0.00000000000E+00  0.00000000000E+00  0.45593999997E+02  0.45594000000E+02  0.51100000000E-03 0. -1.
         11   -1    0    0    0    0 -0.00000000000E+00 -0.00000000000E+00 -0.45593999997E+02  0.45594000000E+02  0.51100000000E-03 0.  1.
    9900012    2    1    2    0    0 -0.26650331598E+02  0.17438221787E+02  0.15456744312E+01  0.59301939365E+02  0.49999991496E+02 0.  0.
         12    1    1    2    0    0  0.26650331598E+02 -0.17438221787E+02 -0.15456744312E+01  0.31886060635E+02  0.00000000000E+00 0. -1.
         11    1    3    3    0    0 -0.79286465224E+01 -0.15786397120E+02 -0.12112209888E+01  0.17707084070E+02  0.51100000000E-03 0.  1.
        -11    1    3    3    0    0 -0.20159439522E+02  0.31674684800E+02 -0.68898589817E+00  0.37552141894E+02  0.51100000000E-03 0. -1.
         12    1    3    3    0    0  0.14377544461E+01  0.15499341068E+01  0.34458813182E+01  0.40427134009E+01  0.00000000000E+00 0. -1.
</event>
<event>
 7    1  0.7578565E-012  0.5930195E+02  0.7816164E-02  0.1266605E+00
        -11   -1    0    0    0    0  0.00000000000E+00  0.00000000000E+00  0.45593999997E+02  0.45594000000E+02  0.51100000000E-03 0. -1.
         11   -1    0    0    0    0 -0.00000000000E+00 -0.00000000000E+00 -0.45593999997E+02  0.45594000000E+02  0.51100000000E-03 0.  1.
    9900012    2    1    2    0    0 -0.30964035296E+02 -0.46528644350E+01  0.60248967876E+01  0.59301952729E+02  0.50000015869E+02 0.  0.
         12    1    1    2    0    0  0.30964035296E+02  0.46528644350E+01 -0.60248967876E+01  0.31886047271E+02  0.00000000000E+00 0. -1.
         11    1    3    3    0    0  0.17471864501E+01 -0.16993567331E+02 -0.72623214682E+01  0.18562739682E+02  0.51100000000E-03 0. -1.
        -11    1    3    3    0    0 -0.14460648177E+02  0.13201671822E+02  0.10618834969E+02  0.22274517749E+02  0.51100000000E-03 0.  1.
         12    1    3    3    0    0 -0.18250573569E+02 -0.86096892551E+00  0.26683832870E+01  0.18464695298E+02  0.00000000000E+00 0. -1.
</event>
<event>
 7    1  0.7578565E-012  0.5930178E+02  0.7816164E-02  0.1266605E+00
        -11   -1    0    0    0    0  0.00000000000E+00  0.00000000000E+00  0.45593999997E+02  0.45594000000E+02  0.51100000000E-03 0. -1.
         11   -1    0    0    0    0 -0.00000000000E+00 -0.00000000000E+00 -0.45593999997E+02  0.45594000000E+02  0.51100000000E-03 0.  1.
    9900012    2    1    2    0    0  0.17002476323E+02 -0.18811664862E+01 -0.26909257440E+02  0.59301778455E+02  0.49999698033E+02 0.  0.
         12    1    1    2    0    0 -0.17002476323E+02  0.18811664862E+01  0.26909257440E+02  0.31886221545E+02  0.00000000000E+00 0. -1.
         11    1    3    3    0    0 -0.32009353353E+01 -0.51738531456E+00  0.86827990277E+01  0.92684774263E+01  0.51100000000E-03 0. -1.
        -11    1    3    3    0    0  0.20162275053E+02 -0.19451437013E+01 -0.40398181024E+02  0.45191967755E+02  0.51100000000E-03 0.  1.
        -12    1    3    3    0    0  0.41136605896E-01  0.58136252960E+00  0.48061245560E+01  0.48413332728E+01  0.00000000000E+00 0.  1.
</event>
<event>
 7    1  0.7578565E-012  0.5930195E+02  0.7816164E-02  0.1266605E+00
        -11   -1    0    0    0    0  0.00000000000E+00  0.00000000000E+00  0.45593999997E+02  0.45594000000E+02  0.51100000000E-03 0. -1.
         11   -1    0    0    0    0 -0.00000000000E+00 -0.00000000000E+00 -0.45593999997E+02  0.45594000000E+02  0.51100000000E-03 0.  1.
    9900012    2    1    2    0    0  0.79708283164E+01 -0.23290065988E+02  0.20267186110E+02  0.59301951161E+02  0.50000013009E+02 0.  0.
         12    1    1    2    0    0 -0.79708283164E+01  0.23290065988E+02 -0.20267186110E+02  0.31886048839E+02  0.00000000000E+00 0. -1.
         11    1    3    3    0    0 -0.55090220672E+01  0.66333768240E+01 -0.42107026945E+00  0.86329782033E+01  0.51100000000E-03 0. -1.
        -11    1    3    3    0    0  0.17703320938E+02 -0.17497381859E+02 -0.14495517045E+01  0.24933253790E+02  0.51100000000E-03 0.  1.
        -12    1    3    3    0    0 -0.42234705545E+01 -0.12426060953E+02  0.22137808083E+02  0.25735719167E+02  0.00000000000E+00 0.  1.
</event>
<event>
 7    1  0.7578565E-012  0.5930194E+02  0.7816164E-02  0.1266605E+00
        -11   -1    0    0    0    0  0.00000000000E+00  0.00000000000E+00  0.45593999997E+02  0.45594000000E+02  0.51100000000E-03 0. -1.
         11   -1    0    0    0    0 -0.00000000000E+00 -0.00000000000E+00 -0.45593999997E+02  0.45594000000E+02  0.51100000000E-03 0.  1.
    9900012    2    1    2    0    0 -0.26582189504E+02  0.17586477770E+02  0.90773305147E+00  0.59301937551E+02  0.49999988189E+02 0.  0.
         12    1    1    2    0    0  0.26582189504E+02 -0.17586477770E+02 -0.90773305147E+00  0.31886062449E+02  0.00000000000E+00 0. -1.
         11    1    3    3    0    0 -0.26427799127E+02 -0.58746105445E+01 -0.51961448631E+01  0.27567000878E+02  0.51100000000E-03 0. -1.
        -11    1    3    3    0    0  0.21227970088E+01  0.12127276676E+02 -0.70786335798E+01  0.14201554856E+02  0.51100000000E-03 0.  1.
         12    1    3    3    0    0 -0.22771873863E+01  0.11333811638E+02  0.13182511494E+02  0.17533381817E+02  0.00000000000E+00 0. -1.
</event>
<event>
 7    1  0.7578565E-012  0.5930195E+02  0.7816164E-02  0.1266605E+00
        -11   -1    0    0    0    0  0.00000000000E+00  0.00000000000E+00  0.45593999997E+02  0.45594000000E+02  0.51100000000E-03 0.  1.
         11   -1    0    0    0    0 -0.00000000000E+00 -0.00000000000E+00 -0.45593999997E+02  0.45594000000E+02  0.51100000000E-03 0. -1.
    9900012    2    1    2    0    0 -0.12250107921E+02 -0.23380854778E+02  0.17888289716E+02  0.59301946258E+02  0.50000004068E+02 0.  0.
         12    1    1    2    0    0  0.12250107921E+02  0.23380854778E+02 -0.17888289716E+02  0.31886053742E+02  0.00000000000E+00 0. -1.
         11    1    3    3    0    0  0.14225319258E+02 -0.21755379352E+02  0.96859168524E+01  0.27739380388E+02  0.51100000000E-03 0.  1.
        -11    1    3    3    0    0 -0.17744269083E+02 -0.51725560490E+01 -0.84009249146E+00  0.18501896579E+02  0.51100000000E-03 0. -1.
         12    1    3    3    0    0 -0.87311580965E+01  0.35470806228E+01  0.90424653554E+01  0.13060669292E+02  0.00000000000E+00 0. -1.
</event>
<event>
 7    1  0.7578565E-012  0.5930194E+02  0.7816164E-02  0.1266605E+00
        -11   -1    0    0    0    0  0.00000000000E+00  0.00000000000E+00  0.45593999997E+02  0.45594000000E+02  0.51100000000E-03 0.  1.
         11   -1    0    0    0    0 -0.00000000000E+00 -0.00000000000E+00 -0.45593999997E+02  0.45594000000E+02  0.51100000000E-03 0. -1.
    9900012    2    1    2    0    0 -0.14462393029E+02 -0.35139549368E+01  0.28199503736E+02  0.59301941881E+02  0.49999996084E+02 0.  0.
         12    1    1    2    0    0  0.14462393029E+02  0.35139549368E+01 -0.28199503736E+02  0.31886058119E+02  0.00000000000E+00 0. -1.
         11    1    3    3    0    0  0.39057375694E+01 -0.98119426490E+01  0.29789342924E+02  0.31605916481E+02  0.51100000000E-03 0. -1.
        -11    1    3    3    0    0 -0.45415760863E+01  0.10996968227E+02  0.32116296090E+01  0.12323708392E+02  0.51100000000E-03 0.  1.
         12    1    3    3    0    0 -0.13826554512E+02 -0.46989805147E+01 -0.48014687971E+01  0.15372317007E+02  0.00000000000E+00 0. -1.
</event>
<event>
 7    1  0.7578565E-012  0.5930194E+02  0.7816164E-02  0.1266605E+00
        -11   -1    0    0    0    0  0.00000000000E+00  0.00000000000E+00  0.45593999997E+02  0.45594000000E+02  0.51100000000E-03 0. -1.
         11   -1    0    0    0    0 -0.00000000000E+00 -0.00000000000E+00 -0.45593999997E+02  0.45594000000E+02  0.51100000000E-03 0.  1.
    9900012    2    1    2    0    0 -0.28726893757E+02  0.13732954145E+02  0.17007738658E+01  0.59301935862E+02  0.49999985108E+02 0.  0.
         12    1    1    2    0    0  0.28726893757E+02 -0.13732954145E+02 -0.17007738658E+01  0.31886064138E+02  0.00000000000E+00 0. -1.
         11    1    3    3    0    0 -0.92892968116E+01  0.23555068878E+02 -0.33636834517E+01  0.25543035679E+02  0.51100000000E-03 0.  1.
        -11    1    3    3    0    0 -0.53487530804E+01 -0.25409017419E+01  0.14250225942E+02  0.15431600074E+02  0.51100000000E-03 0. -1.
         12    1    3    3    0    0 -0.14088843865E+02 -0.72812129909E+01 -0.91857686245E+01  0.18327300109E+02  0.00000000000E+00 0. -1.
</event>
<event>
 7    1  0.7578565E-012  0.5930194E+02  0.7816164E-02  0.1266605E+00
        -11   -1    0    0    0    0  0.00000000000E+00  0.00000000000E+00  0.45593999997E+02  0.45594000000E+02  0.51100000000E-03 0.  1.
         11   -1    0    0    0    0 -0.00000000000E+00 -0.00000000000E+00 -0.45593999997E+02  0.45594000000E+02  0.51100000000E-03 0. -1.
    9900012    2    1    2    0    0 -0.16985605573E+02  0.20183384146E+02  0.17912043496E+02  0.59301935732E+02  0.49999984871E+02 0.  0.
         12    1    1    2    0    0  0.16985605573E+02 -0.20183384146E+02 -0.17912043496E+02  0.31886064268E+02  0.00000000000E+00 0. -1.
         11    1    3    3    0    0  0.10540291125E+02  0.13254716181E+02 -0.49118700354E+01  0.17632688551E+02  0.51100000000E-03 0. -1.
        -11    1    3    3    0    0 -0.17669580244E+02 -0.59485414057E+01  0.12438514764E+02  0.22412404170E+02  0.51100000000E-03 0.  1.
         12    1    3    3    0    0 -0.98563164534E+01  0.12877209371E+02  0.10385398767E+02  0.19256843012E+02  0.00000000000E+00 0. -1.
</event>
<event>
 7    1  0.7578565E-012  0.5930195E+02  0.7816164E-02  0.1266605E+00
        -11   -1    0    0    0    0  0.00000000000E+00  0.00000000000E+00  0.45593999997E+02  0.45594000000E+02  0.51100000000E-03 0.  1.
         11   -1    0    0    0    0 -0.00000000000E+00 -0.00000000000E+00 -0.45593999997E+02  0.45594000000E+02  0.51100000000E-03 0. -1.
    9900012    2    1    2    0    0  0.47823235560E+01 -0.27100501762E+02  0.16106283538E+02  0.59301950013E+02  0.50000010916E+02 0.  0.
         12    1    1    2    0    0 -0.47823235560E+01  0.27100501762E+02 -0.16106283538E+02  0.31886049987E+02  0.00000000000E+00 0. -1.
         11    1    3    3    0    0  0.76423935770E+01  0.35041414484E+01 -0.65429943130E+01  0.10653448349E+02  0.51100000000E-03 0. -1.
        -11    1    3    3    0    0 -0.16096311261E+02 -0.16369734123E+02  0.16461105568E+02  0.28249379254E+02  0.51100000000E-03 0.  1.
         12    1    3    3    0    0  0.13236241240E+02 -0.14234909088E+02  0.61881722837E+01  0.20399122411E+02  0.00000000000E+00 0. -1.
</event>
<event>
 7    1  0.7578565E-012  0.5930198E+02  0.7816164E-02  0.1266605E+00
        -11   -1    0    0    0    0  0.00000000000E+00  0.00000000000E+00  0.45593999997E+02  0.45594000000E+02  0.51100000000E-03 0. -1.
         11   -1    0    0    0    0 -0.00000000000E+00 -0.00000000000E+00 -0.45593999997E+02  0.45594000000E+02  0.51100000000E-03 0.  1.
    9900012    2    1    2    0    0  0.27687810037E+02 -0.42967419421E+01 -0.15219779574E+02  0.59301976318E+02  0.50000058889E+02 0.  0.
         12    1    1    2    0    0 -0.27687810037E+02  0.42967419421E+01  0.15219779574E+02  0.31886023682E+02  0.00000000000E+00 0. -1.
         11    1    3    3    0    0  0.26930104275E+02 -0.58759591077E+01  0.49705271640E+01  0.28008276495E+02  0.51100000000E-03 0. -1.
        -11    1    3    3    0    0 -0.79902933768E+01  0.86646847710E+01 -0.14480400644E+02  0.18670928030E+02  0.51100000000E-03 0.  1.
         12    1    3    3    0    0  0.87479991391E+01 -0.70854676053E+01 -0.57099060945E+01  0.12622771793E+02  0.00000000000E+00 0. -1.
</event>
<event>
 7    1  0.7578565E-012  0.5930185E+02  0.7816164E-02  0.1266605E+00
        -11   -1    0    0    0    0  0.00000000000E+00  0.00000000000E+00  0.45593999997E+02  0.45594000000E+02  0.51100000000E-03 0. -1.
         11   -1    0    0    0    0 -0.00000000000E+00 -0.00000000000E+00 -0.45593999997E+02  0.45594000000E+02  0.51100000000E-03 0.  1.
    9900012    2    1    2    0    0 -0.24965186703E+02  0.16589267720E+02 -0.10874852425E+02  0.59301846801E+02  0.49999822681E+02 0.  0.
         12    1    1    2    0    0  0.24965186703E+02 -0.16589267720E+02  0.10874852425E+02  0.31886153199E+02  0.00000000000E+00 0. -1.
         11    1    3    3    0    0  0.88344978281E+01  0.74592873638E+01  0.65192182861E+01  0.13273640314E+02  0.51100000000E-03 0. -1.
        -11    1    3    3    0    0 -0.24162236684E+02 -0.30876076122E-01 -0.35587633209E-01  0.24162282625E+02  0.51100000000E-03 0.  1.
        -12    1    3    3    0    0 -0.96374478469E+01  0.91608564325E+01 -0.17358483078E+02  0.21865923862E+02  0.00000000000E+00 0.  1.
</event>
<event>
 7    1  0.7578565E-012  0.5930194E+02  0.7816164E-02  0.1266605E+00
        -11   -1    0    0    0    0  0.00000000000E+00  0.00000000000E+00  0.45593999997E+02  0.45594000000E+02  0.51100000000E-03 0.  1.
         11   -1    0    0    0    0 -0.00000000000E+00 -0.00000000000E+00 -0.45593999997E+02  0.45594000000E+02  0.51100000000E-03 0. -1.
    9900012    2    1    2    0    0  0.56943255273E+01 -0.16260730656E+02  0.26830658035E+02  0.59301938542E+02  0.49999989996E+02 0.  0.
         12    1    1    2    0    0 -0.56943255273E+01  0.16260730656E+02 -0.26830658035E+02  0.31886061458E+02  0.00000000000E+00 0. -1.
         11    1    3    3    0    0  0.14278015659E+02 -0.10431066398E+02 -0.54479343102E+01  0.18502671857E+02  0.51100000000E-03 0. -1.
        -11    1    3    3    0    0 -0.15227868655E+02  0.12041716592E+01  0.20028440767E+02  0.25188816030E+02  0.51100000000E-03 0.  1.
         12    1    3    3    0    0  0.66441785227E+01 -0.70338359178E+01  0.12250151578E+02  0.15610450655E+02  0.00000000000E+00 0. -1.
</event>
<event>
 7    1  0.1029159E-011  0.5930194E+02  0.7816164E-02  0.1266605E+00
        -11   -1    0    0    0    0  0.00000000000E+00  0.00000000000E+00  0.45593999997E+02  0.45594000000E+02  0.51100000000E-03 0. -1.
         11   -1    0    0    0    0 -0.00000000000E+00 -0.00000000000E+00 -0.45593999997E+02  0.45594000000E+02  0.51100000000E-03 0.  1.
    9900012    2    1    2    0    0 -0.27234390763E+02  0.94331012900E+01 -0.13639109954E+02  0.59301940969E+02  0.49999994422E+02 0.  0.
         12    1    1    2    0    0  0.27234390763E+02 -0.94331012900E+01  0.13639109954E+02  0.31886059031E+02  0.00000000000E+00 0. -1.
         11    1    3    3    0    0 -0.59034396862E+01 -0.10397332546E+02 -0.17868159829E+02  0.21499447903E+02  0.51100000000E-03 0. -1.
        -11    1    3    3    0    0 -0.23044104192E+02  0.13424473087E+02 -0.42845271466E+01  0.27011190067E+02  0.51100000000E-03 0.  1.
         12    1    3    3    0    0  0.17131531148E+01  0.64059607489E+01  0.85135770218E+01  0.10791302999E+02  0.00000000000E+00 0. -1.
</event>
<event>
 7    1  0.7578565E-012  0.5930195E+02  0.7816164E-02  0.1266605E+00
        -11   -1    0    0    0    0  0.00000000000E+00  0.00000000000E+00  0.45593999997E+02  0.45594000000E+02  0.51100000000E-03 0. -1.
         11   -1    0    0    0    0 -0.00000000000E+00 -0.00000000000E+00 -0.45593999997E+02  0.45594000000E+02  0.51100000000E-03 0.  1.
    9900012    2    1    2    0    0 -0.22205535288E+02  0.16049440633E+02 -0.16311038904E+02  0.59301947686E+02  0.50000006671E+02 0.  0.
         12    1    1    2    0    0  0.22205535288E+02 -0.16049440633E+02  0.16311038904E+02  0.31886052314E+02  0.00000000000E+00 0. -1.
         11    1    3    3    0    0  0.21470045934E+01  0.63050436390E+01  0.15908540819E+02  0.17246590250E+02  0.51100000000E-03 0. -1.
        -11    1    3    3    0    0 -0.83066704279E+01  0.67462263142E+01 -0.12400609919E+02  0.16379483194E+02  0.51100000000E-03 0.  1.
         12    1    3    3    0    0 -0.16045869453E+02  0.29981706797E+01 -0.19818969805E+02  0.25675874241E+02  0.00000000000E+00 0. -1.
</event>
<event>
 7    1  0.7578565E-012  0.5930195E+02  0.7816164E-02  0.1266605E+00
        -11   -1    0    0    0    0  0.00000000000E+00  0.00000000000E+00  0.45593999997E+02  0.45594000000E+02  0.51100000000E-03 0.  1.
         11   -1    0    0    0    0 -0.00000000000E+00 -0.00000000000E+00 -0.45593999997E+02  0.45594000000E+02  0.51100000000E-03 0. -1.
    9900012    2    1    2    0    0 -0.30629921953E+02  0.39924169741E+01  0.79113128993E+01  0.59301946874E+02  0.50000005192E+02 0.  0.
         12    1    1    2    0    0  0.30629921953E+02 -0.39924169741E+01 -0.79113128993E+01  0.31886053126E+02  0.00000000000E+00 0. -1.
         11    1    3    3    0    0 -0.12669535274E+02 -0.90103168803E+01  0.17322791577E+02  0.23276211947E+02  0.51100000000E-03 0.  1.
        -11    1    3    3    0    0  0.16129833391E+01 -0.48846314633E+00 -0.11995454024E+02  0.12113266653E+02  0.51100000000E-03 0. -1.
        -12    1    3    3    0    0 -0.19573370018E+02  0.13491197001E+02  0.25839753466E+01  0.23912468274E+02  0.00000000000E+00 0.  1.
</event>
<event>
 7    1  0.7578565E-012  0.5930194E+02  0.7816164E-02  0.1266605E+00
        -11   -1    0    0    0    0  0.00000000000E+00  0.00000000000E+00  0.45593999997E+02  0.45594000000E+02  0.51100000000E-03 0.  1.
         11   -1    0    0    0    0 -0.00000000000E+00 -0.00000000000E+00 -0.45593999997E+02  0.45594000000E+02  0.51100000000E-03 0. -1.
    9900012    2    1    2    0    0 -0.18110834420E+02  0.26211377881E+02 -0.12969382472E+01  0.59301941877E+02  0.49999996078E+02 0.  0.
         12    1    1    2    0    0  0.18110834420E+02 -0.26211377881E+02  0.12969382472E+01  0.31886058123E+02  0.00000000000E+00 0. -1.
         11    1    3    3    0    0 -0.51377911160E+01 -0.79546775457E+01  0.67389702361E+01  0.11622715367E+02  0.51100000000E-03 0. -1.
        -11    1    3    3    0    0  0.11691539738E+01  0.18065969207E+02 -0.16637891566E+02  0.24587915740E+02  0.51100000000E-03 0.  1.
        -12    1    3    3    0    0 -0.14142197277E+02  0.16100086220E+02  0.86019830832E+01  0.23091310770E+02  0.00000000000E+00 0.  1.
</event>
<event>
 7    1  0.7578565E-012  0.5930198E+02  0.7816164E-02  0.1266605E+00
        -11   -1    0    0    0    0  0.00000000000E+00  0.00000000000E+00  0.45593999997E+02  0.45594000000E+02  0.51100000000E-03 0.  1.
         11   -1    0    0    0    0 -0.00000000000E+00 -0.00000000000E+00 -0.45593999997E+02  0.45594000000E+02  0.51100000000E-03 0. -1.
    9900012    2    1    2    0    0  0.18173643085E+02  0.26069276432E+02  0.26134228412E+01  0.59301977112E+02  0.50000060338E+02 0.  0.
         12    1    1    2    0    0 -0.18173643085E+02 -0.26069276432E+02 -0.26134228412E+01  0.31886022888E+02  0.00000000000E+00 0. -1.
         11    1    3    3    0    0  0.19312253476E+02  0.49217148257E+01 -0.13099608823E+02  0.23849238200E+02  0.51100000000E-03 0. -1.
        -11    1    3    3    0    0 -0.11848151645E+02  0.77439241408E+01  0.41035375153E+01  0.14737234439E+02  0.51100000000E-03 0.  1.
         12    1    3    3    0    0  0.10709541255E+02  0.13403637465E+02  0.11609494149E+02  0.20715504473E+02  0.00000000000E+00 0. -1.
</event>
<event>
 7    1  0.7578565E-012  0.5930197E+02  0.7816164E-02  0.1266605E+00
        -11   -1    0    0    0    0  0.00000000000E+00  0.00000000000E+00  0.45593999997E+02  0.45594000000E+02  0.51100000000E-03 0.  1.
         11   -1    0    0    0    0 -0.00000000000E+00 -0.00000000000E+00 -0.45593999997E+02  0.45594000000E+02  0.51100000000E-03 0. -1.
    9900012    2    1    2    0    0  0.21303325742E+02 -0.20925128284E+02  0.11181524648E+02  0.59301965834E+02  0.50000039770E+02 0.  0.
         12    1    1    2    0    0 -0.21303325742E+02  0.20925128284E+02 -0.11181524648E+02  0.31886034166E+02  0.00000000000E+00 0. -1.
         11    1    3    3    0    0  0.98158305208E+01 -0.29675053718E+02 -0.90929754810E+01  0.32552135803E+02  0.51100000000E-03 0. -1.
        -11    1    3    3    0    0 -0.43345645618E+00  0.11374707782E+01 -0.73564092833E+00  0.14222841162E+01  0.51100000000E-03 0.  1.
         12    1    3    3    0    0  0.11920951678E+02  0.76124546566E+01  0.21010141058E+02  0.25327545915E+02  0.00000000000E+00 0. -1.
</event>
<event>
 7    1  0.7578565E-012  0.5930198E+02  0.7816164E-02  0.1266605E+00
        -11   -1    0    0    0    0  0.00000000000E+00  0.00000000000E+00  0.45593999997E+02  0.45594000000E+02  0.51100000000E-03 0. -1.
         11   -1    0    0    0    0 -0.00000000000E+00 -0.00000000000E+00 -0.45593999997E+02  0.45594000000E+02  0.51100000000E-03 0.  1.
    9900012    2    1    2    0    0 -0.19405363092E+02 -0.25249170251E+02  0.16216094830E+01  0.59301979044E+02  0.50000063861E+02 0.  0.
         12    1    1    2    0    0  0.19405363092E+02  0.25249170251E+02 -0.16216094830E+01  0.31886020956E+02  0.00000000000E+00 0. -1.
         11    1    3    3    0    0  0.55195583361E+01 -0.13972105956E+02  0.82811659506E+01  0.17154095104E+02  0.51100000000E-03 0. -1.
        -11    1    3    3    0    0 -0.92782927290E+01 -0.31524034133E+01  0.12649364407E+02  0.16000961953E+02  0.51100000000E-03 0.  1.
        -12    1    3    3    0    0 -0.15646628699E+02 -0.81246608814E+01 -0.19308920875E+02  0.26146921988E+02  0.00000000000E+00 0.  1.
</event>
<event>
 7    1  0.7578565E-012  0.5930186E+02  0.7816164E-02  0.1266605E+00
        -11   -1    0    0    0    0  0.00000000000E+00  0.00000000000E+00  0.45593999997E+02  0.45594000000E+02  0.51100000000E-03 0.  1.
         11   -1    0    0    0    0 -0.00000000000E+00 -0.00000000000E+00 -0.45593999997E+02  0.45594000000E+02  0.51100000000E-03 0. -1.
    9900012    2    1    2    0    0  0.22685237774E+02 -0.15411296913E+01  0.22354654236E+02  0.59301864147E+02  0.49999854317E+02 0.  0.
         12    1    1    2    0    0 -0.22685237774E+02  0.15411296913E+01 -0.22354654236E+02  0.31886135853E+02  0.00000000000E+00 0. -1.
         11    1    3    3    0    0  0.19676970622E+02  0.49417199340E+01 -0.35712202280E+01  0.20599936479E+02  0.51100000000E-03 0. -1.
        -11    1    3    3    0    0  0.50003812613E+01 -0.47253291339E+01  0.31651199856E+02  0.32390291768E+02  0.51100000000E-03 0.  1.
        -12    1    3    3    0    0 -0.19921141087E+01 -0.17575204915E+01 -0.57253253920E+01  0.63116359008E+01  0.00000000000E+00 0.  1.
</event>
<event>
 7    1  0.7578565E-012  0.5930191E+02  0.7816164E-02  0.1266605E+00
        -11   -1    0    0    0    0  0.00000000000E+00  0.00000000000E+00  0.45593999997E+02  0.45594000000E+02  0.51100000000E-03 0. -1.
         11   -1    0    0    0    0 -0.00000000000E+00 -0.00000000000E+00 -0.45593999997E+02  0.45594000000E+02  0.51100000000E-03 0.  1.
    9900012    2    1    2    0    0  0.53358273497E+01  0.19901461600E+02 -0.24334814408E+02  0.59301914953E+02  0.49999946975E+02 0.  0.
         12    1    1    2    0    0 -0.53358273497E+01 -0.19901461600E+02  0.24334814408E+02  0.31886085047E+02  0.00000000000E+00 0. -1.
         11    1    3    3    0    0 -0.10567607371E+02  0.95784024595E+01  0.10440825507E+02  0.17675716584E+02  0.51100000000E-03 0. -1.
        -11    1    3    3    0    0  0.31473666893E+01  0.26513396697E+01 -0.20817159833E+02  0.21220029757E+02  0.51100000000E-03 0.  1.
        -12    1    3    3    0    0  0.12756068031E+02  0.76717194712E+01 -0.13958480082E+02  0.20406168613E+02  0.00000000000E+00 0.  1.
</event>
<event>
 7    1  0.7578565E-012  0.5930194E+02  0.7816164E-02  0.1266605E+00
        -11   -1    0    0    0    0  0.00000000000E+00  0.00000000000E+00  0.45593999997E+02  0.45594000000E+02  0.51100000000E-03 0. -1.
         11   -1    0    0    0    0 -0.00000000000E+00 -0.00000000000E+00 -0.45593999997E+02  0.45594000000E+02  0.51100000000E-03 0.  1.
    9900012    2    1    2    0    0 -0.27689013494E+02 -0.13542387113E+02  0.81635138966E+01  0.59301942293E+02  0.49999996836E+02 0.  0.
         12    1    1    2    0    0  0.27689013494E+02  0.13542387113E+02 -0.81635138966E+01  0.31886057707E+02  0.00000000000E+00 0. -1.
         11    1    3    3    0    0 -0.99241103786E+01 -0.28620951609E+02  0.13916760008E+02  0.33336512223E+02  0.51100000000E-03 0. -1.
        -11    1    3    3    0    0 -0.16362213662E+02  0.82591211362E+01 -0.47242616969E+01  0.18927592734E+02  0.51100000000E-03 0.  1.
         12    1    3    3    0    0 -0.14026894533E+01  0.68194433599E+01 -0.10289844143E+01  0.70378373358E+01  0.00000000000E+00 0. -1.
</event>
<event>
 7    1  0.7578565E-012  0.5930196E+02  0.7816164E-02  0.1266605E+00
        -11   -1    0    0    0    0  0.00000000000E+00  0.00000000000E+00  0.45593999997E+02  0.45594000000E+02  0.51100000000E-03 0.  1.
         11   -1    0    0    0    0 -0.00000000000E+00 -0.00000000000E+00 -0.45593999997E+02  0.45594000000E+02  0.51100000000E-03 0. -1.
    9900012    2    1    2    0    0  0.22797397216E+02  0.77942368783E+01  0.20886556599E+02  0.59301957679E+02  0.50000024897E+02 0.  0.
         12    1    1    2    0    0 -0.22797397216E+02 -0.77942368783E+01 -0.20886556599E+02  0.31886042321E+02  0.00000000000E+00 0. -1.
         11    1    3    3    0    0  0.20495945891E+02  0.36212235411E+01  0.88762060260E+01  0.22627065465E+02  0.51100000000E-03 0.  1.
        -11    1    3    3    0    0 -0.80800551381E+01 -0.85323253356E+01 -0.52412272798E+01  0.12866947203E+02  0.51100000000E-03 0. -1.
         12    1    3    3    0    0  0.10381506463E+02  0.12705338673E+02  0.17251577853E+02  0.23807945011E+02  0.00000000000E+00 0. -1.
</event>
<event>
 7    1  0.7578565E-012  0.5930195E+02  0.7816164E-02  0.1266605E+00
        -11   -1    0    0    0    0  0.00000000000E+00  0.00000000000E+00  0.45593999997E+02  0.45594000000E+02  0.51100000000E-03 0.  1.
         11   -1    0    0    0    0 -0.00000000000E+00 -0.00000000000E+00 -0.45593999997E+02  0.45594000000E+02  0.51100000000E-03 0. -1.
    9900012    2    1    2    0    0 -0.25646672125E+02  0.11193549591E+02  0.15286353860E+02  0.59301953556E+02  0.50000017377E+02 0.  0.
         12    1    1    2    0    0  0.25646672125E+02 -0.11193549591E+02 -0.15286353860E+02  0.31886046444E+02  0.00000000000E+00 0. -1.
         11    1    3    3    0    0 -0.31815662127E+02  0.63504573247E+01  0.11344433820E+02  0.34369475465E+02  0.51100000000E-03 0.  1.
        -11    1    3    3    0    0  0.46808350202E+00 -0.92275076726E+01 -0.31711066556E-01  0.92394267065E+01  0.51100000000E-03 0. -1.
        -12    1    3    3    0    0  0.57009065001E+01  0.14070599939E+02  0.39736311061E+01  0.15693051384E+02  0.00000000000E+00 0.  1.
</event>
<event>
 7    1  0.7578565E-012  0.5930195E+02  0.7816164E-02  0.1266605E+00
        -11   -1    0    0    0    0  0.00000000000E+00  0.00000000000E+00  0.45593999997E+02  0.45594000000E+02  0.51100000000E-03 0.  1.
         11   -1    0    0    0    0 -0.00000000000E+00 -0.00000000000E+00 -0.45593999997E+02  0.45594000000E+02  0.51100000000E-03 0. -1.
    9900012    2    1    2    0    0  0.12357055087E+02  0.51694178528E+01  0.28936141730E+02  0.59301953058E+02  0.50000016469E+02 0.  0.
         12    1    1    2    0    0 -0.12357055087E+02 -0.51694178528E+01 -0.28936141730E+02  0.31886046942E+02  0.00000000000E+00 0. -1.
         11    1    3    3    0    0  0.14517529961E+02  0.45424599789E+01 -0.51812392349E+01  0.16069780929E+02  0.51100000000E-03 0. -1.
        -11    1    3    3    0    0 -0.79692574580E+00  0.92598778277E+01  0.33162451067E+02  0.34440217610E+02  0.51100000000E-03 0.  1.
         12    1    3    3    0    0 -0.13635491283E+01 -0.86329199538E+01  0.95492989832E+00  0.87919545190E+01  0.00000000000E+00 0. -1.
</event>
<event>
 7    1  0.7578565E-012  0.5930194E+02  0.7816164E-02  0.1266605E+00
        -11   -1    0    0    0    0  0.00000000000E+00  0.00000000000E+00  0.45593999997E+02  0.45594000000E+02  0.51100000000E-03 0. -1.
         11   -1    0    0    0    0 -0.00000000000E+00 -0.00000000000E+00 -0.45593999997E+02  0.45594000000E+02  0.51100000000E-03 0.  1.
    9900012    2    1    2    0    0 -0.15270391266E+02  0.81208544883E+01 -0.26787829368E+02  0.59301938323E+02  0.49999989596E+02 0.  0.
         12    1    1    2    0    0  0.15270391266E+02 -0.81208544883E+01  0.26787829368E+02  0.31886061677E+02  0.00000000000E+00 0. -1.
         11    1    3    3    0    0  0.42525024776E+01 -0.10019240762E+02  0.71178743802E+01  0.13005118174E+02  0.51100000000E-03 0. -1.
        -11    1    3    3    0    0 -0.19441305833E+02  0.91493424723E+01 -0.28880613913E+02  0.35996731802E+02  0.51100000000E-03 0.  1.
         12    1    3    3    0    0 -0.81587910505E-01  0.89907527778E+01 -0.50250898344E+01  0.10300088346E+02  0.00000000000E+00 0. -1.
</event>
<event>
 7    1  0.7578565E-012  0.5930195E+02  0.7816164E-02  0.1266605E+00
        -11   -1    0    0    0    0  0.00000000000E+00  0.00000000000E+00  0.45593999997E+02  0.45594000000E+02  0.51100000000E-03 0. -1.
         11   -1    0    0    0    0 -0.00000000000E+00 -0.00000000000E+00 -0.45593999997E+02  0.45594000000E+02  0.51100000000E-03 0.  1.
    9900012    2    1    2    0    0 -0.30742146174E+02  0.45032432875E+01 -0.71666854587E+01  0.59301950826E+02  0.50000012398E+02 0.  0.
         12    1    1    2    0    0  0.30742146174E+02 -0.45032432875E+01  0.71666854587E+01  0.31886049174E+02  0.00000000000E+00 0. -1.
         11    1    3    3    0    0 -0.98640664626E+01  0.13517867905E+02  0.17605711111E+02  0.24289784352E+02  0.51100000000E-03 0. -1.
        -11    1    3    3    0    0 -0.85803428394E+01 -0.65866134122E+01 -0.58028780412E+01  0.12275143718E+02  0.51100000000E-03 0.  1.
         12    1    3    3    0    0 -0.12297736872E+02 -0.24280112050E+01 -0.18969518529E+02  0.22737022756E+02  0.00000000000E+00 0. -1.
</event>
<event>
 7    1  0.7578565E-012  0.5930194E+02  0.7816164E-02  0.1266605E+00
        -11   -1    0    0    0    0  0.00000000000E+00  0.00000000000E+00  0.45593999997E+02  0.45594000000E+02  0.51100000000E-03 0.  1.
         11   -1    0    0    0    0 -0.00000000000E+00 -0.00000000000E+00 -0.45593999997E+02  0.45594000000E+02  0.51100000000E-03 0. -1.
    9900012    2    1    2    0    0  0.26362439724E+02  0.86730382255E+01  0.15700995757E+02  0.59301935833E+02  0.49999985055E+02 0.  0.
         12    1    1    2    0    0 -0.26362439724E+02 -0.86730382255E+01 -0.15700995757E+02  0.31886064167E+02  0.00000000000E+00 0. -1.
         11    1    3    3    0    0 -0.10194395475E+02  0.45274207401E+01 -0.91289349037E+01  0.14413906146E+02  0.51100000000E-03 0. -1.
        -11    1    3    3    0    0  0.96336552692E+01  0.40830753526E+01  0.65131788084E+01  0.12324784649E+02  0.51100000000E-03 0.  1.
         12    1    3    3    0    0  0.26923179930E+02  0.62542132843E-01  0.18316751852E+02  0.32563245039E+02  0.00000000000E+00 0. -1.
</event>
<event>
 7    1  0.7578565E-012  0.5930194E+02  0.7816164E-02  0.1266605E+00
        -11   -1    0    0    0    0  0.00000000000E+00  0.00000000000E+00  0.45593999997E+02  0.45594000000E+02  0.51100000000E-03 0.  1.
         11   -1    0    0    0    0 -0.00000000000E+00 -0.00000000000E+00 -0.45593999997E+02  0.45594000000E+02  0.51100000000E-03 0. -1.
    9900012    2    1    2    0    0 -0.57778185684E+01 -0.13478645958E+02  0.28313666200E+02  0.59301940696E+02  0.49999993924E+02 0.  0.
         12    1    1    2    0    0  0.57778185684E+01  0.13478645958E+02 -0.28313666200E+02  0.31886059304E+02  0.00000000000E+00 0. -1.
         11    1    3    3    0    0 -0.96563551907E+01  0.39000540333E+00 -0.11429149012E+02  0.14967389458E+02  0.51100000000E-03 0. -1.
        -11    1    3    3    0    0  0.14401911012E+01 -0.13661692414E+02  0.39563792796E+02  0.41880898877E+02  0.51100000000E-03 0.  1.
         12    1    3    3    0    0  0.24383455210E+01 -0.20695894711E+00  0.17902241541E+00  0.24536523614E+01  0.00000000000E+00 0. -1.
</event>
<event>
 7    1  0.7578565E-012  0.5930201E+02  0.7816164E-02  0.1266605E+00
        -11   -1    0    0    0    0  0.00000000000E+00  0.00000000000E+00  0.45593999997E+02  0.45594000000E+02  0.51100000000E-03 0.  1.
         11   -1    0    0    0    0 -0.00000000000E+00 -0.00000000000E+00 -0.45593999997E+02  0.45594000000E+02  0.51100000000E-03 0. -1.
    9900012    2    1    2    0    0 -0.76178109698E+01 -0.29906607558E+01  0.30817876910E+02  0.59302005692E+02  0.50000112461E+02 0.  0.
         12    1    1    2    0    0  0.76178109698E+01  0.29906607558E+01 -0.30817876910E+02  0.31885994308E+02  0.00000000000E+00 0. -1.
         11    1    3    3    0    0  0.11314768669E+02 -0.14304154719E+02  0.53442313506E+01  0.19005095139E+02  0.51100000000E-03 0. -1.
        -11    1    3    3    0    0 -0.10217529960E+02  0.11392826066E+02  0.27388205662E+02  0.31373686648E+02  0.51100000000E-03 0.  1.
         12    1    3    3    0    0 -0.87150496786E+01 -0.79332103307E-01 -0.19145601022E+01  0.89232239055E+01  0.00000000000E+00 0. -1.
</event>
<event>
 7    1  0.7578565E-012  0.5930194E+02  0.7816164E-02  0.1266605E+00
        -11   -1    0    0    0    0  0.00000000000E+00  0.00000000000E+00  0.45593999997E+02  0.45594000000E+02  0.51100000000E-03 0.  1.
         11   -1    0    0    0    0 -0.00000000000E+00 -0.00000000000E+00 -0.45593999997E+02  0.45594000000E+02  0.51100000000E-03 0. -1.
    9900012    2    1    2    0    0 -0.29573034573E+02  0.39042058002E+01  0.11265595865E+02  0.59301939613E+02  0.49999991950E+02 0.  0.
         12    1    1    2    0    0  0.29573034573E+02 -0.39042058002E+01 -0.11265595865E+02  0.31886060387E+02  0.00000000000E+00 0. -1.
         11    1    3    3    0    0 -0.27765313996E+02  0.21583210484E+02  0.10073100245E+02  0.36581620862E+02  0.51100000000E-03 0.  1.
        -11    1    3    3    0    0 -0.26110022681E+01 -0.19855547641E+02  0.22840605794E+01  0.20156315089E+02  0.51100000000E-03 0. -1.
         12    1    3    3    0    0  0.80328169176E+00  0.21765429573E+01 -0.10915649590E+01  0.25640036624E+01  0.00000000000E+00 0. -1.
</event>
<event>
 7    1  0.7578565E-012  0.5930194E+02  0.7816164E-02  0.1266605E+00
        -11   -1    0    0    0    0  0.00000000000E+00  0.00000000000E+00  0.45593999997E+02  0.45594000000E+02  0.51100000000E-03 0. -1.
         11   -1    0    0    0    0 -0.00000000000E+00 -0.00000000000E+00 -0.45593999997E+02  0.45594000000E+02  0.51100000000E-03 0.  1.
    9900012    2    1    2    0    0 -0.99270573079E+01  0.23010441342E+02 -0.19715323191E+02  0.59301939627E+02  0.49999991975E+02 0.  0.
         12    1    1    2    0    0  0.99270573079E+01 -0.23010441342E+02  0.19715323191E+02  0.31886060373E+02  0.00000000000E+00 0. -1.
         11    1    3    3    0    0  0.39417307081E+01 -0.52427646578E+00  0.66443086473E+01  0.77433161146E+01  0.51100000000E-03 0. -1.
        -11    1    3    3    0    0 -0.48476122516E+01 -0.33710299089E+01 -0.22084977838E+02  0.22860652518E+02  0.51100000000E-03 0.  1.
        -12    1    3    3    0    0 -0.90211757644E+01  0.26905747717E+02 -0.42746540004E+01  0.28697970995E+02  0.00000000000E+00 0.  1.
</event>
<event>
 7    1  0.7578565E-012  0.5930196E+02  0.7816164E-02  0.1266605E+00
        -11   -1    0    0    0    0  0.00000000000E+00  0.00000000000E+00  0.45593999997E+02  0.45594000000E+02  0.51100000000E-03 0.  1.
         11   -1    0    0    0    0 -0.00000000000E+00 -0.00000000000E+00 -0.45593999997E+02  0.45594000000E+02  0.51100000000E-03 0. -1.
    9900012    2    1    2    0    0 -0.24223079852E+02 -0.21472096281E+01  0.20624055785E+02  0.59301956286E+02  0.50000022356E+02 0.  0.
         12    1    1    2    0    0  0.24223079852E+02  0.21472096281E+01 -0.20624055785E+02  0.31886043714E+02  0.00000000000E+00 0. -1.
         11    1    3    3    0    0  0.36972340860E+01 -0.35163299862E+01  0.10401031472E+01  0.52072959659E+01  0.51100000000E-03 0. -1.
        -11    1    3    3    0    0 -0.33442443987E+02  0.43650050467E+01  0.27831464600E+02  0.43726888192E+02  0.51100000000E-03 0.  1.
        -12    1    3    3    0    0  0.55221300485E+01 -0.29958846886E+01 -0.82475119621E+01  0.10367772128E+02  0.00000000000E+00 0.  1.
</event>
<event>
 7    1  0.7578565E-012  0.5930195E+02  0.7816164E-02  0.1266605E+00
        -11   -1    0    0    0    0  0.00000000000E+00  0.00000000000E+00  0.45593999997E+02  0.45594000000E+02  0.51100000000E-03 0.  1.
         11   -1    0    0    0    0 -0.00000000000E+00 -0.00000000000E+00 -0.45593999997E+02  0.45594000000E+02  0.51100000000E-03 0. -1.
    9900012    2    1    2    0    0 -0.57511371705E+01  0.54324687078E+01  0.30889041219E+02  0.59301950348E+02  0.50000011526E+02 0.  0.
         12    1    1    2    0    0  0.57511371705E+01 -0.54324687078E+01 -0.30889041219E+02  0.31886049652E+02  0.00000000000E+00 0. -1.
         11    1    3    3    0    0 -0.21421360931E+01 -0.68211902431E+01 -0.11949693392E+02  0.13925248859E+02  0.51100000000E-03 0. -1.
        -11    1    3    3    0    0 -0.38723300488E+01  0.32694658553E+01  0.23654721669E+02  0.24191531669E+02  0.51100000000E-03 0.  1.
         12    1    3    3    0    0  0.26332897139E+00  0.89841930955E+01  0.19184012942E+02  0.21185169819E+02  0.00000000000E+00 0. -1.
</event>
<event>
 7    1  0.7578565E-012  0.5930206E+02  0.7816164E-02  0.1266604E+00
        -11   -1    0    0    0    0  0.00000000000E+00  0.00000000000E+00  0.45593999997E+02  0.45594000000E+02  0.51100000000E-03 0.  1.
         11   -1    0    0    0    0 -0.00000000000E+00 -0.00000000000E+00 -0.45593999997E+02  0.45594000000E+02  0.51100000000E-03 0. -1.
    9900012    2    1    2    0    0  0.22172535902E+02 -0.70726293145E+01  0.21796088526E+02  0.59302064092E+02  0.50000218967E+02 0.  0.
         12    1    1    2    0    0 -0.22172535902E+02  0.70726293145E+01 -0.21796088526E+02  0.31885935908E+02  0.00000000000E+00 0. -1.
         11    1    3    3    0    0  0.98174572054E+01  0.99565145820E+01  0.59256463423E+00  0.13995205669E+02  0.51100000000E-03 0. -1.
        -11    1    3    3    0    0  0.11972863418E+02 -0.22627246603E+02  0.27022595905E+02  0.37223143835E+02  0.51100000000E-03 0.  1.
        -12    1    3    3    0    0  0.38221527819E+00  0.55981027070E+01 -0.58190720133E+01  0.80837145875E+01  0.00000000000E+00 0.  1.
</event>
<event>
 7    1  0.7578565E-012  0.5930192E+02  0.7816164E-02  0.1266605E+00
        -11   -1    0    0    0    0  0.00000000000E+00  0.00000000000E+00  0.45593999997E+02  0.45594000000E+02  0.51100000000E-03 0.  1.
         11   -1    0    0    0    0 -0.00000000000E+00 -0.00000000000E+00 -0.45593999997E+02  0.45594000000E+02  0.51100000000E-03 0. -1.
    9900012    2    1    2    0    0 -0.21801191953E+02 -0.22727344088E+02 -0.49897913961E+01  0.59301919055E+02  0.49999954456E+02 0.  0.
         12    1    1    2    0    0  0.21801191953E+02  0.22727344088E+02  0.49897913961E+01  0.31886080945E+02  0.00000000000E+00 0. -1.
         11    1    3    3    0    0  0.54003684375E+01 -0.97311040629E+00 -0.42468947231E+01  0.69388066823E+01  0.51100000000E-03 0. -1.
        -11    1    3    3    0    0 -0.35673823705E+02 -0.20310415436E+02  0.59377146894E+01  0.41477597917E+02  0.51100000000E-03 0.  1.
        -12    1    3    3    0    0  0.84722633147E+01 -0.14438182450E+01 -0.66806113625E+01  0.10885514456E+02  0.00000000000E+00 0.  1.
</event>
<event>
 7    1  0.7578565E-012  0.5930194E+02  0.7816164E-02  0.1266605E+00
        -11   -1    0    0    0    0  0.00000000000E+00  0.00000000000E+00  0.45593999997E+02  0.45594000000E+02  0.51100000000E-03 0.  1.
         11   -1    0    0    0    0 -0.00000000000E+00 -0.00000000000E+00 -0.45593999997E+02  0.45594000000E+02  0.51100000000E-03 0. -1.
    9900012    2    1    2    0    0  0.98902698517E+01 -0.27179711316E+02 -0.13422606511E+02  0.59301944889E+02  0.50000001571E+02 0.  0.
         12    1    1    2    0    0 -0.98902698517E+01  0.27179711316E+02  0.13422606511E+02  0.31886055111E+02  0.00000000000E+00 0. -1.
         11    1    3    3    0    0  0.28520217276E+02 -0.86084184568E+01 -0.49119393768E+01  0.30193290820E+02  0.51100000000E-03 0. -1.
        -11    1    3    3    0    0 -0.12580382807E+02 -0.14619834505E+02 -0.10008053740E+02  0.21729397885E+02  0.51100000000E-03 0.  1.
         12    1    3    3    0    0 -0.60495646173E+01 -0.39514583545E+01  0.14973866057E+01  0.73792561843E+01  0.00000000000E+00 0. -1.
</event>
<event>
 7    1  0.7578565E-012  0.5930194E+02  0.7816164E-02  0.1266605E+00
        -11   -1    0    0    0    0  0.00000000000E+00  0.00000000000E+00  0.45593999997E+02  0.45594000000E+02  0.51100000000E-03 0.  1.
         11   -1    0    0    0    0 -0.00000000000E+00 -0.00000000000E+00 -0.45593999997E+02  0.45594000000E+02  0.51100000000E-03 0. -1.
    9900012    2    1    2    0    0 -0.29680886240E+02 -0.29071332860E+01  0.11283378938E+02  0.59301936082E+02  0.49999985508E+02 0.  0.
         12    1    1    2    0    0  0.29680886240E+02  0.29071332860E+01 -0.11283378938E+02  0.31886063918E+02  0.00000000000E+00 0. -1.
         11    1    3    3    0    0 -0.29359640257E+01  0.62165165294E+01 -0.67189706343E+01  0.96129875255E+01  0.51100000000E-03 0. -1.
        -11    1    3    3    0    0 -0.33487613383E+02  0.17063780041E+01  0.12312868007E+02  0.35720284080E+02  0.51100000000E-03 0.  1.
        -12    1    3    3    0    0  0.67426911679E+01 -0.10830027819E+02  0.56894815653E+01  0.13968664476E+02  0.00000000000E+00 0.  1.
</event>
<event>
 7    1  0.7578565E-012  0.5930194E+02  0.7816164E-02  0.1266605E+00
        -11   -1    0    0    0    0  0.00000000000E+00  0.00000000000E+00  0.45593999997E+02  0.45594000000E+02  0.51100000000E-03 0. -1.
         11   -1    0    0    0    0 -0.00000000000E+00 -0.00000000000E+00 -0.45593999997E+02  0.45594000000E+02  0.51100000000E-03 0.  1.
    9900012    2    1    2    0    0 -0.63991492686E+01 -0.21106365505E+02 -0.23028098003E+02  0.59301936057E+02  0.49999985462E+02 0.  0.
         12    1    1    2    0    0  0.63991492686E+01  0.21106365505E+02  0.23028098003E+02  0.31886063943E+02  0.00000000000E+00 0. -1.
         11    1    3    3    0    0 -0.17577197618E+01 -0.23496074712E+01  0.23248161012E+01  0.37436618698E+01  0.51100000000E-03 0. -1.
        -11    1    3    3    0    0 -0.70809508858E+01 -0.31430747821E+02 -0.27640700222E+02  0.42450442672E+02  0.51100000000E-03 0.  1.
        -12    1    3    3    0    0  0.24395213789E+01  0.12673989787E+02  0.22877861181E+01  0.13107831515E+02  0.00000000000E+00 0.  1.
</event>
<event>
 7    1  0.7578565E-012  0.5930206E+02  0.7816164E-02  0.1266604E+00
        -11   -1    0    0    0    0  0.00000000000E+00  0.00000000000E+00  0.45593999997E+02  0.45594000000E+02  0.51100000000E-03 0.  1.
         11   -1    0    0    0    0 -0.00000000000E+00 -0.00000000000E+00 -0.45593999997E+02  0.45594000000E+02  0.51100000000E-03 0. -1.
    9900012    2    1    2    0    0  0.27555891905E+02  0.15357225636E+02 -0.46412861731E+01  0.59302061167E+02  0.50000213634E+02 0.  0.
         12    1    1    2    0    0 -0.27555891905E+02 -0.15357225636E+02  0.46412861731E+01  0.31885938833E+02  0.00000000000E+00 0. -1.
         11    1    3    3    0    0  0.89353193789E+01 -0.11638853946E+02 -0.29536621494E+01  0.14967530656E+02  0.51100000000E-03 0. -1.
        -11    1    3    3    0    0  0.18750868588E+02  0.25714106599E+02  0.93909068304E+01  0.33181312245E+02  0.51100000000E-03 0.  1.
        -12    1    3    3    0    0 -0.13029606201E+00  0.12819729838E+01 -0.11078530854E+02  0.11153218266E+02  0.00000000000E+00 0.  1.
</event>
<event>
 7    1  0.7578565E-012  0.5930194E+02  0.7816164E-02  0.1266605E+00
        -11   -1    0    0    0    0  0.00000000000E+00  0.00000000000E+00  0.45593999997E+02  0.45594000000E+02  0.51100000000E-03 0. -1.
         11   -1    0    0    0    0 -0.00000000000E+00 -0.00000000000E+00 -0.45593999997E+02  0.45594000000E+02  0.51100000000E-03 0.  1.
    9900012    2    1    2    0    0 -0.25581978618E+02 -0.97386087837E+01 -0.16353678745E+02  0.59301938162E+02  0.49999989301E+02 0.  0.
         12    1    1    2    0    0  0.25581978618E+02  0.97386087837E+01  0.16353678745E+02  0.31886061838E+02  0.00000000000E+00 0. -1.
         11    1    3    3    0    0  0.23027326202E+01 -0.47254265236E+01  0.59538778637E+00  0.52902476527E+01  0.51100000000E-03 0. -1.
        -11    1    3    3    0    0  0.53918925819E+00  0.52696048181E+01 -0.22642146173E+02  0.23253521101E+02  0.51100000000E-03 0.  1.
        -12    1    3    3    0    0 -0.28423900497E+02 -0.10282787078E+02  0.56930796414E+01  0.30758169408E+02  0.00000000000E+00 0.  1.
</event>
<event>
 7    1  0.7578565E-012  0.5930196E+02  0.7816164E-02  0.1266605E+00
        -11   -1    0    0    0    0  0.00000000000E+00  0.00000000000E+00  0.45593999997E+02  0.45594000000E+02  0.51100000000E-03 0. -1.
         11   -1    0    0    0    0 -0.00000000000E+00 -0.00000000000E+00 -0.45593999997E+02  0.45594000000E+02  0.51100000000E-03 0.  1.
    9900012    2    1    2    0    0 -0.20610026138E+02  0.95569324877E+01 -0.22374348287E+02  0.59301959211E+02  0.50000027690E+02 0.  0.
         12    1    1    2    0    0  0.20610026138E+02 -0.95569324877E+01  0.22374348287E+02  0.31886040789E+02  0.00000000000E+00 0. -1.
         11    1    3    3    0    0  0.96293479937E+01  0.48095942924E+01 -0.54468728239E+01  0.12063372823E+02  0.51100000000E-03 0. -1.
        -11    1    3    3    0    0 -0.24241125565E+02 -0.59494820062E+01  0.16090989132E+01  0.25012351036E+02  0.51100000000E-03 0.  1.
        -12    1    3    3    0    0 -0.59982485664E+01  0.10696820201E+02 -0.18536574376E+02  0.22226235351E+02  0.00000000000E+00 0.  1.
</event>
<event>
 7    1  0.7578565E-012  0.5930199E+02  0.7816164E-02  0.1266605E+00
        -11   -1    0    0    0    0  0.00000000000E+00  0.00000000000E+00  0.45593999997E+02  0.45594000000E+02  0.51100000000E-03 0.  1.
         11   -1    0    0    0    0 -0.00000000000E+00 -0.00000000000E+00 -0.45593999997E+02  0.45594000000E+02  0.51100000000E-03 0. -1.
    9900012    2    1    2    0    0 -0.55750463695E+01  0.29364067595E+02  0.11108002739E+02  0.59301994722E+02  0.50000092454E+02 0.  0.
         12    1    1    2    0    0  0.55750463695E+01 -0.29364067595E+02 -0.11108002739E+02  0.31886005278E+02  0.00000000000E+00 0. -1.
         11    1    3    3    0    0 -0.82284042125E+01  0.13112404842E+02  0.25658344212E+02  0.29966521730E+02  0.51100000000E-03 0.  1.
        -11    1    3    3    0    0  0.32101128265E+01  0.19463551115E+02 -0.16341506567E+02  0.25616000537E+02  0.51100000000E-03 0. -1.
         12    1    3    3    0    0 -0.55675498355E+00 -0.32118883611E+01  0.17911650937E+01  0.37194724557E+01  0.00000000000E+00 0. -1.
</event>
<event>
 7    1  0.7578565E-012  0.5930217E+02  0.7816164E-02  0.1266604E+00
        -11   -1    0    0    0    0  0.00000000000E+00  0.00000000000E+00  0.45593999997E+02  0.45594000000E+02  0.51100000000E-03 0.  1.
         11   -1    0    0    0    0 -0.00000000000E+00 -0.00000000000E+00 -0.45593999997E+02  0.45594000000E+02  0.51100000000E-03 0. -1.
    9900012    2    1    2    0    0  0.21940779664E+02  0.13452725063E+02  0.18823728152E+02  0.59302166697E+02  0.50000406094E+02 0.  0.
         12    1    1    2    0    0 -0.21940779664E+02 -0.13452725063E+02 -0.18823728152E+02  0.31885833303E+02  0.00000000000E+00 0. -1.
         11    1    3    3    0    0 -0.65693843312E+01 -0.91365410809E+01  0.54411758563E+01  0.12499583528E+02  0.51100000000E-03 0. -1.
        -11    1    3    3    0    0  0.18579416731E+01  0.16760494804E+02  0.91759810671E+01  0.19198040580E+02  0.51100000000E-03 0.  1.
        -12    1    3    3    0    0  0.26652222322E+02  0.58287713402E+01  0.42065712290E+01  0.27604542589E+02  0.00000000000E+00 0.  1.
</event>
<event>
 7    1  0.7578565E-012  0.5930191E+02  0.7816164E-02  0.1266605E+00
        -11   -1    0    0    0    0  0.00000000000E+00  0.00000000000E+00  0.45593999997E+02  0.45594000000E+02  0.51100000000E-03 0.  1.
         11   -1    0    0    0    0 -0.00000000000E+00 -0.00000000000E+00 -0.45593999997E+02  0.45594000000E+02  0.51100000000E-03 0. -1.
    9900012    2    1    2    0    0 -0.85217911208E+01  0.13770976113E+02  0.27467468349E+02  0.59301913309E+02  0.49999943976E+02 0.  0.
         12    1    1    2    0    0  0.85217911208E+01 -0.13770976113E+02 -0.27467468349E+02  0.31886086691E+02  0.00000000000E+00 0. -1.
         11    1    3    3    0    0 -0.17616016322E+02 -0.92171018243E+01  0.36217093834E+01  0.20208804423E+02  0.51100000000E-03 0. -1.
        -11    1    3    3    0    0 -0.56269963710E+01  0.82258108025E+01  0.96372184962E+01  0.13863730815E+02  0.51100000000E-03 0.  1.
         12    1    3    3    0    0  0.14721221572E+02  0.14762267134E+02  0.14208540469E+02  0.25229378070E+02  0.00000000000E+00 0. -1.
</event>
<event>
 7    1  0.7578565E-012  0.5930187E+02  0.7816164E-02  0.1266605E+00
        -11   -1    0    0    0    0  0.00000000000E+00  0.00000000000E+00  0.45593999997E+02  0.45594000000E+02  0.51100000000E-03 0.  1.
         11   -1    0    0    0    0 -0.00000000000E+00 -0.00000000000E+00 -0.45593999997E+02  0.45594000000E+02  0.51100000000E-03 0. -1.
    9900012    2    1    2    0    0  0.13191373252E+01 -0.22324433899E+02  0.22728943168E+02  0.59301869320E+02  0.49999863751E+02 0.  0.
         12    1    1    2    0    0 -0.13191373252E+01  0.22324433899E+02 -0.22728943168E+02  0.31886130680E+02  0.00000000000E+00 0. -1.
         11    1    3    3    0    0  0.28405710696E+01 -0.33427490150E+01 -0.13134054896E+01  0.45790664135E+01  0.51100000000E-03 0. -1.
        -11    1    3    3    0    0  0.14897523055E+01 -0.96262479406E+01  0.37112653712E+02  0.38369689563E+02  0.51100000000E-03 0.  1.
        -12    1    3    3    0    0 -0.30111860499E+01 -0.93554369436E+01 -0.13070305054E+02  0.16353113344E+02  0.00000000000E+00 0.  1.
</event>
<event>
 7    1  0.7578565E-012  0.5930198E+02  0.7816164E-02  0.1266605E+00
        -11   -1    0    0    0    0  0.00000000000E+00  0.00000000000E+00  0.45593999997E+02  0.45594000000E+02  0.51100000000E-03 0. -1.
         11   -1    0    0    0    0 -0.00000000000E+00 -0.00000000000E+00 -0.45593999997E+02  0.45594000000E+02  0.51100000000E-03 0.  1.
    9900012    2    1    2    0    0 -0.75775710270E+01  0.74177214895E+01 -0.30071182887E+02  0.59301980885E+02  0.50000067219E+02 0.  0.
         12    1    1    2    0    0  0.75775710270E+01 -0.74177214895E+01  0.30071182887E+02  0.31886019115E+02  0.00000000000E+00 0. -1.
         11    1    3    3    0    0  0.20398218588E+00  0.26404427553E+01  0.11922726789E+02  0.12213310813E+02  0.51100000000E-03 0. -1.
        -11    1    3    3    0    0 -0.95537297381E+01  0.11007345857E+02 -0.32220204789E+02  0.35363498294E+02  0.51100000000E-03 0.  1.
         12    1    3    3    0    0  0.17721765252E+01 -0.62300671228E+01 -0.97737048873E+01  0.11725171778E+02  0.00000000000E+00 0. -1.
</event>
<event>
 7    1  0.7578565E-012  0.5930190E+02  0.7816164E-02  0.1266605E+00
        -11   -1    0    0    0    0  0.00000000000E+00  0.00000000000E+00  0.45593999997E+02  0.45594000000E+02  0.51100000000E-03 0.  1.
         11   -1    0    0    0    0 -0.00000000000E+00 -0.00000000000E+00 -0.45593999997E+02  0.45594000000E+02  0.51100000000E-03 0. -1.
    9900012    2    1    2    0    0 -0.98071166122E+01 -0.25221394423E+02  0.16864907366E+02  0.59301899998E+02  0.49999919700E+02 0.  0.
         12    1    1    2    0    0  0.98071166122E+01  0.25221394423E+02 -0.16864907366E+02  0.31886100002E+02  0.00000000000E+00 0. -1.
         11    1    3    3    0    0  0.46942442396E+01 -0.18396817300E+02 -0.13664785324E+02  0.23392417019E+02  0.51100000000E-03 0. -1.
        -11    1    3    3    0    0 -0.13102405738E+02 -0.36518565024E+01  0.16135973383E+02  0.21103997946E+02  0.51100000000E-03 0.  1.
         12    1    3    3    0    0 -0.13989551139E+01 -0.31727206204E+01  0.14393719308E+02  0.14805485033E+02  0.00000000000E+00 0. -1.
</event>
<event>
 7    1  0.7578565E-012  0.5930195E+02  0.7816164E-02  0.1266605E+00
        -11   -1    0    0    0    0  0.00000000000E+00  0.00000000000E+00  0.45593999997E+02  0.45594000000E+02  0.51100000000E-03 0.  1.
         11   -1    0    0    0    0 -0.00000000000E+00 -0.00000000000E+00 -0.45593999997E+02  0.45594000000E+02  0.51100000000E-03 0. -1.
    9900012    2    1    2    0    0  0.30419456980E+02 -0.66140518731E+01  0.69015142140E+01  0.59301953780E+02  0.50000017785E+02 0.  0.
         12    1    1    2    0    0 -0.30419456980E+02  0.66140518731E+01 -0.69015142140E+01  0.31886046220E+02  0.00000000000E+00 0. -1.
         11    1    3    3    0    0  0.35993991275E+02  0.44562693131E+01 -0.22780469131E+01  0.36340270253E+02  0.51100000000E-03 0. -1.
        -11    1    3    3    0    0  0.10007290280E+01 -0.88097950583E+00  0.10661707712E+02  0.10744747325E+02  0.51100000000E-03 0.  1.
         12    1    3    3    0    0 -0.65752633228E+01 -0.10189341680E+02 -0.14821465853E+01  0.12216936201E+02  0.00000000000E+00 0. -1.
</event>
<event>
 7    1  0.7578565E-012  0.5930193E+02  0.7816164E-02  0.1266605E+00
        -11   -1    0    0    0    0  0.00000000000E+00  0.00000000000E+00  0.45593999997E+02  0.45594000000E+02  0.51100000000E-03 0.  1.
         11   -1    0    0    0    0 -0.00000000000E+00 -0.00000000000E+00 -0.45593999997E+02  0.45594000000E+02  0.51100000000E-03 0. -1.
    9900012    2    1    2    0    0 -0.10452227494E+02 -0.34412843846E+01  0.29927072677E+02  0.59301934441E+02  0.49999982516E+02 0.  0.
         12    1    1    2    0    0  0.10452227494E+02  0.34412843846E+01 -0.29927072677E+02  0.31886065559E+02  0.00000000000E+00 0. -1.
         11    1    3    3    0    0 -0.42464944365E+01  0.19106069754E+02  0.24072937277E+02  0.31025488326E+02  0.51100000000E-03 0. -1.
        -11    1    3    3    0    0 -0.11456600343E+01 -0.44564887056E+01  0.81421675617E+01  0.93524179420E+01  0.51100000000E-03 0.  1.
         12    1    3    3    0    0 -0.50600730235E+01 -0.18090865433E+02 -0.22880321619E+01  0.18924028173E+02  0.00000000000E+00 0. -1.
</event>
<event>
 7    1  0.7578565E-012  0.5930228E+02  0.7816164E-02  0.1266604E+00
        -11   -1    0    0    0    0  0.00000000000E+00  0.00000000000E+00  0.45593999997E+02  0.45594000000E+02  0.51100000000E-03 0.  1.
         11   -1    0    0    0    0 -0.00000000000E+00 -0.00000000000E+00 -0.45593999997E+02  0.45594000000E+02  0.51100000000E-03 0. -1.
    9900012    2    1    2    0    0  0.31239030090E+02  0.41622769618E+01  0.48474567005E+01  0.59302276126E+02  0.50000605664E+02 0.  0.
         12    1    1    2    0    0 -0.31239030090E+02 -0.41622769618E+01 -0.48474567005E+01  0.31885723874E+02  0.00000000000E+00 0. -1.
         11    1    3    3    0    0 -0.66446443591E+01 -0.46231615462E+01  0.64285336874E+00  0.81202328819E+01  0.51100000000E-03 0. -1.
        -11    1    3    3    0    0  0.32847320038E+02  0.13132301285E+02  0.15062203519E+02  0.38448325657E+02  0.51100000000E-03 0.  1.
        -12    1    3    3    0    0  0.50363544121E+01 -0.43468627767E+01 -0.10857600188E+02  0.12733717588E+02  0.00000000000E+00 0.  1.
</event>
<event>
 7    1  0.7578565E-012  0.5930194E+02  0.7816164E-02  0.1266605E+00
        -11   -1    0    0    0    0  0.00000000000E+00  0.00000000000E+00  0.45593999997E+02  0.45594000000E+02  0.51100000000E-03 0.  1.
         11   -1    0    0    0    0 -0.00000000000E+00 -0.00000000000E+00 -0.45593999997E+02  0.45594000000E+02  0.51100000000E-03 0. -1.
    9900012    2    1    2    0    0 -0.10548595055E+01  0.12218275323E+01  0.31845176165E+02  0.59301939785E+02  0.49999992261E+02 0.  0.
         12    1    1    2    0    0  0.10548595055E+01 -0.12218275323E+01 -0.31845176165E+02  0.31886060215E+02  0.00000000000E+00 0. -1.
         11    1    3    3    0    0 -0.13878151283E+02  0.10478774813E+02  0.79932480440E+01  0.19138960765E+02  0.51100000000E-03 0. -1.
        -11    1    3    3    0    0  0.38667113181E+01 -0.18179306428E+02  0.89738941002E+01  0.20639026484E+02  0.51100000000E-03 0.  1.
        -12    1    3    3    0    0  0.89565804595E+01  0.89223591471E+01  0.14878034021E+02  0.19523952535E+02  0.00000000000E+00 0.  1.
</event>
<event>
 7    1  0.7578565E-012  0.5930203E+02  0.7816164E-02  0.1266604E+00
        -11   -1    0    0    0    0  0.00000000000E+00  0.00000000000E+00  0.45593999997E+02  0.45594000000E+02  0.51100000000E-03 0.  1.
         11   -1    0    0    0    0 -0.00000000000E+00 -0.00000000000E+00 -0.45593999997E+02  0.45594000000E+02  0.51100000000E-03 0. -1.
    9900012    2    1    2    0    0  0.21951040910E+02  0.26504553122E+01  0.22974809328E+02  0.59302031706E+02  0.50000159903E+02 0.  0.
         12    1    1    2    0    0 -0.21951040910E+02 -0.26504553122E+01 -0.22974809328E+02  0.31885968294E+02  0.00000000000E+00 0. -1.
         11    1    3    3    0    0 -0.63666440594E+01 -0.15314267591E+02  0.17773918681E+02  0.24309938995E+02  0.51100000000E-03 0. -1.
        -11    1    3    3    0    0  0.11236230182E+02  0.91745059022E+01  0.61552034234E+01  0.15757885540E+02  0.51100000000E-03 0.  1.
         12    1    3    3    0    0  0.17081454788E+02  0.87902170013E+01 -0.95431277584E+00  0.19234207170E+02  0.00000000000E+00 0. -1.
</event>
<event>
 7    1  0.7578565E-012  0.5930197E+02  0.7816164E-02  0.1266605E+00
        -11   -1    0    0    0    0  0.00000000000E+00  0.00000000000E+00  0.45593999997E+02  0.45594000000E+02  0.51100000000E-03 0.  1.
         11   -1    0    0    0    0 -0.00000000000E+00 -0.00000000000E+00 -0.45593999997E+02  0.45594000000E+02  0.51100000000E-03 0. -1.
    9900012    2    1    2    0    0  0.25387076085E+02  0.48589686147E+01  0.18670986141E+02  0.59301969647E+02  0.50000046724E+02 0.  0.
         12    1    1    2    0    0 -0.25387076085E+02 -0.48589686147E+01 -0.18670986141E+02  0.31886030353E+02  0.00000000000E+00 0. -1.
         11    1    3    3    0    0  0.55671187959E+01  0.92404896340E+01 -0.12408197857E+02  0.16442105543E+02  0.51100000000E-03 0. -1.
        -11    1    3    3    0    0  0.24389292349E+02 -0.28091077082E+01  0.27374910955E+02  0.36771108461E+02  0.51100000000E-03 0.  1.
        -12    1    3    3    0    0 -0.45693350594E+01 -0.15724133111E+01  0.37042730437E+01  0.60887556436E+01  0.00000000000E+00 0.  1.
</event>
<event>
 7    1  0.7578565E-012  0.5930194E+02  0.7816164E-02  0.1266605E+00
        -11   -1    0    0    0    0  0.00000000000E+00  0.00000000000E+00  0.45593999997E+02  0.45594000000E+02  0.51100000000E-03 0.  1.
         11   -1    0    0    0    0 -0.00000000000E+00 -0.00000000000E+00 -0.45593999997E+02  0.45594000000E+02  0.51100000000E-03 0. -1.
    9900012    2    1    2    0    0 -0.26871749964E+02 -0.16327471011E+02  0.52956210934E+01  0.59301939433E+02  0.49999991620E+02 0.  0.
         12    1    1    2    0    0  0.26871749964E+02  0.16327471011E+02 -0.52956210934E+01  0.31886060567E+02  0.00000000000E+00 0. -1.
         11    1    3    3    0    0 -0.34152625971E+02 -0.16964013044E+02  0.10419414383E+02  0.39531554429E+02  0.51100000000E-03 0. -1.
        -11    1    3    3    0    0  0.92746031726E+01 -0.55237837557E+01  0.10219525613E+01  0.10843193178E+02  0.51100000000E-03 0.  1.
         12    1    3    3    0    0 -0.19937271656E+01  0.61603257886E+01 -0.61457458512E+01  0.89271918261E+01  0.00000000000E+00 0. -1.
</event>
<event>
 7    1  0.7578565E-012  0.5930198E+02  0.7816164E-02  0.1266605E+00
        -11   -1    0    0    0    0  0.00000000000E+00  0.00000000000E+00  0.45593999997E+02  0.45594000000E+02  0.51100000000E-03 0. -1.
         11   -1    0    0    0    0 -0.00000000000E+00 -0.00000000000E+00 -0.45593999997E+02  0.45594000000E+02  0.51100000000E-03 0.  1.
    9900012    2    1    2    0    0 -0.29892835680E+02  0.42427526843E+01 -0.10253561015E+02  0.59301982864E+02  0.50000070828E+02 0.  0.
         12    1    1    2    0    0  0.29892835680E+02 -0.42427526843E+01  0.10253561015E+02  0.31886017136E+02  0.00000000000E+00 0. -1.
         11    1    3    3    0    0  0.11599563026E+02  0.25248259874E+01 -0.12458113287E+02  0.17208404795E+02  0.51100000000E-03 0. -1.
        -11    1    3    3    0    0 -0.85278782794E+01 -0.20735608242E+01 -0.57733663550E+00  0.87953215002E+01  0.51100000000E-03 0.  1.
         12    1    3    3    0    0 -0.32964520427E+02  0.37914875211E+01  0.27818889074E+01  0.33298256568E+02  0.00000000000E+00 0. -1.
</event>
<event>
 7    1  0.7578565E-012  0.5930192E+02  0.7816164E-02  0.1266605E+00
        -11   -1    0    0    0    0  0.00000000000E+00  0.00000000000E+00  0.45593999997E+02  0.45594000000E+02  0.51100000000E-03 0.  1.
         11   -1    0    0    0    0 -0.00000000000E+00 -0.00000000000E+00 -0.45593999997E+02  0.45594000000E+02  0.51100000000E-03 0. -1.
    9900012    2    1    2    0    0 -0.12679774914E+02  0.10701317733E+02  0.27229164194E+02  0.59301917208E+02  0.49999951088E+02 0.  0.
         12    1    1    2    0    0  0.12679774914E+02 -0.10701317733E+02 -0.27229164194E+02  0.31886082792E+02  0.00000000000E+00 0. -1.
         11    1    3    3    0    0 -0.21919189061E+02  0.26089532316E+02  0.19032873228E+02  0.39030306291E+02  0.51100000000E-03 0. -1.
        -11    1    3    3    0    0  0.44152867343E+01 -0.73076600071E+01  0.64488127940E+01  0.10699712073E+02  0.51100000000E-03 0.  1.
         12    1    3    3    0    0  0.48241274128E+01 -0.80805545753E+01  0.17474781716E+01  0.95718988451E+01  0.00000000000E+00 0. -1.
</event>
<event>
 7    1  0.7578565E-012  0.5930201E+02  0.7816164E-02  0.1266605E+00
        -11   -1    0    0    0    0  0.00000000000E+00  0.00000000000E+00  0.45593999997E+02  0.45594000000E+02  0.51100000000E-03 0.  1.
         11   -1    0    0    0    0 -0.00000000000E+00 -0.00000000000E+00 -0.45593999997E+02  0.45594000000E+02  0.51100000000E-03 0. -1.
    9900012    2    1    2    0    0  0.79319232646E+01  0.40080090561E+01  0.30622483964E+02  0.59302014561E+02  0.50000128636E+02 0.  0.
         12    1    1    2    0    0 -0.79319232646E+01 -0.40080090561E+01 -0.30622483964E+02  0.31885985439E+02  0.00000000000E+00 0. -1.
         11    1    3    3    0    0 -0.74361380503E+00 -0.19080550549E+02  0.38352334807E+01  0.19476380230E+02  0.51100000000E-03 0. -1.
        -11    1    3    3    0    0  0.77945722261E+00  0.52475656837E+01  0.17368917875E+02  0.18161051940E+02  0.51100000000E-03 0.  1.
         12    1    3    3    0    0  0.78960798470E+01  0.17840993922E+02  0.94183326083E+01  0.21664582391E+02  0.00000000000E+00 0. -1.
</event>
<event>
 7    1  0.7578565E-012  0.5930194E+02  0.7816164E-02  0.1266605E+00
        -11   -1    0    0    0    0  0.00000000000E+00  0.00000000000E+00  0.45593999997E+02  0.45594000000E+02  0.51100000000E-03 0.  1.
         11   -1    0    0    0    0 -0.00000000000E+00 -0.00000000000E+00 -0.45593999997E+02  0.45594000000E+02  0.51100000000E-03 0. -1.
    9900012    2    1    2    0    0  0.15138698123E+02 -0.28959253442E+01  0.27913331687E+02  0.59301942697E+02  0.49999997573E+02 0.  0.
         12    1    1    2    0    0 -0.15138698123E+02  0.28959253442E+01 -0.27913331687E+02  0.31886057303E+02  0.00000000000E+00 0. -1.
         11    1    3    3    0    0  0.19573235127E+02 -0.12512566657E+02  0.12964109619E+01  0.23267069848E+02  0.51100000000E-03 0. -1.
        -11    1    3    3    0    0 -0.77478221596E+01  0.12626872327E+02  0.27714748441E+02  0.31425689084E+02  0.51100000000E-03 0.  1.
        -12    1    3    3    0    0  0.33132851557E+01 -0.30102310145E+01 -0.10978277163E+01  0.46091837649E+01  0.00000000000E+00 0.  1.
</event>
<event>
 7    1  0.7578565E-012  0.5930188E+02  0.7816164E-02  0.1266605E+00
        -11   -1    0    0    0    0  0.00000000000E+00  0.00000000000E+00  0.45593999997E+02  0.45594000000E+02  0.51100000000E-03 0. -1.
         11   -1    0    0    0    0 -0.00000000000E+00 -0.00000000000E+00 -0.45593999997E+02  0.45594000000E+02  0.51100000000E-03 0.  1.
    9900012    2    1    2    0    0 -0.27260646152E+02 -0.11274728928E+02 -0.12102155573E+02  0.59301882166E+02  0.49999887178E+02 0.  0.
         12    1    1    2    0    0  0.27260646152E+02  0.11274728928E+02  0.12102155573E+02  0.31886117834E+02  0.00000000000E+00 0. -1.
         11    1    3    3    0    0 -0.25478778246E+02 -0.14473520623E+02  0.83343368692E+01  0.30464932487E+02  0.51100000000E-03 0. -1.
        -11    1    3    3    0    0 -0.48628066462E+01 -0.50233176347E+01 -0.18594472097E+02  0.19865422255E+02  0.51100000000E-03 0.  1.
         12    1    3    3    0    0  0.30809387405E+01  0.82221093294E+01 -0.18420203452E+01  0.89715274229E+01  0.00000000000E+00 0. -1.
</event>
<event>
 7    1  0.7578565E-012  0.5930190E+02  0.7816164E-02  0.1266605E+00
        -11   -1    0    0    0    0  0.00000000000E+00  0.00000000000E+00  0.45593999997E+02  0.45594000000E+02  0.51100000000E-03 0.  1.
         11   -1    0    0    0    0 -0.00000000000E+00 -0.00000000000E+00 -0.45593999997E+02  0.45594000000E+02  0.51100000000E-03 0. -1.
    9900012    2    1    2    0    0  0.14764944526E+01 -0.30284944204E+02  0.98673949323E+01  0.59301900144E+02  0.49999919966E+02 0.  0.
         12    1    1    2    0    0 -0.14764944526E+01  0.30284944204E+02 -0.98673949323E+01  0.31886099856E+02  0.00000000000E+00 0. -1.
         11    1    3    3    0    0  0.12204986002E+01 -0.13444516265E+02 -0.15211323801E+02  0.20337871237E+02  0.51100000000E-03 0. -1.
        -11    1    3    3    0    0  0.36669907485E+01 -0.47775383121E+01  0.25716138991E+02  0.26411957487E+02  0.51100000000E-03 0.  1.
         12    1    3    3    0    0 -0.34109948961E+01 -0.12062889627E+02 -0.63742025751E+00  0.12552071419E+02  0.00000000000E+00 0. -1.
</event>
<event>
 7    1  0.7578565E-012  0.5930195E+02  0.7816164E-02  0.1266605E+00
        -11   -1    0    0    0    0  0.00000000000E+00  0.00000000000E+00  0.45593999997E+02  0.45594000000E+02  0.51100000000E-03 0.  1.
         11   -1    0    0    0    0 -0.00000000000E+00 -0.00000000000E+00 -0.45593999997E+02  0.45594000000E+02  0.51100000000E-03 0. -1.
    9900012    2    1    2    0    0  0.20556071603E+02  0.13156220660E+02  0.20520275643E+02  0.59301953925E+02  0.50000018051E+02 0.  0.
         12    1    1    2    0    0 -0.20556071603E+02 -0.13156220660E+02 -0.20520275643E+02  0.31886046075E+02  0.00000000000E+00 0. -1.
         11    1    3    3    0    0  0.11896064178E+02 -0.13267599563E+02  0.16974867996E+02  0.24610804229E+02  0.51100000000E-03 0. -1.
        -11    1    3    3    0    0  0.13570681484E+02  0.20443314526E+02 -0.27826844756E+01  0.24694854482E+02  0.51100000000E-03 0.  1.
        -12    1    3    3    0    0 -0.49106740580E+01  0.59805056971E+01  0.63280921225E+01  0.99962952141E+01  0.00000000000E+00 0.  1.
</event>
<event>
 7    1  0.7578565E-012  0.5930191E+02  0.7816164E-02  0.1266605E+00
        -11   -1    0    0    0    0  0.00000000000E+00  0.00000000000E+00  0.45593999997E+02  0.45594000000E+02  0.51100000000E-03 0.  1.
         11   -1    0    0    0    0 -0.00000000000E+00 -0.00000000000E+00 -0.45593999997E+02  0.45594000000E+02  0.51100000000E-03 0. -1.
    9900012    2    1    2    0    0 -0.16836453257E+02 -0.14676099567E+02  0.22756725620E+02  0.59301911847E+02  0.49999941309E+02 0.  0.
         12    1    1    2    0    0  0.16836453257E+02  0.14676099567E+02 -0.22756725620E+02  0.31886088153E+02  0.00000000000E+00 0. -1.
         11    1    3    3    0    0  0.89185871388E+01  0.60915645938E+01  0.20286619959E+01  0.10989259552E+02  0.51100000000E-03 0. -1.
        -11    1    3    3    0    0 -0.27536436373E+02 -0.60520573484E+01  0.17366882066E+02  0.33113310303E+02  0.51100000000E-03 0.  1.
        -12    1    3    3    0    0  0.17813959771E+01 -0.14715606813E+02  0.33611815578E+01  0.15199341991E+02  0.00000000000E+00 0.  1.
</event>
<event>
 7    1  0.7578565E-012  0.5930197E+02  0.7816164E-02  0.1266605E+00
        -11   -1    0    0    0    0  0.00000000000E+00  0.00000000000E+00  0.45593999997E+02  0.45594000000E+02  0.51100000000E-03 0.  1.
         11   -1    0    0    0    0 -0.00000000000E+00 -0.00000000000E+00 -0.45593999997E+02  0.45594000000E+02  0.51100000000E-03 0. -1.
    9900012    2    1    2    0    0 -0.83487443723E+01  0.22445466772E+02  0.21052757577E+02  0.59301966807E+02  0.50000041543E+02 0.  0.
         12    1    1    2    0    0  0.83487443723E+01 -0.22445466772E+02 -0.21052757577E+02  0.31886033193E+02  0.00000000000E+00 0. -1.
         11    1    3    3    0    0 -0.26644886863E+02  0.10631982783E+02  0.17622082226E+01  0.28741858533E+02  0.51100000000E-03 0.  1.
        -11    1    3    3    0    0  0.18686627051E+02  0.12505788623E+02  0.17157087461E+02  0.28283394953E+02  0.51100000000E-03 0. -1.
        -12    1    3    3    0    0 -0.39048456046E+00 -0.69230463352E+00  0.21334618929E+01  0.22767133210E+01  0.00000000000E+00 0.  1.
</event>
<event>
 7    1  0.7578565E-012  0.5930193E+02  0.7816164E-02  0.1266605E+00
        -11   -1    0    0    0    0  0.00000000000E+00  0.00000000000E+00  0.45593999997E+02  0.45594000000E+02  0.51100000000E-03 0. -1.
         11   -1    0    0    0    0 -0.00000000000E+00 -0.00000000000E+00 -0.45593999997E+02  0.45594000000E+02  0.51100000000E-03 0.  1.
    9900012    2    1    2    0    0 -0.12000948475E+02  0.24024271226E+02 -0.17191078029E+02  0.59301928808E+02  0.49999972244E+02 0.  0.
         12    1    1    2    0    0  0.12000948475E+02 -0.24024271226E+02  0.17191078029E+02  0.31886071192E+02  0.00000000000E+00 0. -1.
         11    1    3    3    0    0 -0.10852852982E+02  0.42796611862E+01 -0.20431313755E+02  0.23527398916E+02  0.51100000000E-03 0.  1.
        -11    1    3    3    0    0 -0.10305861228E+01  0.27423102193E+02  0.50045893342E+01  0.27895063296E+02  0.51100000000E-03 0. -1.
         12    1    3    3    0    0 -0.11750937099E+00 -0.76784921529E+01 -0.17643536077E+01  0.78794665966E+01  0.00000000000E+00 0. -1.
</event>
<event>
 7    1  0.7578565E-012  0.5930193E+02  0.7816164E-02  0.1266605E+00
        -11   -1    0    0    0    0  0.00000000000E+00  0.00000000000E+00  0.45593999997E+02  0.45594000000E+02  0.51100000000E-03 0.  1.
         11   -1    0    0    0    0 -0.00000000000E+00 -0.00000000000E+00 -0.45593999997E+02  0.45594000000E+02  0.51100000000E-03 0. -1.
    9900012    2    1    2    0    0  0.27219196458E+02  0.15719676262E+02  0.53598820704E+01  0.59301933868E+02  0.49999981471E+02 0.  0.
         12    1    1    2    0    0 -0.27219196458E+02 -0.15719676262E+02 -0.53598820704E+01  0.31886066132E+02  0.00000000000E+00 0. -1.
         11    1    3    3    0    0 -0.12106187555E+02 -0.63936646369E+00 -0.14962030931E+01  0.12215039523E+02  0.51100000000E-03 0. -1.
        -11    1    3    3    0    0  0.30105631614E+02  0.18883513178E+02  0.10178730201E+02  0.36966777972E+02  0.51100000000E-03 0.  1.
         12    1    3    3    0    0  0.92197523985E+01 -0.25244704530E+01 -0.33226450377E+01  0.10120116373E+02  0.00000000000E+00 0. -1.
</event>
<event>
 7    1  0.7578565E-012  0.5930203E+02  0.7816164E-02  0.1266604E+00
        -11   -1    0    0    0    0  0.00000000000E+00  0.00000000000E+00  0.45593999997E+02  0.45594000000E+02  0.51100000000E-03 0.  1.
         11   -1    0    0    0    0 -0.00000000000E+00 -0.00000000000E+00 -0.45593999997E+02  0.45594000000E+02  0.51100000000E-03 0. -1.
    9900012    2    1    2    0    0 -0.99544047561E+01  0.16048620885E+02  0.25691766985E+02  0.59302026639E+02  0.50000150663E+02 0.  0.
         12    1    1    2    0    0  0.99544047561E+01 -0.16048620885E+02 -0.25691766985E+02  0.31885973361E+02  0.00000000000E+00 0. -1.
         11    1    3    3    0    0 -0.39368013604E+01 -0.81358061520E+01  0.83885774424E+01  0.12331179119E+02  0.51100000000E-03 0.  1.
        -11    1    3    3    0    0 -0.57361713827E+01  0.16363318442E+02 -0.89942846274E+01  0.19533535491E+02  0.51100000000E-03 0. -1.
        -12    1    3    3    0    0 -0.28143201296E+00  0.78211085951E+01  0.26297474170E+02  0.27437312029E+02  0.00000000000E+00 0.  1.
</event>
<event>
 7    1  0.7578565E-012  0.5930193E+02  0.7816164E-02  0.1266605E+00
        -11   -1    0    0    0    0  0.00000000000E+00  0.00000000000E+00  0.45593999997E+02  0.45594000000E+02  0.51100000000E-03 0.  1.
         11   -1    0    0    0    0 -0.00000000000E+00 -0.00000000000E+00 -0.45593999997E+02  0.45594000000E+02  0.51100000000E-03 0. -1.
    9900012    2    1    2    0    0 -0.40907758742E+01 -0.31565506011E+02 -0.18989361062E+01  0.59301928192E+02  0.49999971120E+02 0.  0.
         12    1    1    2    0    0  0.40907758742E+01  0.31565506011E+02  0.18989361062E+01  0.31886071808E+02  0.00000000000E+00 0. -1.
         11    1    3    3    0    0 -0.18622973832E+02 -0.21789862599E+02 -0.57101339094E+01  0.29227023386E+02  0.51100000000E-03 0. -1.
        -11    1    3    3    0    0  0.16344386765E+02  0.32507943130E+01  0.26192384452E+01  0.16869115350E+02  0.51100000000E-03 0.  1.
         12    1    3    3    0    0 -0.18121888072E+01 -0.13026437725E+02  0.11919593580E+01  0.13205789457E+02  0.00000000000E+00 0. -1.
</event>
<event>
 7    1  0.7578565E-012  0.5930197E+02  0.7816164E-02  0.1266605E+00
        -11   -1    0    0    0    0  0.00000000000E+00  0.00000000000E+00  0.45593999997E+02  0.45594000000E+02  0.51100000000E-03 0.  1.
         11   -1    0    0    0    0 -0.00000000000E+00 -0.00000000000E+00 -0.45593999997E+02  0.45594000000E+02  0.51100000000E-03 0. -1.
    9900012    2    1    2    0    0  0.23370444146E+02 -0.18269387489E+02  0.11694912755E+02  0.59301966017E+02  0.50000040103E+02 0.  0.
         12    1    1    2    0    0 -0.23370444146E+02  0.18269387489E+02 -0.11694912755E+02  0.31886033983E+02  0.00000000000E+00 0. -1.
         11    1    3    3    0    0  0.11626311505E+01 -0.23779862862E+01 -0.98826359464E+00  0.28254548595E+01  0.51100000000E-03 0. -1.
        -11    1    3    3    0    0  0.32263418319E+02 -0.85134551686E+00  0.18833413688E+02  0.37367772508E+02  0.51100000000E-03 0.  1.
        -12    1    3    3    0    0 -0.10055605324E+02 -0.15040055686E+02 -0.61502373377E+01  0.19108738649E+02  0.00000000000E+00 0.  1.
</event>
<event>
 7    1  0.7578565E-012  0.5930193E+02  0.7816164E-02  0.1266605E+00
        -11   -1    0    0    0    0  0.00000000000E+00  0.00000000000E+00  0.45593999997E+02  0.45594000000E+02  0.51100000000E-03 0.  1.
         11   -1    0    0    0    0 -0.00000000000E+00 -0.00000000000E+00 -0.45593999997E+02  0.45594000000E+02  0.51100000000E-03 0. -1.
    9900012    2    1    2    0    0  0.23362019091E+02  0.14599868427E+02  0.16055564770E+02  0.59301933228E+02  0.49999980305E+02 0.  0.
         12    1    1    2    0    0 -0.23362019091E+02 -0.14599868427E+02 -0.16055564770E+02  0.31886066772E+02  0.00000000000E+00 0. -1.
         11    1    3    3    0    0  0.12670835590E+02  0.76370791804E+01 -0.97872592545E+01  0.17738813290E+02  0.51100000000E-03 0. -1.
        -11    1    3    3    0    0  0.79935204028E+01 -0.16305983436E+00  0.31226406622E+02  0.32233700187E+02  0.51100000000E-03 0.  1.
        -12    1    3    3    0    0  0.26976630978E+01  0.71258490813E+01 -0.53835825978E+01  0.93294197518E+01  0.00000000000E+00 0.  1.
</event>
<event>
 7    1  0.7578565E-012  0.5930193E+02  0.7816164E-02  0.1266605E+00
        -11   -1    0    0    0    0  0.00000000000E+00  0.00000000000E+00  0.45593999997E+02  0.45594000000E+02  0.51100000000E-03 0. -1.
         11   -1    0    0    0    0 -0.00000000000E+00 -0.00000000000E+00 -0.45593999997E+02  0.45594000000E+02  0.51100000000E-03 0.  1.
    9900012    2    1    2    0    0  0.21784156763E+02  0.30895551194E+01 -0.23078701816E+02  0.59301932287E+02  0.49999978588E+02 0.  0.
         12    1    1    2    0    0 -0.21784156763E+02 -0.30895551194E+01  0.23078701816E+02  0.31886067713E+02  0.00000000000E+00 0. -1.
         11    1    3    3    0    0 -0.29424241143E+01 -0.14817176262E+02  0.98561249174E+00  0.15138626235E+02  0.51100000000E-03 0. -1.
        -11    1    3    3    0    0  0.27566672968E+02  0.11570264831E+02 -0.17693943738E+02  0.34740007658E+02  0.51100000000E-03 0.  1.
        -12    1    3    3    0    0 -0.28400920910E+01  0.63364665504E+01 -0.63703705696E+01  0.94232983940E+01  0.00000000000E+00 0.  1.
</event>
<event>
 7    1  0.7578565E-012  0.5930194E+02  0.7816164E-02  0.1266605E+00
        -11   -1    0    0    0    0  0.00000000000E+00  0.00000000000E+00  0.45593999997E+02  0.45594000000E+02  0.51100000000E-03 0.  1.
         11   -1    0    0    0    0 -0.00000000000E+00 -0.00000000000E+00 -0.45593999997E+02  0.45594000000E+02  0.51100000000E-03 0. -1.
    9900012    2    1    2    0    0  0.81909469526E+01  0.47943804261E+01  0.30440816502E+02  0.59301937136E+02  0.49999987431E+02 0.  0.
         12    1    1    2    0    0 -0.81909469526E+01 -0.47943804261E+01 -0.30440816502E+02  0.31886062864E+02  0.00000000000E+00 0. -1.
         11    1    3    3    0    0 -0.17399821547E+01  0.84435106562E+01  0.19404226321E+01  0.88366085323E+01  0.51100000000E-03 0. -1.
        -11    1    3    3    0    0  0.14959209145E+02 -0.16942921362E+02  0.28343075759E+02  0.36251489159E+02  0.51100000000E-03 0.  1.
        -12    1    3    3    0    0 -0.50282800373E+01  0.13293791131E+02  0.15731811147E+00  0.14213839445E+02  0.00000000000E+00 0.  1.
</event>
<event>
 7    1  0.7578565E-012  0.5930194E+02  0.7816164E-02  0.1266605E+00
        -11   -1    0    0    0    0  0.00000000000E+00  0.00000000000E+00  0.45593999997E+02  0.45594000000E+02  0.51100000000E-03 0. -1.
         11   -1    0    0    0    0 -0.00000000000E+00 -0.00000000000E+00 -0.45593999997E+02  0.45594000000E+02  0.51100000000E-03 0.  1.
    9900012    2    1    2    0    0 -0.18947470503E+02  0.18415556556E+02 -0.17848849374E+02  0.59301940574E+02  0.49999993701E+02 0.  0.
         12    1    1    2    0    0  0.18947470503E+02 -0.18415556556E+02  0.17848849374E+02  0.31886059426E+02  0.00000000000E+00 0. -1.
         11    1    3    3    0    0 -0.66456467740E+00  0.44652582852E+01  0.10387561732E+02  0.11326147481E+02  0.51100000000E-03 0. -1.
        -11    1    3    3    0    0 -0.62920052619E+01  0.22803266745E+02 -0.14765550882E+02  0.27885476463E+02  0.51100000000E-03 0.  1.
        -12    1    3    3    0    0 -0.11990900564E+02 -0.88529684737E+01 -0.13470860224E+02  0.20090316630E+02  0.00000000000E+00 0.  1.
</event>
<event>
 7    1  0.7578565E-012  0.5930196E+02  0.7816164E-02  0.1266605E+00
        -11   -1    0    0    0    0  0.00000000000E+00  0.00000000000E+00  0.45593999997E+02  0.45594000000E+02  0.51100000000E-03 0.  1.
         11   -1    0    0    0    0 -0.00000000000E+00 -0.00000000000E+00 -0.45593999997E+02  0.45594000000E+02  0.51100000000E-03 0. -1.
    9900012    2    1    2    0    0  0.16502476474E+01 -0.21155042876E+02  0.23800428939E+02  0.59301959574E+02  0.50000028353E+02 0.  0.
         12    1    1    2    0    0 -0.16502476474E+01  0.21155042876E+02 -0.23800428939E+02  0.31886040426E+02  0.00000000000E+00 0. -1.
         11    1    3    3    0    0 -0.12374034970E+02 -0.74856061121E+01  0.18072452150E+01  0.14574538615E+02  0.51100000000E-03 0. -1.
        -11    1    3    3    0    0  0.15455874466E+02  0.67897698419E+01  0.16244030824E+02  0.23427624031E+02  0.51100000000E-03 0.  1.
        -12    1    3    3    0    0 -0.14315918489E+01 -0.20459206605E+02  0.57491528993E+01  0.21299796929E+02  0.00000000000E+00 0.  1.
</event>
<event>
 7    1  0.7578565E-012  0.5930194E+02  0.7816164E-02  0.1266605E+00
        -11   -1    0    0    0    0  0.00000000000E+00  0.00000000000E+00  0.45593999997E+02  0.45594000000E+02  0.51100000000E-03 0.  1.
         11   -1    0    0    0    0 -0.00000000000E+00 -0.00000000000E+00 -0.45593999997E+02  0.45594000000E+02  0.51100000000E-03 0. -1.
    9900012    2    1    2    0    0 -0.33532970637E+01 -0.25424465898E+02  0.18949217021E+02  0.59301938890E+02  0.49999990630E+02 0.  0.
         12    1    1    2    0    0  0.33532970637E+01  0.25424465898E+02 -0.18949217021E+02  0.31886061110E+02  0.00000000000E+00 0. -1.
         11    1    3    3    0    0  0.85603844685E+01 -0.28888478154E+02 -0.55461135425E+01  0.30636313878E+02  0.51100000000E-03 0. -1.
        -11    1    3    3    0    0 -0.43232277279E+01 -0.91537040766E-01  0.16588446663E+02  0.17142789737E+02  0.51100000000E-03 0.  1.
         12    1    3    3    0    0 -0.75904538042E+01  0.35555492971E+01  0.79068839009E+01  0.11522835275E+02  0.00000000000E+00 0. -1.
</event>
<event>
 7    1  0.7578565E-012  0.5930193E+02  0.7816164E-02  0.1266605E+00
        -11   -1    0    0    0    0  0.00000000000E+00  0.00000000000E+00  0.45593999997E+02  0.45594000000E+02  0.51100000000E-03 0.  1.
         11   -1    0    0    0    0 -0.00000000000E+00 -0.00000000000E+00 -0.45593999997E+02  0.45594000000E+02  0.51100000000E-03 0. -1.
    9900012    2    1    2    0    0  0.17502757483E+02 -0.91082967105E+01  0.25048227829E+02  0.59301932418E+02  0.49999978826E+02 0.  0.
         12    1    1    2    0    0 -0.17502757483E+02  0.91082967105E+01 -0.25048227829E+02  0.31886067582E+02  0.00000000000E+00 0. -1.
         11    1    3    3    0    0  0.64888027789E+01 -0.64038917151E+01 -0.13513368493E+02  0.16301089500E+02  0.51100000000E-03 0. -1.
        -11    1    3    3    0    0  0.14355983261E+02 -0.69457851702E+00  0.24462652489E+02  0.28372487761E+02  0.51100000000E-03 0.  1.
        -12    1    3    3    0    0 -0.33420285573E+01 -0.20098264784E+01  0.14098943834E+02  0.14628355156E+02  0.00000000000E+00 0.  1.
</event>
<event>
 7    1  0.7578565E-012  0.5930194E+02  0.7816164E-02  0.1266605E+00
        -11   -1    0    0    0    0  0.00000000000E+00  0.00000000000E+00  0.45593999997E+02  0.45594000000E+02  0.51100000000E-03 0. -1.
         11   -1    0    0    0    0 -0.00000000000E+00 -0.00000000000E+00 -0.45593999997E+02  0.45594000000E+02  0.51100000000E-03 0.  1.
    9900012    2    1    2    0    0  0.37058442182E+01 -0.15114375104E+02 -0.27830615504E+02  0.59301940734E+02  0.49999993993E+02 0.  0.
         12    1    1    2    0    0 -0.37058442182E+01  0.15114375104E+02  0.27830615504E+02  0.31886059266E+02  0.00000000000E+00 0. -1.
         11    1    3    3    0    0 -0.28452906719E+01 -0.16302663156E+02  0.74873722567E+01  0.18164064759E+02  0.51100000000E-03 0. -1.
        -11    1    3    3    0    0  0.68360713539E+01  0.68947218293E+01 -0.63259619546E+01  0.11588220552E+02  0.51100000000E-03 0.  1.
         12    1    3    3    0    0 -0.28493646379E+00 -0.57064337772E+01 -0.28992025806E+02  0.29549655423E+02  0.00000000000E+00 0. -1.
</event>
<event>
 7    1  0.7578565E-012  0.5930209E+02  0.7816164E-02  0.1266604E+00
        -11   -1    0    0    0    0  0.00000000000E+00  0.00000000000E+00  0.45593999997E+02  0.45594000000E+02  0.51100000000E-03 0.  1.
         11   -1    0    0    0    0 -0.00000000000E+00 -0.00000000000E+00 -0.45593999997E+02  0.45594000000E+02  0.51100000000E-03 0. -1.
    9900012    2    1    2    0    0  0.21538532954E+02 -0.13473115513E+02  0.19268577261E+02  0.59302089113E+02  0.50000264601E+02 0.  0.
         12    1    1    2    0    0 -0.21538532954E+02  0.13473115513E+02 -0.19268577261E+02  0.31885910887E+02  0.00000000000E+00 0. -1.
         11    1    3    3    0    0 -0.84383188306E+01 -0.19919969230E+02  0.14939432591E+02  0.26290626566E+02  0.51100000000E-03 0. -1.
        -11    1    3    3    0    0  0.49790353749E+01 -0.32068034828E+01  0.52282799645E+00  0.59453957998E+01  0.51100000000E-03 0.  1.
         12    1    3    3    0    0  0.24997816409E+02  0.96536572005E+01  0.38063166736E+01  0.27066066748E+02  0.00000000000E+00 0. -1.
</event>
<event>
 7    1  0.7578565E-012  0.5930192E+02  0.7816164E-02  0.1266605E+00
        -11   -1    0    0    0    0  0.00000000000E+00  0.00000000000E+00  0.45593999997E+02  0.45594000000E+02  0.51100000000E-03 0. -1.
         11   -1    0    0    0    0 -0.00000000000E+00 -0.00000000000E+00 -0.45593999997E+02  0.45594000000E+02  0.51100000000E-03 0.  1.
    9900012    2    1    2    0    0 -0.29010588834E+02 -0.32208421519E+01  0.12834863891E+02  0.59301924359E+02  0.49999964129E+02 0.  0.
         12    1    1    2    0    0  0.29010588834E+02  0.32208421519E+01 -0.12834863891E+02  0.31886075641E+02  0.00000000000E+00 0. -1.
         11    1    3    3    0    0 -0.36316324332E+02  0.65282043542E+01 -0.32506605530E+01  0.37041323672E+02  0.51100000000E-03 0.  1.
        -11    1    3    3    0    0  0.56898431015E+01 -0.11420487452E+02  0.11771435889E+02  0.17359969796E+02  0.51100000000E-03 0. -1.
        -12    1    3    3    0    0  0.16158923965E+01  0.16714409457E+01  0.43140885544E+01  0.49006308908E+01  0.00000000000E+00 0.  1.
</event>
<event>
 7    1  0.7578565E-012  0.5930195E+02  0.7816164E-02  0.1266605E+00
        -11   -1    0    0    0    0  0.00000000000E+00  0.00000000000E+00  0.45593999997E+02  0.45594000000E+02  0.51100000000E-03 0.  1.
         11   -1    0    0    0    0 -0.00000000000E+00 -0.00000000000E+00 -0.45593999997E+02  0.45594000000E+02  0.51100000000E-03 0. -1.
    9900012    2    1    2    0    0 -0.11764643902E+02  0.27487660944E+02  0.11078887417E+02  0.59301951378E+02  0.50000013406E+02 0.  0.
         12    1    1    2    0    0  0.11764643902E+02 -0.27487660944E+02 -0.11078887417E+02  0.31886048622E+02  0.00000000000E+00 0. -1.
         11    1    3    3    0    0  0.10296050830E+01  0.31513871993E+02  0.56277697196E+01  0.32028986979E+02  0.51100000000E-03 0.  1.
        -11    1    3    3    0    0 -0.16077639973E+02 -0.58023709051E+01  0.11187870777E+02  0.20428569896E+02  0.51100000000E-03 0. -1.
         12    1    3    3    0    0  0.32833909878E+01  0.17761598556E+01 -0.57367530800E+01  0.68443945030E+01  0.00000000000E+00 0. -1.
</event>
<event>
 7    1  0.7578565E-012  0.5930207E+02  0.7816164E-02  0.1266604E+00
        -11   -1    0    0    0    0  0.00000000000E+00  0.00000000000E+00  0.45593999997E+02  0.45594000000E+02  0.51100000000E-03 0.  1.
         11   -1    0    0    0    0 -0.00000000000E+00 -0.00000000000E+00 -0.45593999997E+02  0.45594000000E+02  0.51100000000E-03 0. -1.
    9900012    2    1    2    0    0  0.23580647982E+02  0.10110176429E+02  0.18932774241E+02  0.59302069449E+02  0.50000228737E+02 0.  0.
         12    1    1    2    0    0 -0.23580647982E+02 -0.10110176429E+02 -0.18932774241E+02  0.31885930551E+02  0.00000000000E+00 0. -1.
         11    1    3    3    0    0  0.20661806823E+02 -0.14070302812E+02  0.12508360387E+02  0.27952509051E+02  0.51100000000E-03 0. -1.
        -11    1    3    3    0    0  0.45080405798E+01  0.22856995821E+02 -0.13191014172E+01  0.23334624845E+02  0.51100000000E-03 0.  1.
         12    1    3    3    0    0 -0.15891994213E+01  0.13234834199E+01  0.77435152714E+01  0.80149355532E+01  0.00000000000E+00 0. -1.
</event>
<event>
 7    1  0.7578565E-012  0.5930195E+02  0.7816164E-02  0.1266605E+00
        -11   -1    0    0    0    0  0.00000000000E+00  0.00000000000E+00  0.45593999997E+02  0.45594000000E+02  0.51100000000E-03 0. -1.
         11   -1    0    0    0    0 -0.00000000000E+00 -0.00000000000E+00 -0.45593999997E+02  0.45594000000E+02  0.51100000000E-03 0.  1.
    9900012    2    1    2    0    0  0.15813659633E+02  0.13121184563E+02 -0.24382021642E+02  0.59301948274E+02  0.50000007744E+02 0.  0.
         12    1    1    2    0    0 -0.15813659633E+02 -0.13121184563E+02  0.24382021642E+02  0.31886051726E+02  0.00000000000E+00 0. -1.
         11    1    3    3    0    0  0.99237349085E+01  0.11395666430E+02 -0.97102991838E+01  0.17961949739E+02  0.51100000000E-03 0.  1.
        -11    1    3    3    0    0 -0.15589937066E+02 -0.34965695189E+01 -0.27094430494E+01  0.16205345353E+02  0.51100000000E-03 0. -1.
        -12    1    3    3    0    0  0.21479861790E+02  0.52220876520E+01 -0.11962279409E+02  0.25134653183E+02  0.00000000000E+00 0.  1.
</event>
<event>
 7    1  0.7578565E-012  0.5930189E+02  0.7816164E-02  0.1266605E+00
        -11   -1    0    0    0    0  0.00000000000E+00  0.00000000000E+00  0.45593999997E+02  0.45594000000E+02  0.51100000000E-03 0. -1.
         11   -1    0    0    0    0 -0.00000000000E+00 -0.00000000000E+00 -0.45593999997E+02  0.45594000000E+02  0.51100000000E-03 0.  1.
    9900012    2    1    2    0    0  0.24693623117E+02  0.72341244147E+01  0.18831265448E+02  0.59301888022E+02  0.49999897859E+02 0.  0.
         12    1    1    2    0    0 -0.24693623117E+02 -0.72341244147E+01 -0.18831265448E+02  0.31886111978E+02  0.00000000000E+00 0. -1.
         11    1    3    3    0    0 -0.85736864235E+01  0.95123182133E+01  0.13064323449E+02  0.18293956492E+02  0.51100000000E-03 0. -1.
        -11    1    3    3    0    0  0.14389785897E+02  0.87312990174E+01  0.87194535231E+01  0.18956011993E+02  0.51100000000E-03 0.  1.
         12    1    3    3    0    0  0.18877523644E+02 -0.11009492816E+02 -0.29525115236E+01  0.22051919537E+02  0.00000000000E+00 0. -1.
</event>
<event>
 7    1  0.7578565E-012  0.5930192E+02  0.7816164E-02  0.1266605E+00
        -11   -1    0    0    0    0  0.00000000000E+00  0.00000000000E+00  0.45593999997E+02  0.45594000000E+02  0.51100000000E-03 0.  1.
         11   -1    0    0    0    0 -0.00000000000E+00 -0.00000000000E+00 -0.45593999997E+02  0.45594000000E+02  0.51100000000E-03 0. -1.
    9900012    2    1    2    0    0 -0.52400082974E+01 -0.44497248725E+01  0.31136221583E+02  0.59301921018E+02  0.49999958035E+02 0.  0.
         12    1    1    2    0    0  0.52400082974E+01  0.44497248725E+01 -0.31136221583E+02  0.31886078982E+02  0.00000000000E+00 0. -1.
         11    1    3    3    0    0  0.94239742594E+01 -0.20052870685E+02  0.19586258851E+02  0.29572799150E+02  0.51100000000E-03 0. -1.
        -11    1    3    3    0    0 -0.14234270848E+02  0.48780102581E+01  0.11593605659E+02  0.18995292657E+02  0.51100000000E-03 0.  1.
         12    1    3    3    0    0 -0.42971170842E+00  0.10725135555E+02 -0.43642926740E-01  0.10733829211E+02  0.00000000000E+00 0. -1.
</event>
<event>
 7    1  0.7578565E-012  0.5930162E+02  0.7816164E-02  0.1266606E+00
        -11   -1    0    0    0    0  0.00000000000E+00  0.00000000000E+00  0.45593999997E+02  0.45594000000E+02  0.51100000000E-03 0. -1.
         11   -1    0    0    0    0 -0.00000000000E+00 -0.00000000000E+00 -0.45593999997E+02  0.45594000000E+02  0.51100000000E-03 0.  1.
    9900012    2    1    2    0    0  0.11180514721E+02  0.23883424743E+01 -0.29766312326E+02  0.59301616719E+02  0.49999403064E+02 0.  0.
         12    1    1    2    0    0 -0.11180514721E+02 -0.23883424743E+01  0.29766312326E+02  0.31886383281E+02  0.00000000000E+00 0. -1.
         11    1    3    3    0    0 -0.26103447830E+01  0.15886348418E+02 -0.10327214649E+01  0.16132466638E+02  0.51100000000E-03 0. -1.
        -11    1    3    3    0    0  0.17538998351E+02 -0.17766750548E+02 -0.17213443953E+02  0.30324520460E+02  0.51100000000E-03 0.  1.
        -12    1    3    3    0    0 -0.37481388462E+01  0.42687446037E+01 -0.11520146909E+02  0.12844629621E+02  0.00000000000E+00 0.  1.
</event>
<event>
 7    1  0.7578565E-012  0.5930193E+02  0.7816164E-02  0.1266605E+00
        -11   -1    0    0    0    0  0.00000000000E+00  0.00000000000E+00  0.45593999997E+02  0.45594000000E+02  0.51100000000E-03 0. -1.
         11   -1    0    0    0    0 -0.00000000000E+00 -0.00000000000E+00 -0.45593999997E+02  0.45594000000E+02  0.51100000000E-03 0.  1.
    9900012    2    1    2    0    0 -0.15066255398E+02 -0.38402409500E+01 -0.27838503033E+02  0.59301925400E+02  0.49999966027E+02 0.  0.
         12    1    1    2    0    0  0.15066255398E+02  0.38402409500E+01  0.27838503033E+02  0.31886074600E+02  0.00000000000E+00 0. -1.
         11    1    3    3    0    0 -0.53230933266E+01  0.21535232904E+02 -0.71884489592E+01  0.23318991777E+02  0.51100000000E-03 0. -1.
        -11    1    3    3    0    0 -0.87502851596E+01 -0.11018366853E+02 -0.14877132011E+02  0.20476839493E+02  0.51100000000E-03 0.  1.
         12    1    3    3    0    0 -0.99287691213E+00 -0.14357107001E+02 -0.57729220628E+01  0.15506094130E+02  0.00000000000E+00 0. -1.
</event>
<event>
 7    1  0.7578565E-012  0.5930195E+02  0.7816164E-02  0.1266605E+00
        -11   -1    0    0    0    0  0.00000000000E+00  0.00000000000E+00  0.45593999997E+02  0.45594000000E+02  0.51100000000E-03 0. -1.
         11   -1    0    0    0    0 -0.00000000000E+00 -0.00000000000E+00 -0.45593999997E+02  0.45594000000E+02  0.51100000000E-03 0.  1.
    9900012    2    1    2    0    0 -0.24707572308E+02 -0.19865349420E+02  0.34094319350E+01  0.59301945634E+02  0.50000002929E+02 0.  0.
         12    1    1    2    0    0  0.24707572308E+02  0.19865349420E+02 -0.34094319350E+01  0.31886054366E+02  0.00000000000E+00 0. -1.
         11    1    3    3    0    0  0.11560685736E+02 -0.65452550857E+01 -0.11149270262E+02  0.17343472734E+02  0.51100000000E-03 0. -1.
        -11    1    3    3    0    0 -0.79843144161E+01 -0.48232815462E+00  0.97867211204E+00  0.80585182576E+01  0.51100000000E-03 0.  1.
         12    1    3    3    0    0 -0.28283943628E+02 -0.12837766180E+02  0.13580030085E+02  0.33899954642E+02  0.00000000000E+00 0. -1.
</event>
<event>
 7    1  0.7578565E-012  0.5930194E+02  0.7816164E-02  0.1266605E+00
        -11   -1    0    0    0    0  0.00000000000E+00  0.00000000000E+00  0.45593999997E+02  0.45594000000E+02  0.51100000000E-03 0. -1.
         11   -1    0    0    0    0 -0.00000000000E+00 -0.00000000000E+00 -0.45593999997E+02  0.45594000000E+02  0.51100000000E-03 0.  1.
    9900012    2    1    2    0    0  0.10707365371E+02 -0.29070061383E+02 -0.75501282968E+01  0.59301943811E+02  0.49999999605E+02 0.  0.
         12    1    1    2    0    0 -0.10707365371E+02  0.29070061383E+02  0.75501282968E+01  0.31886056189E+02  0.00000000000E+00 0. -1.
         11    1    3    3    0    0  0.74363678965E+01 -0.16551813653E+02  0.11365048052E+02  0.21410894894E+02  0.51100000000E-03 0. -1.
        -11    1    3    3    0    0 -0.12945160672E+02 -0.17353671278E+01 -0.10121446702E+02  0.16523691097E+02  0.51100000000E-03 0.  1.
         12    1    3    3    0    0  0.16216158146E+02 -0.10782880603E+02 -0.87937296462E+01  0.21367357819E+02  0.00000000000E+00 0. -1.
</event>
<event>
 7    1  0.7578565E-012  0.5930194E+02  0.7816164E-02  0.1266605E+00
        -11   -1    0    0    0    0  0.00000000000E+00  0.00000000000E+00  0.45593999997E+02  0.45594000000E+02  0.51100000000E-03 0. -1.
         11   -1    0    0    0    0 -0.00000000000E+00 -0.00000000000E+00 -0.45593999997E+02  0.45594000000E+02  0.51100000000E-03 0.  1.
    9900012    2    1    2    0    0  0.11345918623E+02  0.56928046010E+01 -0.29250349606E+02  0.59301939633E+02  0.49999991985E+02 0.  0.
         12    1    1    2    0    0 -0.11345918623E+02 -0.56928046010E+01  0.29250349606E+02  0.31886060367E+02  0.00000000000E+00 0. -1.
         11    1    3    3    0    0 -0.53526779100E+01  0.75261615739E+01  0.11345932960E+02  0.14629574971E+02  0.51100000000E-03 0. -1.
        -11    1    3    3    0    0  0.64398108175E+01  0.11808406006E+00 -0.25603584248E+02  0.26401299851E+02  0.51100000000E-03 0.  1.
         12    1    3    3    0    0  0.10258785716E+02 -0.19514410329E+01 -0.14992698318E+02  0.18271064811E+02  0.00000000000E+00 0. -1.
</event>
<event>
 7    1  0.7578565E-012  0.5930192E+02  0.7816164E-02  0.1266605E+00
        -11   -1    0    0    0    0  0.00000000000E+00  0.00000000000E+00  0.45593999997E+02  0.45594000000E+02  0.51100000000E-03 0. -1.
         11   -1    0    0    0    0 -0.00000000000E+00 -0.00000000000E+00 -0.45593999997E+02  0.45594000000E+02  0.51100000000E-03 0.  1.
    9900012    2    1    2    0    0  0.98000030312E+00 -0.24729547694E+02 -0.20104999535E+02  0.59301922536E+02  0.49999960804E+02 0.  0.
         12    1    1    2    0    0 -0.98000030312E+00  0.24729547694E+02  0.20104999535E+02  0.31886077464E+02  0.00000000000E+00 0. -1.
         11    1    3    3    0    0  0.14355659327E+00  0.91611968285E+01 -0.56099231495E+01  0.10743340906E+02  0.51100000000E-03 0.  1.
        -11    1    3    3    0    0 -0.11803411321E+02 -0.27657940103E+02 -0.16536928193E+02  0.34318393958E+02  0.51100000000E-03 0. -1.
         12    1    3    3    0    0  0.12639855030E+02 -0.62328044194E+01  0.20418518069E+01  0.14240187672E+02  0.00000000000E+00 0. -1.
</event>
<event>
 7    1  0.7578565E-012  0.5930194E+02  0.7816164E-02  0.1266605E+00
        -11   -1    0    0    0    0  0.00000000000E+00  0.00000000000E+00  0.45593999997E+02  0.45594000000E+02  0.51100000000E-03 0. -1.
         11   -1    0    0    0    0 -0.00000000000E+00 -0.00000000000E+00 -0.45593999997E+02  0.45594000000E+02  0.51100000000E-03 0.  1.
    9900012    2    1    2    0    0  0.27042915229E+02 -0.13558602786E+02 -0.10077977668E+02  0.59301943369E+02  0.49999998798E+02 0.  0.
         12    1    1    2    0    0 -0.27042915229E+02  0.13558602786E+02  0.10077977668E+02  0.31886056631E+02  0.00000000000E+00 0. -1.
         11    1    3    3    0    0  0.49713951006E+01 -0.11150527146E+02  0.14969982309E+02  0.19317075230E+02  0.51100000000E-03 0. -1.
        -11    1    3    3    0    0  0.25825490947E+02  0.12810941763E+01 -0.21607056620E+02  0.33696618242E+02  0.51100000000E-03 0.  1.
         12    1    3    3    0    0 -0.37539708183E+01 -0.36891698171E+01 -0.34409033572E+01  0.62882498963E+01  0.00000000000E+00 0. -1.
</event>
<event>
 7    1  0.7578565E-012  0.5930199E+02  0.7816164E-02  0.1266605E+00
        -11   -1    0    0    0    0  0.00000000000E+00  0.00000000000E+00  0.45593999997E+02  0.45594000000E+02  0.51100000000E-03 0. -1.
         11   -1    0    0    0    0 -0.00000000000E+00 -0.00000000000E+00 -0.45593999997E+02  0.45594000000E+02  0.51100000000E-03 0.  1.
    9900012    2    1    2    0    0  0.28036486856E+02  0.79526839834E+01 -0.12939379821E+02  0.59301994795E+02  0.50000092588E+02 0.  0.
         12    1    1    2    0    0 -0.28036486856E+02 -0.79526839834E+01  0.12939379821E+02  0.31886005205E+02  0.00000000000E+00 0. -1.
         11    1    3    3    0    0 -0.68215800409E+01  0.77801525276E+01 -0.20914998173E+02  0.23334563986E+02  0.51100000000E-03 0. -1.
        -11    1    3    3    0    0  0.75856314059E+01  0.78139102229E+00  0.31195227429E+00  0.76321484680E+01  0.51100000000E-03 0.  1.
         12    1    3    3    0    0  0.27272435491E+02 -0.60885956653E+00  0.76636660774E+01  0.28335282341E+02  0.00000000000E+00 0. -1.
</event>
<event>
 7    1  0.7578565E-012  0.5930197E+02  0.7816164E-02  0.1266605E+00
        -11   -1    0    0    0    0  0.00000000000E+00  0.00000000000E+00  0.45593999997E+02  0.45594000000E+02  0.51100000000E-03 0.  1.
         11   -1    0    0    0    0 -0.00000000000E+00 -0.00000000000E+00 -0.45593999997E+02  0.45594000000E+02  0.51100000000E-03 0. -1.
    9900012    2    1    2    0    0 -0.22254946919E+02 -0.20592768381E+01  0.22741939246E+02  0.59301967256E+02  0.50000042364E+02 0.  0.
         12    1    1    2    0    0  0.22254946919E+02  0.20592768381E+01 -0.22741939246E+02  0.31886032744E+02  0.00000000000E+00 0. -1.
         11    1    3    3    0    0 -0.31254408140E+01 -0.38442424631E+01 -0.11969819742E+02  0.12954658054E+02  0.51100000000E-03 0. -1.
        -11    1    3    3    0    0 -0.19457765878E+02 -0.61234851730E+01  0.15659209417E+02  0.25715998200E+02  0.51100000000E-03 0.  1.
         12    1    3    3    0    0  0.32825977273E+00  0.79084507980E+01  0.19052549571E+02  0.20631311002E+02  0.00000000000E+00 0. -1.
</event>
<event>
 7    1  0.7578565E-012  0.5930197E+02  0.7816164E-02  0.1266605E+00
        -11   -1    0    0    0    0  0.00000000000E+00  0.00000000000E+00  0.45593999997E+02  0.45594000000E+02  0.51100000000E-03 0. -1.
         11   -1    0    0    0    0 -0.00000000000E+00 -0.00000000000E+00 -0.45593999997E+02  0.45594000000E+02  0.51100000000E-03 0.  1.
    9900012    2    1    2    0    0 -0.58158299978E+01 -0.16571635236E+02 -0.26613456501E+02  0.59301967950E+02  0.50000043629E+02 0.  0.
         12    1    1    2    0    0  0.58158299978E+01  0.16571635236E+02  0.26613456501E+02  0.31886032050E+02  0.00000000000E+00 0. -1.
         11    1    3    3    0    0 -0.98712323210E+01 -0.32716891005E+02 -0.11917235548E+02  0.36191942307E+02  0.51100000000E-03 0.  1.
        -11    1    3    3    0    0  0.16962531831E+01  0.94870345844E+01 -0.12352944908E+02  0.15667684839E+02  0.51100000000E-03 0. -1.
        -12    1    3    3    0    0  0.23591491402E+01  0.66582211854E+01 -0.23432760449E+01  0.74423408039E+01  0.00000000000E+00 0.  1.
</event>
<event>
 7    1  0.8195718E-012  0.5930205E+02  0.7816164E-02  0.1266604E+00
        -11   -1    0    0    0    0  0.00000000000E+00  0.00000000000E+00  0.45593999997E+02  0.45594000000E+02  0.51100000000E-03 0. -1.
         11   -1    0    0    0    0 -0.00000000000E+00 -0.00000000000E+00 -0.45593999997E+02  0.45594000000E+02  0.51100000000E-03 0.  1.
    9900012    2    1    2    0    0  0.88022474374E+01 -0.19387808765E+02 -0.23734932230E+02  0.59302051737E+02  0.50000196436E+02 0.  0.
         12    1    1    2    0    0 -0.88022474374E+01  0.19387808765E+02  0.23734932230E+02  0.31885948263E+02  0.00000000000E+00 0. -1.
         11    1    3    3    0    0  0.76831082782E+01 -0.86669546589E+01  0.85512617740E+01  0.14396886263E+02  0.51100000000E-03 0. -1.
        -11    1    3    3    0    0 -0.23311640548E+01 -0.20104519101E+02 -0.26529944423E+02  0.33368607485E+02  0.51100000000E-03 0.  1.
         12    1    3    3    0    0  0.34503032139E+01  0.93836649949E+01 -0.57562495815E+01  0.11536557990E+02  0.00000000000E+00 0. -1.
</event>
<event>
 7    1  0.7578565E-012  0.5930193E+02  0.7816164E-02  0.1266605E+00
        -11   -1    0    0    0    0  0.00000000000E+00  0.00000000000E+00  0.45593999997E+02  0.45594000000E+02  0.51100000000E-03 0.  1.
         11   -1    0    0    0    0 -0.00000000000E+00 -0.00000000000E+00 -0.45593999997E+02  0.45594000000E+02  0.51100000000E-03 0. -1.
    9900012    2    1    2    0    0  0.33986132662E+01 -0.17080966524E+01  0.31658389283E+02  0.59301925010E+02  0.49999965315E+02 0.  0.
         12    1    1    2    0    0 -0.33986132662E+01  0.17080966524E+01 -0.31658389283E+02  0.31886074990E+02  0.00000000000E+00 0. -1.
         11    1    3    3    0    0 -0.11740467276E+02 -0.19469191588E+02  0.10342081112E+02  0.24976922047E+02  0.51100000000E-03 0. -1.
        -11    1    3    3    0    0  0.50016048694E+01  0.97705121051E+01  0.17858240072E+02  0.20961767502E+02  0.51100000000E-03 0.  1.
         12    1    3    3    0    0  0.10137475673E+02  0.79905828307E+01  0.34580680991E+01  0.13363235461E+02  0.00000000000E+00 0. -1.
</event>
<event>
 7    1  0.7578565E-012  0.5930195E+02  0.7816164E-02  0.1266605E+00
        -11   -1    0    0    0    0  0.00000000000E+00  0.00000000000E+00  0.45593999997E+02  0.45594000000E+02  0.51100000000E-03 0.  1.
         11   -1    0    0    0    0 -0.00000000000E+00 -0.00000000000E+00 -0.45593999997E+02  0.45594000000E+02  0.51100000000E-03 0. -1.
    9900012    2    1    2    0    0  0.11630214565E+02  0.63934860680E+01  0.28992782767E+02  0.59301952777E+02  0.50000015956E+02 0.  0.
         12    1    1    2    0    0 -0.11630214565E+02 -0.63934860680E+01 -0.28992782767E+02  0.31886047223E+02  0.00000000000E+00 0. -1.
         11    1    3    3    0    0 -0.29578199354E+01 -0.11827522800E+02 -0.49955390845E+01  0.13175522963E+02  0.51100000000E-03 0. -1.
        -11    1    3    3    0    0 -0.49863751654E+00  0.52548596785E+01  0.22591813559E+02  0.23200263571E+02  0.51100000000E-03 0.  1.
         12    1    3    3    0    0  0.15086672017E+02  0.12966149189E+02  0.11396508293E+02  0.22926166243E+02  0.00000000000E+00 0. -1.
</event>
<event>
 7    1  0.7578565E-012  0.5930193E+02  0.7816164E-02  0.1266605E+00
        -11   -1    0    0    0    0  0.00000000000E+00  0.00000000000E+00  0.45593999997E+02  0.45594000000E+02  0.51100000000E-03 0.  1.
         11   -1    0    0    0    0 -0.00000000000E+00 -0.00000000000E+00 -0.45593999997E+02  0.45594000000E+02  0.51100000000E-03 0. -1.
    9900012    2    1    2    0    0  0.25936562278E+01  0.17499021686E+02  0.26528831755E+02  0.59301925816E+02  0.49999966785E+02 0.  0.
         12    1    1    2    0    0 -0.25936562278E+01 -0.17499021686E+02 -0.26528831755E+02  0.31886074184E+02  0.00000000000E+00 0. -1.
         11    1    3    3    0    0  0.57539569399E+01  0.66392566749E+01  0.48429467441E+01  0.10032042817E+02  0.51100000000E-03 0. -1.
        -11    1    3    3    0    0 -0.78665672988E+01 -0.12350514923E+02 -0.31225938223E+01  0.14972264103E+02  0.51100000000E-03 0.  1.
        -12    1    3    3    0    0  0.47062665867E+01  0.23210279935E+02  0.24808478833E+02  0.34297618895E+02  0.00000000000E+00 0.  1.
</event>
<event>
 7    1  0.7578565E-012  0.5930197E+02  0.7816164E-02  0.1266605E+00
        -11   -1    0    0    0    0  0.00000000000E+00  0.00000000000E+00  0.45593999997E+02  0.45594000000E+02  0.51100000000E-03 0.  1.
         11   -1    0    0    0    0 -0.00000000000E+00 -0.00000000000E+00 -0.45593999997E+02  0.45594000000E+02  0.51100000000E-03 0. -1.
    9900012    2    1    2    0    0 -0.28939791539E+02 -0.41060039055E+01 -0.12741578077E+02  0.59301974624E+02  0.50000055800E+02 0.  0.
         12    1    1    2    0    0  0.28939791539E+02  0.41060039055E+01  0.12741578077E+02  0.31886025376E+02  0.00000000000E+00 0. -1.
         11    1    3    3    0    0  0.11459734482E+02  0.71869138261E+01 -0.57341041052E+01  0.14692079325E+02  0.51100000000E-03 0. -1.
        -11    1    3    3    0    0 -0.15967376619E+02 -0.11204689312E+02 -0.14966267621E+01  0.19563794892E+02  0.51100000000E-03 0.  1.
         12    1    3    3    0    0 -0.24432149402E+02 -0.88228419947E-01 -0.55108472094E+01  0.25046100407E+02  0.00000000000E+00 0. -1.
</event>
<event>
 7    1  0.7578565E-012  0.5930195E+02  0.7816164E-02  0.1266605E+00
        -11   -1    0    0    0    0  0.00000000000E+00  0.00000000000E+00  0.45593999997E+02  0.45594000000E+02  0.51100000000E-03 0. -1.
         11   -1    0    0    0    0 -0.00000000000E+00 -0.00000000000E+00 -0.45593999997E+02  0.45594000000E+02  0.51100000000E-03 0.  1.
    9900012    2    1    2    0    0 -0.23465218135E+02  0.21311685642E+02  0.34519199312E+01  0.59301950413E+02  0.50000011646E+02 0.  0.
         12    1    1    2    0    0  0.23465218135E+02 -0.21311685642E+02 -0.34519199312E+01  0.31886049587E+02  0.00000000000E+00 0. -1.
         11    1    3    3    0    0 -0.35633106858E+01 -0.61529710431E+01  0.74432936542E+01  0.10293631836E+02  0.51100000000E-03 0. -1.
        -11    1    3    3    0    0 -0.83500409434E+01  0.33304733800E+02 -0.83746896998E+01  0.35342098199E+02  0.51100000000E-03 0.  1.
        -12    1    3    3    0    0 -0.11551866506E+02 -0.58400771150E+01  0.43833159768E+01  0.13666220378E+02  0.00000000000E+00 0.  1.
</event>
<event>
 7    1  0.7578565E-012  0.5930195E+02  0.7816164E-02  0.1266605E+00
        -11   -1    0    0    0    0  0.00000000000E+00  0.00000000000E+00  0.45593999997E+02  0.45594000000E+02  0.51100000000E-03 0.  1.
         11   -1    0    0    0    0 -0.00000000000E+00 -0.00000000000E+00 -0.45593999997E+02  0.45594000000E+02  0.51100000000E-03 0. -1.
    9900012    2    1    2    0    0  0.20123618512E+02  0.60954241012E+01  0.23970945385E+02  0.59301946001E+02  0.50000003599E+02 0.  0.
         12    1    1    2    0    0 -0.20123618512E+02 -0.60954241012E+01 -0.23970945385E+02  0.31886053999E+02  0.00000000000E+00 0. -1.
         11    1    3    3    0    0 -0.28847430692E+01  0.62621096316E+01 -0.12133160395E+02  0.13955262128E+02  0.51100000000E-03 0. -1.
        -11    1    3    3    0    0  0.15536852144E+02  0.68121203586E+01  0.25401035257E+02  0.30545234501E+02  0.51100000000E-03 0.  1.
         12    1    3    3    0    0  0.74715094366E+01 -0.69788058889E+01  0.10703070523E+02  0.14801449372E+02  0.00000000000E+00 0. -1.
</event>
<event>
 7    1  0.7578565E-012  0.5930195E+02  0.7816164E-02  0.1266605E+00
        -11   -1    0    0    0    0  0.00000000000E+00  0.00000000000E+00  0.45593999997E+02  0.45594000000E+02  0.51100000000E-03 0.  1.
         11   -1    0    0    0    0 -0.00000000000E+00 -0.00000000000E+00 -0.45593999997E+02  0.45594000000E+02  0.51100000000E-03 0. -1.
    9900012    2    1    2    0    0 -0.29127377409E+02 -0.36938219168E+01 -0.12436702802E+02  0.59301952712E+02  0.50000015839E+02 0.  0.
         12    1    1    2    0    0  0.29127377409E+02  0.36938219168E+01  0.12436702802E+02  0.31886047288E+02  0.00000000000E+00 0. -1.
         11    1    3    3    0    0 -0.24128665736E+02 -0.23123383355E+02 -0.41107476454E+01  0.33671673770E+02  0.51100000000E-03 0.  1.
        -11    1    3    3    0    0 -0.14863623085E+01  0.19143979735E+02 -0.32863010740E+01  0.19480785611E+02  0.51100000000E-03 0. -1.
         12    1    3    3    0    0 -0.35123493637E+01  0.28558170346E+00 -0.50396540824E+01  0.61494933313E+01  0.00000000000E+00 0. -1.
</event>
<event>
 7    1  0.7578565E-012  0.5930195E+02  0.7816164E-02  0.1266605E+00
        -11   -1    0    0    0    0  0.00000000000E+00  0.00000000000E+00  0.45593999997E+02  0.45594000000E+02  0.51100000000E-03 0.  1.
         11   -1    0    0    0    0 -0.00000000000E+00 -0.00000000000E+00 -0.45593999997E+02  0.45594000000E+02  0.51100000000E-03 0. -1.
    9900012    2    1    2    0    0 -0.30864740074E+02 -0.68845689268E+01  0.40854010884E+01  0.59301953347E+02  0.50000016995E+02 0.  0.
         12    1    1    2    0    0  0.30864740074E+02  0.68845689268E+01 -0.40854010884E+01  0.31886046653E+02  0.00000000000E+00 0. -1.
         11    1    3    3    0    0 -0.72806130297E+01 -0.20131557650E+01  0.23531484825E+02  0.24714184198E+02  0.51100000000E-03 0. -1.
        -11    1    3    3    0    0 -0.23786769996E+02 -0.39360917559E+01 -0.11729416548E+02  0.26811983477E+02  0.51100000000E-03 0.  1.
        -12    1    3    3    0    0  0.20264295226E+00 -0.93532140584E+00 -0.77166671888E+01  0.77757856710E+01  0.00000000000E+00 0.  1.
</event>
<event>
 7    1  0.7578565E-012  0.5930195E+02  0.7816164E-02  0.1266605E+00
        -11   -1    0    0    0    0  0.00000000000E+00  0.00000000000E+00  0.45593999997E+02  0.45594000000E+02  0.51100000000E-03 0.  1.
         11   -1    0    0    0    0 -0.00000000000E+00 -0.00000000000E+00 -0.45593999997E+02  0.45594000000E+02  0.51100000000E-03 0. -1.
    9900012    2    1    2    0    0 -0.23412221822E+02 -0.14004105944E+02  0.16506753763E+02  0.59301952366E+02  0.50000015207E+02 0.  0.
         12    1    1    2    0    0  0.23412221822E+02  0.14004105944E+02 -0.16506753763E+02  0.31886047634E+02  0.00000000000E+00 0. -1.
         11    1    3    3    0    0 -0.17701647858E+02 -0.25951610111E+02  0.19202705744E+02  0.36818179102E+02  0.51100000000E-03 0. -1.
        -11    1    3    3    0    0  0.60658547721E+01  0.72392303446E+01  0.30981950561E+00  0.94497110266E+01  0.51100000000E-03 0.  1.
         12    1    3    3    0    0 -0.11776428736E+02  0.47082738227E+01 -0.30057714873E+01  0.13034062237E+02  0.00000000000E+00 0. -1.
</event>
<event>
 7    1  0.7578565E-012  0.5930195E+02  0.7816164E-02  0.1266605E+00
        -11   -1    0    0    0    0  0.00000000000E+00  0.00000000000E+00  0.45593999997E+02  0.45594000000E+02  0.51100000000E-03 0.  1.
         11   -1    0    0    0    0 -0.00000000000E+00 -0.00000000000E+00 -0.45593999997E+02  0.45594000000E+02  0.51100000000E-03 0. -1.
    9900012    2    1    2    0    0 -0.28717805466E+02  0.15408338644E+01 -0.13770747378E+02  0.59301952846E+02  0.50000016082E+02 0.  0.
         12    1    1    2    0    0  0.28717805466E+02 -0.15408338644E+01  0.13770747378E+02  0.31886047154E+02  0.00000000000E+00 0. -1.
         11    1    3    3    0    0 -0.16494748631E+02  0.14706779036E+02  0.10718613281E+02  0.24561244939E+02  0.51100000000E-03 0. -1.
        -11    1    3    3    0    0 -0.16475513645E+01 -0.85335420472E+01 -0.20923897909E+02  0.22657124031E+02  0.51100000000E-03 0.  1.
        -12    1    3    3    0    0 -0.10575505471E+02 -0.46324031247E+01 -0.35654627502E+01  0.12083583876E+02  0.00000000000E+00 0.  1.
</event>
<event>
 7    1  0.7578565E-012  0.5930194E+02  0.7816164E-02  0.1266605E+00
        -11   -1    0    0    0    0  0.00000000000E+00  0.00000000000E+00  0.45593999997E+02  0.45594000000E+02  0.51100000000E-03 0.  1.
         11   -1    0    0    0    0 -0.00000000000E+00 -0.00000000000E+00 -0.45593999997E+02  0.45594000000E+02  0.51100000000E-03 0. -1.
    9900012    2    1    2    0    0  0.19184209156E+02 -0.64297452505E+01  0.24644372444E+02  0.59301943517E+02  0.49999999068E+02 0.  0.
         12    1    1    2    0    0 -0.19184209156E+02  0.64297452505E+01 -0.24644372444E+02  0.31886056483E+02  0.00000000000E+00 0. -1.
         11    1    3    3    0    0  0.89571724617E+00  0.54317888178E+01 -0.10225678106E+02  0.11613403124E+02  0.51100000000E-03 0. -1.
        -11    1    3    3    0    0  0.69017126356E+01 -0.69545915572E+00  0.30321071898E+02  0.31104416118E+02  0.51100000000E-03 0.  1.
        -12    1    3    3    0    0  0.11386779274E+02 -0.11166074913E+02  0.45489786519E+01  0.16584124275E+02  0.00000000000E+00 0.  1.
</event>
<event>
 7    1  0.7578565E-012  0.5930195E+02  0.7816164E-02  0.1266605E+00
        -11   -1    0    0    0    0  0.00000000000E+00  0.00000000000E+00  0.45593999997E+02  0.45594000000E+02  0.51100000000E-03 0. -1.
         11   -1    0    0    0    0 -0.00000000000E+00 -0.00000000000E+00 -0.45593999997E+02  0.45594000000E+02  0.51100000000E-03 0.  1.
    9900012    2    1    2    0    0  0.21112564998E+02 -0.13311678381E+02 -0.19843870683E+02  0.59301946845E+02  0.50000005139E+02 0.  0.
         12    1    1    2    0    0 -0.21112564998E+02  0.13311678381E+02  0.19843870683E+02  0.31886053155E+02  0.00000000000E+00 0. -1.
         11    1    3    3    0    0  0.19310805426E+02  0.74145121812E+01  0.26014367108E+01  0.20848253411E+02  0.51100000000E-03 0. -1.
        -11    1    3    3    0    0  0.13938959880E+01 -0.21439052408E+02 -0.64420201293E+01  0.22429345461E+02  0.51100000000E-03 0.  1.
        -12    1    3    3    0    0  0.40786358411E+00  0.71286184624E+00 -0.16003287264E+02  0.16024347974E+02  0.00000000000E+00 0.  1.
</event>
<event>
 7    1  0.7578565E-012  0.5930195E+02  0.7816164E-02  0.1266605E+00
        -11   -1    0    0    0    0  0.00000000000E+00  0.00000000000E+00  0.45593999997E+02  0.45594000000E+02  0.51100000000E-03 0.  1.
         11   -1    0    0    0    0 -0.00000000000E+00 -0.00000000000E+00 -0.45593999997E+02  0.45594000000E+02  0.51100000000E-03 0. -1.
    9900012    2    1    2    0    0  0.72977120585E+01 -0.16600648437E+02  0.26227510513E+02  0.59301946034E+02  0.50000003658E+02 0.  0.
         12    1    1    2    0    0 -0.72977120585E+01  0.16600648437E+02 -0.26227510513E+02  0.31886053966E+02  0.00000000000E+00 0. -1.
         11    1    3    3    0    0 -0.10735151896E+02 -0.40760564073E+01  0.76967636089E+01  0.13823816129E+02  0.51100000000E-03 0. -1.
        -11    1    3    3    0    0  0.24812629384E+02 -0.37627032200E+01  0.14743426265E+01  0.25139574359E+02  0.51100000000E-03 0.  1.
        -12    1    3    3    0    0 -0.67797654303E+01 -0.87618888097E+01  0.17056404278E+02  0.20338555546E+02  0.00000000000E+00 0.  1.
</event>
<event>
 7    1  0.7578565E-012  0.5930194E+02  0.7816164E-02  0.1266605E+00
        -11   -1    0    0    0    0  0.00000000000E+00  0.00000000000E+00  0.45593999997E+02  0.45594000000E+02  0.51100000000E-03 0. -1.
         11   -1    0    0    0    0 -0.00000000000E+00 -0.00000000000E+00 -0.45593999997E+02  0.45594000000E+02  0.51100000000E-03 0.  1.
    9900012    2    1    2    0    0  0.49510655311E+01  0.20160242493E+00 -0.31498679999E+02  0.59301944503E+02  0.50000000867E+02 0.  0.
         12    1    1    2    0    0 -0.49510655311E+01 -0.20160242493E+00  0.31498679999E+02  0.31886055497E+02  0.00000000000E+00 0. -1.
         11    1    3    3    0    0  0.10741109045E+02 -0.97687170887E+01 -0.23957847408E+01  0.14715265606E+02  0.51100000000E-03 0. -1.
        -11    1    3    3    0    0 -0.14142806828E+02  0.16904806405E+02 -0.24018916261E+02  0.32599076723E+02  0.51100000000E-03 0.  1.
        -12    1    3    3    0    0  0.83527633147E+01 -0.69344868917E+01 -0.50839789977E+01  0.11987602174E+02  0.00000000000E+00 0.  1.
</event>
<event>
 7    1  0.7578565E-012  0.5930193E+02  0.7816164E-02  0.1266605E+00
        -11   -1    0    0    0    0  0.00000000000E+00  0.00000000000E+00  0.45593999997E+02  0.45594000000E+02  0.51100000000E-03 0. -1.
         11   -1    0    0    0    0 -0.00000000000E+00 -0.00000000000E+00 -0.45593999997E+02  0.45594000000E+02  0.51100000000E-03 0.  1.
    9900012    2    1    2    0    0  0.28535033126E+02  0.11596834127E+02 -0.82454229568E+01  0.59301926597E+02  0.49999968211E+02 0.  0.
         12    1    1    2    0    0 -0.28535033126E+02 -0.11596834127E+02  0.82454229568E+01  0.31886073403E+02  0.00000000000E+00 0. -1.
         11    1    3    3    0    0 -0.65160708140E+00 -0.27296360333E+00 -0.27752070302E+01  0.28637170319E+01  0.51100000000E-03 0. -1.
        -11    1    3    3    0    0  0.40107037170E+02  0.17211619001E+00 -0.27079194618E+01  0.40198717425E+02  0.51100000000E-03 0.  1.
        -12    1    3    3    0    0 -0.10920396962E+02  0.11697681540E+02 -0.27622964647E+01  0.16239492141E+02  0.00000000000E+00 0.  1.
</event>
<event>
 7    1  0.7578565E-012  0.5930195E+02  0.7816164E-02  0.1266605E+00
        -11   -1    0    0    0    0  0.00000000000E+00  0.00000000000E+00  0.45593999997E+02  0.45594000000E+02  0.51100000000E-03 0.  1.
         11   -1    0    0    0    0 -0.00000000000E+00 -0.00000000000E+00 -0.45593999997E+02  0.45594000000E+02  0.51100000000E-03 0. -1.
    9900012    2    1    2    0    0  0.19416801125E+02  0.20543233952E+02  0.14754113823E+02  0.59301945025E+02  0.50000001820E+02 0.  0.
         12    1    1    2    0    0 -0.19416801125E+02 -0.20543233952E+02 -0.14754113823E+02  0.31886054975E+02  0.00000000000E+00 0. -1.
         11    1    3    3    0    0 -0.98997597185E+01 -0.70465002374E+01 -0.42422982105E+01  0.12870722685E+02  0.51100000000E-03 0. -1.
        -11    1    3    3    0    0  0.17300601585E+02  0.81993806104E+01  0.54723148067E+01  0.19911978485E+02  0.51100000000E-03 0.  1.
         12    1    3    3    0    0  0.12015959259E+02  0.19390353579E+02  0.13524097227E+02  0.26519243855E+02  0.00000000000E+00 0. -1.
</event>
<event>
 7    1  0.7578565E-012  0.5930194E+02  0.7816164E-02  0.1266605E+00
        -11   -1    0    0    0    0  0.00000000000E+00  0.00000000000E+00  0.45593999997E+02  0.45594000000E+02  0.51100000000E-03 0. -1.
         11   -1    0    0    0    0 -0.00000000000E+00 -0.00000000000E+00 -0.45593999997E+02  0.45594000000E+02  0.51100000000E-03 0.  1.
    9900012    2    1    2    0    0 -0.41650857485E+01 -0.31373170987E+02  0.38854813905E+01  0.59301940935E+02  0.49999994359E+02 0.  0.
         12    1    1    2    0    0  0.41650857485E+01  0.31373170987E+02 -0.38854813905E+01  0.31886059065E+02  0.00000000000E+00 0. -1.
         11    1    3    3    0    0  0.29872028448E+01 -0.46159283505E+01  0.15690094461E+02  0.16625559835E+02  0.51100000000E-03 0. -1.
        -11    1    3    3    0    0 -0.16197219246E+01 -0.16272866585E+01 -0.16380744921E+02  0.16540869548E+02  0.51100000000E-03 0.  1.
        -12    1    3    3    0    0 -0.55325666686E+01 -0.25129955978E+02  0.45761318504E+01  0.26135511552E+02  0.00000000000E+00 0.  1.
</event>
<event>
 7    1  0.7578565E-012  0.5930191E+02  0.7816164E-02  0.1266605E+00
        -11   -1    0    0    0    0  0.00000000000E+00  0.00000000000E+00  0.45593999997E+02  0.45594000000E+02  0.51100000000E-03 0.  1.
         11   -1    0    0    0    0 -0.00000000000E+00 -0.00000000000E+00 -0.45593999997E+02  0.45594000000E+02  0.51100000000E-03 0. -1.
    9900012    2    1    2    0    0 -0.42627839074E+01 -0.55381292110E+01  0.31110779552E+02  0.59301908892E+02  0.49999935921E+02 0.  0.
         12    1    1    2    0    0  0.42627839074E+01  0.55381292110E+01 -0.31110779552E+02  0.31886091108E+02  0.00000000000E+00 0. -1.
         11    1    3    3    0    0  0.20422009603E+02 -0.50568486412E+01  0.78961965548E+01  0.22471762608E+02  0.51100000000E-03 0. -1.
        -11    1    3    3    0    0 -0.58911125483E+01  0.48414762869E+01  0.17794639048E+01  0.78301718846E+01  0.51100000000E-03 0.  1.
         12    1    3    3    0    0 -0.18793680962E+02 -0.53227568567E+01  0.21435119093E+02  0.28999974400E+02  0.00000000000E+00 0. -1.
</event>
<event>
 7    1  0.7578565E-012  0.5930198E+02  0.7816164E-02  0.1266605E+00
        -11   -1    0    0    0    0  0.00000000000E+00  0.00000000000E+00  0.45593999997E+02  0.45594000000E+02  0.51100000000E-03 0. -1.
         11   -1    0    0    0    0 -0.00000000000E+00 -0.00000000000E+00 -0.45593999997E+02  0.45594000000E+02  0.51100000000E-03 0.  1.
    9900012    2    1    2    0    0  0.48553708651E+01  0.10560554955E+02 -0.29692061506E+02  0.59301976986E+02  0.50000060108E+02 0.  0.
         12    1    1    2    0    0 -0.48553708651E+01 -0.10560554955E+02  0.29692061506E+02  0.31886023014E+02  0.00000000000E+00 0. -1.
         11    1    3    3    0    0  0.13254508741E+02  0.19362348868E+02 -0.53240438720E+01  0.24060922656E+02  0.51100000000E-03 0. -1.
        -11    1    3    3    0    0 -0.12636838553E+02  0.21564704162E+01 -0.17292102903E+02  0.21525725919E+02  0.51100000000E-03 0.  1.
         12    1    3    3    0    0  0.42377006778E+01 -0.10958264330E+02 -0.70759147303E+01  0.13715328411E+02  0.00000000000E+00 0. -1.
</event>
<event>
 7    1  0.7578565E-012  0.5930194E+02  0.7816164E-02  0.1266605E+00
        -11   -1    0    0    0    0  0.00000000000E+00  0.00000000000E+00  0.45593999997E+02  0.45594000000E+02  0.51100000000E-03 0. -1.
         11   -1    0    0    0    0 -0.00000000000E+00 -0.00000000000E+00 -0.45593999997E+02  0.45594000000E+02  0.51100000000E-03 0.  1.
    9900012    2    1    2    0    0  0.10988559765E+02  0.68302115742E+01 -0.29143102257E+02  0.59301942780E+02  0.49999997724E+02 0.  0.
         12    1    1    2    0    0 -0.10988559765E+02 -0.68302115742E+01  0.29143102257E+02  0.31886057220E+02  0.00000000000E+00 0. -1.
         11    1    3    3    0    0  0.97822679590E+01  0.82950096121E+01  0.78841287912E+01  0.15055212982E+02  0.51100000000E-03 0. -1.
        -11    1    3    3    0    0  0.84459294710E+01 -0.55928399930E+01 -0.33840941640E+02  0.35324537012E+02  0.51100000000E-03 0.  1.
        -12    1    3    3    0    0 -0.72396376648E+01  0.41280419551E+01 -0.31862894089E+01  0.89221927853E+01  0.00000000000E+00 0.  1.
</event>
<event>
 7    1  0.7578565E-012  0.5930192E+02  0.7816164E-02  0.1266605E+00
        -11   -1    0    0    0    0  0.00000000000E+00  0.00000000000E+00  0.45593999997E+02  0.45594000000E+02  0.51100000000E-03 0. -1.
         11   -1    0    0    0    0 -0.00000000000E+00 -0.00000000000E+00 -0.45593999997E+02  0.45594000000E+02  0.51100000000E-03 0.  1.
    9900012    2    1    2    0    0  0.24156988304E+01 -0.21204067134E+02  0.23691219600E+02  0.59301922317E+02  0.49999960405E+02 0.  0.
         12    1    1    2    0    0 -0.24156988304E+01  0.21204067134E+02 -0.23691219600E+02  0.31886077683E+02  0.00000000000E+00 0. -1.
         11    1    3    3    0    0 -0.13873084557E+02 -0.99431825258E+01  0.32325085216E+02  0.36554623351E+02  0.51100000000E-03 0. -1.
        -11    1    3    3    0    0  0.39859901039E+01 -0.67886808241E+01 -0.22773146681E+01  0.81951489796E+01  0.51100000000E-03 0.  1.
         12    1    3    3    0    0  0.12302793283E+02 -0.44722037841E+01 -0.63565509481E+01  0.14552149986E+02  0.00000000000E+00 0. -1.
</event>
<event>
 7    1  0.7578565E-012  0.5930203E+02  0.7816164E-02  0.1266604E+00
        -11   -1    0    0    0    0  0.00000000000E+00  0.00000000000E+00  0.45593999997E+02  0.45594000000E+02  0.51100000000E-03 0. -1.
         11   -1    0    0    0    0 -0.00000000000E+00 -0.00000000000E+00 -0.45593999997E+02  0.45594000000E+02  0.51100000000E-03 0.  1.
    9900012    2    1    2    0    0 -0.61856158899E+01  0.20922846839E+02 -0.23252688791E+02  0.59302032870E+02  0.50000162027E+02 0.  0.
         12    1    1    2    0    0  0.61856158899E+01 -0.20922846839E+02  0.23252688791E+02  0.31885967130E+02  0.00000000000E+00 0. -1.
         11    1    3    3    0    0  0.66150378119E+01 -0.51942766448E+01 -0.19843466991E+02  0.21552318149E+02  0.51100000000E-03 0. -1.
        -11    1    3    3    0    0 -0.41357880853E+00  0.24040910150E+02 -0.63111932931E+01  0.24858953504E+02  0.51100000000E-03 0.  1.
        -12    1    3    3    0    0 -0.12387074893E+02  0.20762133346E+01  0.29019714932E+01  0.12890761218E+02  0.00000000000E+00 0.  1.
</event>
<event>
 7    1  0.7578565E-012  0.5930195E+02  0.7816164E-02  0.1266605E+00
        -11   -1    0    0    0    0  0.00000000000E+00  0.00000000000E+00  0.45593999997E+02  0.45594000000E+02  0.51100000000E-03 0.  1.
         11   -1    0    0    0    0 -0.00000000000E+00 -0.00000000000E+00 -0.45593999997E+02  0.45594000000E+02  0.51100000000E-03 0. -1.
    9900012    2    1    2    0    0 -0.15656163622E+02  0.90322407687E+01  0.26268290469E+02  0.59301954199E+02  0.50000018549E+02 0.  0.
         12    1    1    2    0    0  0.15656163622E+02 -0.90322407687E+01 -0.26268290469E+02  0.31886045801E+02  0.00000000000E+00 0. -1.
         11    1    3    3    0    0 -0.22099418493E+02  0.47696193935E+01  0.23208252942E+02  0.32399947095E+02  0.51100000000E-03 0. -1.
        -11    1    3    3    0    0 -0.58757174233E+01 -0.75943704926E+01  0.51804508290E+00  0.96159705380E+01  0.51100000000E-03 0.  1.
         12    1    3    3    0    0  0.12318972295E+02  0.11856991868E+02  0.25419924442E+01  0.17286036565E+02  0.00000000000E+00 0. -1.
</event>
<event>
 7    1  0.7578565E-012  0.5930196E+02  0.7816164E-02  0.1266605E+00
        -11   -1    0    0    0    0  0.00000000000E+00  0.00000000000E+00  0.45593999997E+02  0.45594000000E+02  0.51100000000E-03 0.  1.
         11   -1    0    0    0    0 -0.00000000000E+00 -0.00000000000E+00 -0.45593999997E+02  0.45594000000E+02  0.51100000000E-03 0. -1.
    9900012    2    1    2    0    0  0.15789922631E+02  0.69801695654E+01  0.26808120961E+02  0.59301956449E+02  0.50000022654E+02 0.  0.
         12    1    1    2    0    0 -0.15789922631E+02 -0.69801695654E+01 -0.26808120961E+02  0.31886043551E+02  0.00000000000E+00 0. -1.
         11    1    3    3    0    0  0.45237311675E+01 -0.17768885176E+02  0.94098516051E+01  0.20609287508E+02  0.51100000000E-03 0. -1.
        -11    1    3    3    0    0  0.12921232690E+02  0.24143930670E+02  0.21115003072E+02  0.34579343508E+02  0.51100000000E-03 0.  1.
         12    1    3    3    0    0 -0.16550412267E+01  0.60512407209E+00 -0.37167337162E+01  0.41133254335E+01  0.00000000000E+00 0. -1.
</event>
<event>
 7    1  0.7578565E-012  0.5930194E+02  0.7816164E-02  0.1266605E+00
        -11   -1    0    0    0    0  0.00000000000E+00  0.00000000000E+00  0.45593999997E+02  0.45594000000E+02  0.51100000000E-03 0. -1.
         11   -1    0    0    0    0 -0.00000000000E+00 -0.00000000000E+00 -0.45593999997E+02  0.45594000000E+02  0.51100000000E-03 0.  1.
    9900012    2    1    2    0    0 -0.16199448629E+02  0.25314444556E+02 -0.10652572872E+02  0.59301944304E+02  0.50000000504E+02 0.  0.
         12    1    1    2    0    0  0.16199448629E+02 -0.25314444556E+02  0.10652572872E+02  0.31886055696E+02  0.00000000000E+00 0. -1.
         11    1    3    3    0    0 -0.52579516478E+01 -0.50385459698E+01 -0.57143200892E+01  0.92566978650E+01  0.51100000000E-03 0. -1.
        -11    1    3    3    0    0  0.10102468562E+02  0.12654787058E+02  0.97193137060E+01  0.18885670910E+02  0.51100000000E-03 0.  1.
        -12    1    3    3    0    0 -0.21043965544E+02  0.17698203467E+02 -0.14657566489E+02  0.31159575529E+02  0.00000000000E+00 0.  1.
</event>
<event>
 7    1  0.7578565E-012  0.5930193E+02  0.7816164E-02  0.1266605E+00
        -11   -1    0    0    0    0  0.00000000000E+00  0.00000000000E+00  0.45593999997E+02  0.45594000000E+02  0.51100000000E-03 0.  1.
         11   -1    0    0    0    0 -0.00000000000E+00 -0.00000000000E+00 -0.45593999997E+02  0.45594000000E+02  0.51100000000E-03 0. -1.
    9900012    2    1    2    0    0  0.20775352492E+01  0.18962712033E+02  0.25550361496E+02  0.59301928230E+02  0.49999971188E+02 0.  0.
         12    1    1    2    0    0 -0.20775352492E+01 -0.18962712033E+02 -0.25550361496E+02  0.31886071770E+02  0.00000000000E+00 0. -1.
         11    1    3    3    0    0 -0.52423101079E+01 -0.82778738710E+01  0.24127588182E+02  0.26041227368E+02  0.51100000000E-03 0. -1.
        -11    1    3    3    0    0 -0.98733702980E+00  0.23997324889E+02 -0.93707935473E+00  0.24035901360E+02  0.51100000000E-03 0.  1.
         12    1    3    3    0    0  0.83071823868E+01  0.32432610152E+01  0.23598526692E+01  0.92247995014E+01  0.00000000000E+00 0. -1.
</event>
<event>
 7    1  0.7578565E-012  0.5930195E+02  0.7816164E-02  0.1266605E+00
        -11   -1    0    0    0    0  0.00000000000E+00  0.00000000000E+00  0.45593999997E+02  0.45594000000E+02  0.51100000000E-03 0.  1.
         11   -1    0    0    0    0 -0.00000000000E+00 -0.00000000000E+00 -0.45593999997E+02  0.45594000000E+02  0.51100000000E-03 0. -1.
    9900012    2    1    2    0    0  0.25111914892E+02  0.13081280720E+02  0.14662600105E+02  0.59301952634E+02  0.50000015695E+02 0.  0.
         12    1    1    2    0    0 -0.25111914892E+02 -0.13081280720E+02 -0.14662600105E+02  0.31886047366E+02  0.00000000000E+00 0. -1.
         11    1    3    3    0    0  0.50006018452E+01  0.25120176816E+02  0.10488014153E+02  0.27677206204E+02  0.51100000000E-03 0. -1.
        -11    1    3    3    0    0  0.18975201949E+02 -0.93681607178E+01  0.11257815034E+02  0.23969962950E+02  0.51100000000E-03 0.  1.
         12    1    3    3    0    0  0.11361110980E+01 -0.26707353782E+01 -0.70832290828E+01  0.76547834801E+01  0.00000000000E+00 0. -1.
</event>
<event>
 7    1  0.7578565E-012  0.5930195E+02  0.7816164E-02  0.1266605E+00
        -11   -1    0    0    0    0  0.00000000000E+00  0.00000000000E+00  0.45593999997E+02  0.45594000000E+02  0.51100000000E-03 0. -1.
         11   -1    0    0    0    0 -0.00000000000E+00 -0.00000000000E+00 -0.45593999997E+02  0.45594000000E+02  0.51100000000E-03 0.  1.
    9900012    2    1    2    0    0 -0.31394925524E+02  0.50354103838E+01 -0.23924405939E+01  0.59301945393E+02  0.50000002490E+02 0.  0.
         12    1    1    2    0    0  0.31394925524E+02 -0.50354103838E+01  0.23924405939E+01  0.31886054607E+02  0.00000000000E+00 0. -1.
         11    1    3    3    0    0  0.53741980505E+01 -0.45522412967E+00  0.10670842357E+01  0.54979907895E+01  0.51100000000E-03 0. -1.
        -11    1    3    3    0    0 -0.40855963353E+02  0.10978859639E+02  0.53574133280E+01  0.42643252436E+02  0.51100000000E-03 0.  1.
        -12    1    3    3    0    0  0.40868397778E+01 -0.54882251257E+01 -0.88169381575E+01  0.11160702168E+02  0.00000000000E+00 0.  1.
</event>
<event>
 7    1  0.7578565E-012  0.5930197E+02  0.7816164E-02  0.1266605E+00
        -11   -1    0    0    0    0  0.00000000000E+00  0.00000000000E+00  0.45593999997E+02  0.45594000000E+02  0.51100000000E-03 0.  1.
         11   -1    0    0    0    0 -0.00000000000E+00 -0.00000000000E+00 -0.45593999997E+02  0.45594000000E+02  0.51100000000E-03 0. -1.
    9900012    2    1    2    0    0  0.16521917534E+02 -0.24505699048E+01  0.27161364101E+02  0.59301972470E+02  0.50000051871E+02 0.  0.
         12    1    1    2    0    0 -0.16521917534E+02  0.24505699048E+01 -0.27161364101E+02  0.31886027530E+02  0.00000000000E+00 0. -1.
         11    1    3    3    0    0 -0.13923646332E+01 -0.16846934629E+01 -0.49023808052E+01  0.53675142437E+01  0.51100000000E-03 0. -1.
        -11    1    3    3    0    0  0.72906530862E-01 -0.33191464323E+01  0.35442236325E+02  0.35597389853E+02  0.51100000000E-03 0.  1.
        -12    1    3    3    0    0  0.17841375636E+02  0.25532699904E+01 -0.33784914190E+01  0.18337068373E+02  0.00000000000E+00 0.  1.
</event>
<event>
 7    1  0.7578565E-012  0.5930191E+02  0.7816164E-02  0.1266605E+00
        -11   -1    0    0    0    0  0.00000000000E+00  0.00000000000E+00  0.45593999997E+02  0.45594000000E+02  0.51100000000E-03 0.  1.
         11   -1    0    0    0    0 -0.00000000000E+00 -0.00000000000E+00 -0.45593999997E+02  0.45594000000E+02  0.51100000000E-03 0. -1.
    9900012    2    1    2    0    0  0.24462713596E+02  0.16293374689E+02  0.12362201009E+02  0.59301914806E+02  0.49999946706E+02 0.  0.
         12    1    1    2    0    0 -0.24462713596E+02 -0.16293374689E+02 -0.12362201009E+02  0.31886085194E+02  0.00000000000E+00 0. -1.
         11    1    3    3    0    0 -0.35779353111E+01 -0.93007543507E+01  0.13790646528E+02  0.17014334677E+02  0.51100000000E-03 0. -1.
        -11    1    3    3    0    0  0.23951713912E+02  0.17610646145E+02 -0.84385248198E+01  0.30903529869E+02  0.51100000000E-03 0.  1.
        -12    1    3    3    0    0  0.40889349952E+01  0.79834828942E+01  0.70100793007E+01  0.11384050260E+02  0.00000000000E+00 0.  1.
</event>
<event>
 7    1  0.7578565E-012  0.5930189E+02  0.7816164E-02  0.1266605E+00
        -11   -1    0    0    0    0  0.00000000000E+00  0.00000000000E+00  0.45593999997E+02  0.45594000000E+02  0.51100000000E-03 0.  1.
         11   -1    0    0    0    0 -0.00000000000E+00 -0.00000000000E+00 -0.45593999997E+02  0.45594000000E+02  0.51100000000E-03 0. -1.
    9900012    2    1    2    0    0  0.14507032987E+02  0.20030742020E+02  0.20125597644E+02  0.59301885271E+02  0.49999892842E+02 0.  0.
         12    1    1    2    0    0 -0.14507032987E+02 -0.20030742020E+02 -0.20125597644E+02  0.31886114729E+02  0.00000000000E+00 0. -1.
         11    1    3    3    0    0  0.19968246269E+02  0.64509220099E+01  0.22036432052E+02  0.30429419838E+02  0.51100000000E-03 0. -1.
        -11    1    3    3    0    0 -0.14629143356E+02  0.12927947488E+02 -0.23914868150E+01  0.19668829935E+02  0.51100000000E-03 0.  1.
         12    1    3    3    0    0  0.91679300747E+01  0.65187252261E+00  0.48065240650E+00  0.92036354978E+01  0.00000000000E+00 0. -1.
</event>
<event>
 7    1  0.7578565E-012  0.5930195E+02  0.7816164E-02  0.1266605E+00
        -11   -1    0    0    0    0  0.00000000000E+00  0.00000000000E+00  0.45593999997E+02  0.45594000000E+02  0.51100000000E-03 0. -1.
         11   -1    0    0    0    0 -0.00000000000E+00 -0.00000000000E+00 -0.45593999997E+02  0.45594000000E+02  0.51100000000E-03 0.  1.
    9900012    2    1    2    0    0  0.11652323594E+02  0.17936185108E+02 -0.23648184655E+02  0.59301952599E+02  0.50000015633E+02 0.  0.
         12    1    1    2    0    0 -0.11652323594E+02 -0.17936185108E+02  0.23648184655E+02  0.31886047401E+02  0.00000000000E+00 0. -1.
         11    1    3    3    0    0  0.12299276982E+02  0.16919235157E+02 -0.16377767491E+02  0.26566219167E+02  0.51100000000E-03 0.  1.
        -11    1    3    3    0    0  0.13332854466E+02 -0.48470998587E+01  0.29004913927E+01  0.14480063392E+02  0.51100000000E-03 0. -1.
        -12    1    3    3    0    0 -0.13979807853E+02  0.58640498097E+01 -0.10170908556E+02  0.18255670041E+02  0.00000000000E+00 0.  1.
</event>
<event>
 7    1  0.7578565E-012  0.5930199E+02  0.7816164E-02  0.1266605E+00
        -11   -1    0    0    0    0  0.00000000000E+00  0.00000000000E+00  0.45593999997E+02  0.45594000000E+02  0.51100000000E-03 0.  1.
         11   -1    0    0    0    0 -0.00000000000E+00 -0.00000000000E+00 -0.45593999997E+02  0.45594000000E+02  0.51100000000E-03 0. -1.
    9900012    2    1    2    0    0 -0.29767608915E+02  0.50851231403E+01  0.10234676447E+02  0.59301990218E+02  0.50000084239E+02 0.  0.
         12    1    1    2    0    0  0.29767608915E+02 -0.50851231403E+01 -0.10234676447E+02  0.31886009782E+02  0.00000000000E+00 0. -1.
         11    1    3    3    0    0 -0.18016125499E+02  0.64719976994E+01  0.22709647736E+02  0.29701778276E+02  0.51100000000E-03 0.  1.
        -11    1    3    3    0    0 -0.20923366350E+01 -0.61457336049E+01 -0.16788878974E+02  0.18000399207E+02  0.51100000000E-03 0. -1.
         12    1    3    3    0    0 -0.96591467816E+01  0.47588590459E+01  0.43139076853E+01  0.11599812735E+02  0.00000000000E+00 0. -1.
</event>
<event>
 7    1  0.7578565E-012  0.5930194E+02  0.7816164E-02  0.1266605E+00
        -11   -1    0    0    0    0  0.00000000000E+00  0.00000000000E+00  0.45593999997E+02  0.45594000000E+02  0.51100000000E-03 0. -1.
         11   -1    0    0    0    0 -0.00000000000E+00 -0.00000000000E+00 -0.45593999997E+02  0.45594000000E+02  0.51100000000E-03 0.  1.
    9900012    2    1    2    0    0 -0.14502513693E+02  0.81658403378E+01 -0.27197743227E+02  0.59301935827E+02  0.49999985043E+02 0.  0.
         12    1    1    2    0    0  0.14502513693E+02 -0.81658403378E+01  0.27197743227E+02  0.31886064173E+02  0.00000000000E+00 0. -1.
         11    1    3    3    0    0  0.13210942373E+01 -0.15665125066E+02 -0.35731105784E+01  0.16121679589E+02  0.51100000000E-03 0. -1.
        -11    1    3    3    0    0 -0.19295978742E+02  0.18022643934E+02 -0.24901485725E+02  0.36293725099E+02  0.51100000000E-03 0.  1.
        -12    1    3    3    0    0  0.34723708114E+01  0.58083214694E+01  0.12768530763E+01  0.68865311386E+01  0.00000000000E+00 0.  1.
</event>
<event>
 7    1  0.7578565E-012  0.5930190E+02  0.7816164E-02  0.1266605E+00
        -11   -1    0    0    0    0  0.00000000000E+00  0.00000000000E+00  0.45593999997E+02  0.45594000000E+02  0.51100000000E-03 0. -1.
         11   -1    0    0    0    0 -0.00000000000E+00 -0.00000000000E+00 -0.45593999997E+02  0.45594000000E+02  0.51100000000E-03 0.  1.
    9900012    2    1    2    0    0  0.12710509623E+01 -0.31485093170E+02  0.48781603211E+01  0.59301904118E+02  0.49999927214E+02 0.  0.
         12    1    1    2    0    0 -0.12710509623E+01  0.31485093170E+02 -0.48781603211E+01  0.31886095882E+02  0.00000000000E+00 0. -1.
         11    1    3    3    0    0 -0.77015853177E+01  0.56054419897E+01 -0.10967340814E+01  0.95884421160E+01  0.51100000000E-03 0. -1.
        -11    1    3    3    0    0  0.12528562764E+02 -0.14066970598E+02 -0.10133646219E+02  0.21390075565E+02  0.51100000000E-03 0.  1.
        -12    1    3    3    0    0 -0.35559264839E+01 -0.23023564562E+02  0.16108540621E+02  0.28323386436E+02  0.00000000000E+00 0.  1.
</event>
<event>
 7    1  0.7578565E-012  0.5930200E+02  0.7816164E-02  0.1266605E+00
        -11   -1    0    0    0    0  0.00000000000E+00  0.00000000000E+00  0.45593999997E+02  0.45594000000E+02  0.51100000000E-03 0. -1.
         11   -1    0    0    0    0 -0.00000000000E+00 -0.00000000000E+00 -0.45593999997E+02  0.45594000000E+02  0.51100000000E-03 0.  1.
    9900012    2    1    2    0    0 -0.22096255699E+02  0.22176730065E+02  0.60551969706E+01  0.59301995505E+02  0.50000093883E+02 0.  0.
         12    1    1    2    0    0  0.22096255699E+02 -0.22176730065E+02 -0.60551969706E+01  0.31886004495E+02  0.00000000000E+00 0. -1.
         11    1    3    3    0    0 -0.52864920475E+01  0.59102648923E+00  0.15306131731E+02  0.16204134636E+02  0.51100000000E-03 0. -1.
        -11    1    3    3    0    0 -0.13949458848E+02  0.29930420079E+02 -0.91896353013E+01  0.34276330689E+02  0.51100000000E-03 0.  1.
        -12    1    3    3    0    0 -0.28603048028E+01 -0.83447165037E+01 -0.61299459177E-01  0.88215301799E+01  0.00000000000E+00 0.  1.
</event>
<event>
 7    1  0.7578565E-012  0.5930194E+02  0.7816164E-02  0.1266605E+00
        -11   -1    0    0    0    0  0.00000000000E+00  0.00000000000E+00  0.45593999997E+02  0.45594000000E+02  0.51100000000E-03 0.  1.
         11   -1    0    0    0    0 -0.00000000000E+00 -0.00000000000E+00 -0.45593999997E+02  0.45594000000E+02  0.51100000000E-03 0. -1.
    9900012    2    1    2    0    0 -0.24544231153E+02  0.52429513492E+01  0.19667563292E+02  0.59301939290E+02  0.49999991360E+02 0.  0.
         12    1    1    2    0    0  0.24544231153E+02 -0.52429513492E+01 -0.19667563292E+02  0.31886060710E+02  0.00000000000E+00 0. -1.
         11    1    3    3    0    0 -0.27202887730E+01  0.15807577468E+02 -0.39390437962E+00  0.16044769781E+02  0.51100000000E-03 0. -1.
        -11    1    3    3    0    0 -0.29089563595E+02 -0.61963022429E+01  0.14256544453E+02  0.32982509481E+02  0.51100000000E-03 0.  1.
        -12    1    3    3    0    0  0.72656212151E+01 -0.43683238758E+01  0.58049232188E+01  0.10274660028E+02  0.00000000000E+00 0.  1.
</event>
<event>
 7    1  0.7578565E-012  0.5930193E+02  0.7816164E-02  0.1266605E+00
        -11   -1    0    0    0    0  0.00000000000E+00  0.00000000000E+00  0.45593999997E+02  0.45594000000E+02  0.51100000000E-03 0. -1.
         11   -1    0    0    0    0 -0.00000000000E+00 -0.00000000000E+00 -0.45593999997E+02  0.45594000000E+02  0.51100000000E-03 0.  1.
    9900012    2    1    2    0    0  0.11325671096E+02 -0.63741260067E+01 -0.29117366044E+02  0.59301932299E+02  0.49999978609E+02 0.  0.
         12    1    1    2    0    0 -0.11325671096E+02  0.63741260067E+01  0.29117366044E+02  0.31886067701E+02  0.00000000000E+00 0. -1.
         11    1    3    3    0    0  0.16895214459E+02 -0.13051397175E+00 -0.21885304782E+01  0.17036870940E+02  0.51100000000E-03 0. -1.
        -11    1    3    3    0    0  0.66396403990E+01 -0.98564744477E+01 -0.27035348278E+02  0.29532100669E+02  0.51100000000E-03 0.  1.
         12    1    3    3    0    0 -0.12209183762E+02  0.36128624128E+01  0.10651271224E+00  0.12732960689E+02  0.00000000000E+00 0. -1.
</event>
<event>
 7    1  0.7578565E-012  0.5930196E+02  0.7816164E-02  0.1266605E+00
        -11   -1    0    0    0    0  0.00000000000E+00  0.00000000000E+00  0.45593999997E+02  0.45594000000E+02  0.51100000000E-03 0.  1.
         11   -1    0    0    0    0 -0.00000000000E+00 -0.00000000000E+00 -0.45593999997E+02  0.45594000000E+02  0.51100000000E-03 0. -1.
    9900012    2    1    2    0    0  0.24997166107E+02  0.72681643971E+01  0.18412903943E+02  0.59301959814E+02  0.50000028791E+02 0.  0.
         12    1    1    2    0    0 -0.24997166107E+02 -0.72681643971E+01 -0.18412903943E+02  0.31886040186E+02  0.00000000000E+00 0. -1.
         11    1    3    3    0    0  0.39547059334E+01 -0.55404588087E+01 -0.48687912772E+01  0.83690806898E+01  0.51100000000E-03 0. -1.
        -11    1    3    3    0    0 -0.10013731776E+02  0.87461760034E+01  0.11123732422E+02  0.17335162013E+02  0.51100000000E-03 0.  1.
        -12    1    3    3    0    0  0.31056191950E+02  0.40624472024E+01  0.12157962799E+02  0.33597717112E+02  0.00000000000E+00 0.  1.
</event>
<event>
 7    1  0.7578565E-012  0.5930195E+02  0.7816164E-02  0.1266605E+00
        -11   -1    0    0    0    0  0.00000000000E+00  0.00000000000E+00  0.45593999997E+02  0.45594000000E+02  0.51100000000E-03 0. -1.
         11   -1    0    0    0    0 -0.00000000000E+00 -0.00000000000E+00 -0.45593999997E+02  0.45594000000E+02  0.51100000000E-03 0.  1.
    9900012    2    1    2    0    0  0.29377883231E+01 -0.31319474209E+02  0.52134708586E+01  0.59301947511E+02  0.50000006352E+02 0.  0.
         12    1    1    2    0    0 -0.29377883231E+01  0.31319474209E+02 -0.52134708586E+01  0.31886052489E+02  0.00000000000E+00 0. -1.
         11    1    3    3    0    0  0.51431012682E+01 -0.25503660563E+02  0.21947731685E+02  0.34038083364E+02  0.51100000000E-03 0. -1.
        -11    1    3    3    0    0  0.51122545552E+00  0.53945672627E+01 -0.11259859406E+02  0.12495884983E+02  0.51100000000E-03 0.  1.
        -12    1    3    3    0    0 -0.27165384006E+01 -0.11210380909E+02 -0.54744014205E+01  0.12767979163E+02  0.00000000000E+00 0.  1.
</event>
<event>
 7    1  0.7578565E-012  0.5930191E+02  0.7816164E-02  0.1266605E+00
        -11   -1    0    0    0    0  0.00000000000E+00  0.00000000000E+00  0.45593999997E+02  0.45594000000E+02  0.51100000000E-03 0.  1.
         11   -1    0    0    0    0 -0.00000000000E+00 -0.00000000000E+00 -0.45593999997E+02  0.45594000000E+02  0.51100000000E-03 0. -1.
    9900012    2    1    2    0    0  0.74032170224E+01 -0.17423552626E+01  0.30965775169E+02  0.59301911247E+02  0.49999940215E+02 0.  0.
         12    1    1    2    0    0 -0.74032170224E+01  0.17423552626E+01 -0.30965775169E+02  0.31886088753E+02  0.00000000000E+00 0. -1.
         11    1    3    3    0    0 -0.44383437999E+01  0.80857329989E+01 -0.86039996380E+01  0.12613753757E+02  0.51100000000E-03 0. -1.
        -11    1    3    3    0    0  0.69929273872E+01 -0.15686370688E+02  0.27311116263E+02  0.32262367096E+02  0.51100000000E-03 0.  1.
        -12    1    3    3    0    0  0.48486334352E+01  0.58582824266E+01  0.12258658544E+02  0.14425790394E+02  0.00000000000E+00 0.  1.
</event>
<event>
 7    1  0.7578565E-012  0.5930197E+02  0.7816164E-02  0.1266605E+00
        -11   -1    0    0    0    0  0.00000000000E+00  0.00000000000E+00  0.45593999997E+02  0.45594000000E+02  0.51100000000E-03 0.  1.
         11   -1    0    0    0    0 -0.00000000000E+00 -0.00000000000E+00 -0.45593999997E+02  0.45594000000E+02  0.51100000000E-03 0. -1.
    9900012    2    1    2    0    0 -0.16472690140E+01  0.23171901673E+02  0.21841891296E+02  0.59301972688E+02  0.50000052270E+02 0.  0.
         12    1    1    2    0    0  0.16472690140E+01 -0.23171901673E+02 -0.21841891296E+02  0.31886027312E+02  0.00000000000E+00 0. -1.
         11    1    3    3    0    0 -0.98042830632E+01  0.12754279317E+01 -0.90090942561E+01  0.13375891087E+02  0.51100000000E-03 0. -1.
        -11    1    3    3    0    0  0.58711190371E+01  0.15089496069E+02  0.34322845023E+02  0.37950238749E+02  0.51100000000E-03 0.  1.
        -12    1    3    3    0    0  0.22858950121E+01  0.68069776718E+01 -0.34718594702E+01  0.79758428528E+01  0.00000000000E+00 0.  1.
</event>
<event>
 7    1  0.7578565E-012  0.5930193E+02  0.7816164E-02  0.1266605E+00
        -11   -1    0    0    0    0  0.00000000000E+00  0.00000000000E+00  0.45593999997E+02  0.45594000000E+02  0.51100000000E-03 0. -1.
         11   -1    0    0    0    0 -0.00000000000E+00 -0.00000000000E+00 -0.45593999997E+02  0.45594000000E+02  0.51100000000E-03 0.  1.
    9900012    2    1    2    0    0  0.18880045438E+02 -0.25684837527E+02 -0.74453389004E+00  0.59301932114E+02  0.49999978272E+02 0.  0.
         12    1    1    2    0    0 -0.18880045438E+02  0.25684837527E+02  0.74453389004E+00  0.31886067886E+02  0.00000000000E+00 0. -1.
         11    1    3    3    0    0  0.31081044308E+02 -0.52927752467E+01  0.99848627119E+01  0.33071774502E+02  0.51100000000E-03 0. -1.
        -11    1    3    3    0    0 -0.10132169348E+02 -0.18643921356E+02 -0.93029021782E+01  0.23168958726E+02  0.51100000000E-03 0.  1.
         12    1    3    3    0    0 -0.20688295216E+01 -0.17481409239E+01 -0.14264944237E+01  0.30611988861E+01  0.00000000000E+00 0. -1.
</event>
<event>
 7    1  0.7578565E-012  0.5930200E+02  0.7816164E-02  0.1266605E+00
        -11   -1    0    0    0    0  0.00000000000E+00  0.00000000000E+00  0.45593999997E+02  0.45594000000E+02  0.51100000000E-03 0. -1.
         11   -1    0    0    0    0 -0.00000000000E+00 -0.00000000000E+00 -0.45593999997E+02  0.45594000000E+02  0.51100000000E-03 0.  1.
    9900012    2    1    2    0    0  0.25601814487E+02  0.49672410978E+01 -0.18346407424E+02  0.59301999083E+02  0.50000100407E+02 0.  0.
         12    1    1    2    0    0 -0.25601814487E+02 -0.49672410978E+01  0.18346407424E+02  0.31886000917E+02  0.00000000000E+00 0. -1.
         11    1    3    3    0    0 -0.10293474904E+02  0.17834961864E+01 -0.35557587315E+01  0.11035393272E+02  0.51100000000E-03 0. -1.
        -11    1    3    3    0    0  0.21391778541E+02 -0.10970852746E+02 -0.14345781148E+02  0.27995878913E+02  0.51100000000E-03 0.  1.
         12    1    3    3    0    0  0.14503510850E+02  0.14154597658E+02 -0.44486754463E+00  0.20270726897E+02  0.00000000000E+00 0. -1.
</event>
<event>
 7    1  0.7578565E-012  0.5930191E+02  0.7816164E-02  0.1266605E+00
        -11   -1    0    0    0    0  0.00000000000E+00  0.00000000000E+00  0.45593999997E+02  0.45594000000E+02  0.51100000000E-03 0.  1.
         11   -1    0    0    0    0 -0.00000000000E+00 -0.00000000000E+00 -0.45593999997E+02  0.45594000000E+02  0.51100000000E-03 0. -1.
    9900012    2    1    2    0    0  0.25213151843E+02 -0.19241563385E+02  0.32835938095E+01  0.59301909370E+02  0.49999936792E+02 0.  0.
         12    1    1    2    0    0 -0.25213151843E+02  0.19241563385E+02 -0.32835938095E+01  0.31886090630E+02  0.00000000000E+00 0. -1.
         11    1    3    3    0    0 -0.77493301494E+01 -0.13784342495E+02  0.35003371520E+01  0.16196066690E+02  0.51100000000E-03 0. -1.
        -11    1    3    3    0    0  0.34031706366E+02 -0.94059852786E+01 -0.62098604396E+01  0.35849574114E+02  0.51100000000E-03 0.  1.
         12    1    3    3    0    0 -0.10692243729E+01  0.39487643890E+01  0.59931170970E+01  0.72562685657E+01  0.00000000000E+00 0. -1.
</event>
<event>
 7    1  0.7578565E-012  0.5930198E+02  0.7816164E-02  0.1266605E+00
        -11   -1    0    0    0    0  0.00000000000E+00  0.00000000000E+00  0.45593999997E+02  0.45594000000E+02  0.51100000000E-03 0.  1.
         11   -1    0    0    0    0 -0.00000000000E+00 -0.00000000000E+00 -0.45593999997E+02  0.45594000000E+02  0.51100000000E-03 0. -1.
    9900012    2    1    2    0    0  0.84985868001E+01 -0.18292295597E+02  0.24695830852E+02  0.59301982417E+02  0.50000070013E+02 0.  0.
         12    1    1    2    0    0 -0.84985868001E+01  0.18292295597E+02 -0.24695830852E+02  0.31886017583E+02  0.00000000000E+00 0. -1.
         11    1    3    3    0    0 -0.15215391258E+02 -0.17006670370E+02  0.58935412898E+01  0.23568385549E+02  0.51100000000E-03 0. -1.
        -11    1    3    3    0    0  0.15785439972E+02 -0.99298877238E+01  0.11134543453E+02  0.21720056250E+02  0.51100000000E-03 0.  1.
         12    1    3    3    0    0  0.79285380854E+01  0.86442624960E+01  0.76677461096E+01  0.14013540619E+02  0.00000000000E+00 0. -1.
</event>
<event>
 7    1  0.7578565E-012  0.5930194E+02  0.7816164E-02  0.1266605E+00
        -11   -1    0    0    0    0  0.00000000000E+00  0.00000000000E+00  0.45593999997E+02  0.45594000000E+02  0.51100000000E-03 0. -1.
         11   -1    0    0    0    0 -0.00000000000E+00 -0.00000000000E+00 -0.45593999997E+02  0.45594000000E+02  0.51100000000E-03 0.  1.
    9900012    2    1    2    0    0  0.24305747951E+00  0.22810134347E+02 -0.22279131400E+02  0.59301937185E+02  0.49999987521E+02 0.  0.
         12    1    1    2    0    0 -0.24305747951E+00 -0.22810134347E+02  0.22279131400E+02  0.31886062815E+02  0.00000000000E+00 0. -1.
         11    1    3    3    0    0  0.10783515558E+02 -0.41131149379E+01 -0.64802120899E+01  0.13236127503E+02  0.51100000000E-03 0. -1.
        -11    1    3    3    0    0 -0.18593441903E+02  0.40615477827E+01 -0.71336936143E+01  0.20324906815E+02  0.51100000000E-03 0.  1.
        -12    1    3    3    0    0  0.80529838247E+01  0.22861701502E+02 -0.86652256959E+01  0.25740902867E+02  0.00000000000E+00 0.  1.
</event>
<event>
 7    1  0.7578565E-012  0.5930177E+02  0.7816164E-02  0.1266605E+00
        -11   -1    0    0    0    0  0.00000000000E+00  0.00000000000E+00  0.45593999997E+02  0.45594000000E+02  0.51100000000E-03 0. -1.
         11   -1    0    0    0    0 -0.00000000000E+00 -0.00000000000E+00 -0.45593999997E+02  0.45594000000E+02  0.51100000000E-03 0.  1.
    9900012    2    1    2    0    0  0.28331109564E+01  0.82725343981E+01 -0.30663830626E+02  0.59301767051E+02  0.49999677235E+02 0.  0.
         12    1    1    2    0    0 -0.28331109564E+01 -0.82725343981E+01  0.30663830626E+02  0.31886232949E+02  0.00000000000E+00 0. -1.
         11    1    3    3    0    0 -0.62095162584E+01 -0.10284971164E+02 -0.16645618861E+01  0.12128870126E+02  0.51100000000E-03 0. -1.
        -11    1    3    3    0    0  0.56646903950E+01  0.21186188105E+02 -0.46084904973E+01  0.22409405807E+02  0.51100000000E-03 0.  1.
        -12    1    3    3    0    0  0.33779368198E+01 -0.26286825431E+01 -0.24390778242E+02  0.24763491118E+02  0.00000000000E+00 0.  1.
</event>
<event>
 7    1  0.7578565E-012  0.5930194E+02  0.7816164E-02  0.1266605E+00
        -11   -1    0    0    0    0  0.00000000000E+00  0.00000000000E+00  0.45593999997E+02  0.45594000000E+02  0.51100000000E-03 0.  1.
         11   -1    0    0    0    0 -0.00000000000E+00 -0.00000000000E+00 -0.45593999997E+02  0.45594000000E+02  0.51100000000E-03 0. -1.
    9900012    2    1    2    0    0  0.20041952884E+02  0.15002524313E+02  0.19747533263E+02  0.59301942214E+02  0.49999996693E+02 0.  0.
         12    1    1    2    0    0 -0.20041952884E+02 -0.15002524313E+02 -0.19747533263E+02  0.31886057786E+02  0.00000000000E+00 0. -1.
         11    1    3    3    0    0  0.26621862988E+02 -0.31257007802E+01  0.48394228136E+01  0.27238091118E+02  0.51100000000E-03 0. -1.
        -11    1    3    3    0    0 -0.27269726506E+01  0.18801415340E+02  0.26318692077E+01  0.19179581184E+02  0.51100000000E-03 0.  1.
         12    1    3    3    0    0 -0.38529374542E+01 -0.67319024658E+00  0.12276241242E+02  0.12884269912E+02  0.00000000000E+00 0. -1.
</event>
<event>
 7    1  0.7578565E-012  0.5930200E+02  0.7816164E-02  0.1266605E+00
        -11   -1    0    0    0    0  0.00000000000E+00  0.00000000000E+00  0.45593999997E+02  0.45594000000E+02  0.51100000000E-03 0. -1.
         11   -1    0    0    0    0 -0.00000000000E+00 -0.00000000000E+00 -0.45593999997E+02  0.45594000000E+02  0.51100000000E-03 0.  1.
    9900012    2    1    2    0    0 -0.48421672578E+01  0.13743501326E+02 -0.28361715162E+02  0.59301995243E+02  0.50000093404E+02 0.  0.
         12    1    1    2    0    0  0.48421672578E+01 -0.13743501326E+02  0.28361715162E+02  0.31886004757E+02  0.00000000000E+00 0. -1.
         11    1    3    3    0    0 -0.13677122909E+02 -0.13459560841E+01 -0.25029299827E+02  0.28554179010E+02  0.51100000000E-03 0. -1.
        -11    1    3    3    0    0  0.17482498165E+02  0.99560786256E+01 -0.45239844229E+01  0.20621049416E+02  0.51100000000E-03 0.  1.
        -12    1    3    3    0    0 -0.86475425143E+01  0.51333787841E+01  0.11915690873E+01  0.10126766817E+02  0.00000000000E+00 0.  1.
</event>
<event>
 7    1  0.7578565E-012  0.5930194E+02  0.7816164E-02  0.1266605E+00
        -11   -1    0    0    0    0  0.00000000000E+00  0.00000000000E+00  0.45593999997E+02  0.45594000000E+02  0.51100000000E-03 0.  1.
         11   -1    0    0    0    0 -0.00000000000E+00 -0.00000000000E+00 -0.45593999997E+02  0.45594000000E+02  0.51100000000E-03 0. -1.
    9900012    2    1    2    0    0  0.23247722751E+02 -0.13429729561E+02  0.17201934592E+02  0.59301940305E+02  0.49999993211E+02 0.  0.
         12    1    1    2    0    0 -0.23247722751E+02  0.13429729561E+02 -0.17201934592E+02  0.31886059695E+02  0.00000000000E+00 0. -1.
         11    1    3    3    0    0  0.15866195016E+02 -0.20406926703E+02 -0.10744269326E+02  0.27993179980E+02  0.51100000000E-03 0. -1.
        -11    1    3    3    0    0  0.15835195415E+01  0.63572664863E+01  0.70933413631E+01  0.96559755215E+01  0.51100000000E-03 0.  1.
         12    1    3    3    0    0  0.57980081927E+01  0.61993065596E+00  0.20852862555E+02  0.21652784804E+02  0.00000000000E+00 0. -1.
</event>
<event>
 7    1  0.7578565E-012  0.5930189E+02  0.7816164E-02  0.1266605E+00
        -11   -1    0    0    0    0  0.00000000000E+00  0.00000000000E+00  0.45593999997E+02  0.45594000000E+02  0.51100000000E-03 0.  1.
         11   -1    0    0    0    0 -0.00000000000E+00 -0.00000000000E+00 -0.45593999997E+02  0.45594000000E+02  0.51100000000E-03 0. -1.
    9900012    2    1    2    0    0 -0.98899525546E+01  0.30233191293E+02  0.22060642181E+01  0.59301894301E+02  0.49999909311E+02 0.  0.
         12    1    1    2    0    0  0.98899525546E+01 -0.30233191293E+02 -0.22060642181E+01  0.31886105699E+02  0.00000000000E+00 0. -1.
         11    1    3    3    0    0  0.15310746068E+02  0.14139786661E+02 -0.91559855501E+01  0.22763668062E+02  0.51100000000E-03 0. -1.
        -11    1    3    3    0    0 -0.57182801707E+01  0.83438804502E+01  0.11831193842E+02  0.15565867051E+02  0.51100000000E-03 0.  1.
         12    1    3    3    0    0 -0.19482418452E+02  0.77495241818E+01 -0.46914407350E+00  0.20972359188E+02  0.00000000000E+00 0. -1.
</event>
<event>
 7    1  0.7578565E-012  0.5930195E+02  0.7816164E-02  0.1266605E+00
        -11   -1    0    0    0    0  0.00000000000E+00  0.00000000000E+00  0.45593999997E+02  0.45594000000E+02  0.51100000000E-03 0.  1.
         11   -1    0    0    0    0 -0.00000000000E+00 -0.00000000000E+00 -0.45593999997E+02  0.45594000000E+02  0.51100000000E-03 0. -1.
    9900012    2    1    2    0    0  0.28402325887E+02  0.36719513091E+01  0.14019442304E+02  0.59301951252E+02  0.50000013176E+02 0.  0.
         12    1    1    2    0    0 -0.28402325887E+02 -0.36719513091E+01 -0.14019442304E+02  0.31886048748E+02  0.00000000000E+00 0. -1.
         11    1    3    3    0    0  0.26916010026E+02 -0.17649184578E+02  0.78259541945E+01  0.33124173518E+02  0.51100000000E-03 0. -1.
        -11    1    3    3    0    0  0.62266427566E+01  0.15826785205E+02  0.60449371790E+00  0.17018331965E+02  0.51100000000E-03 0.  1.
         12    1    3    3    0    0 -0.47403268954E+01  0.54943506815E+01  0.55889943920E+01  0.91594457693E+01  0.00000000000E+00 0. -1.
</event>
<event>
 7    1  0.7578565E-012  0.5930185E+02  0.7816164E-02  0.1266605E+00
        -11   -1    0    0    0    0  0.00000000000E+00  0.00000000000E+00  0.45593999997E+02  0.45594000000E+02  0.51100000000E-03 0.  1.
         11   -1    0    0    0    0 -0.00000000000E+00 -0.00000000000E+00 -0.45593999997E+02  0.45594000000E+02  0.51100000000E-03 0. -1.
    9900012    2    1    2    0    0 -0.31827139460E+02  0.19162164853E+01  0.29603996232E+00  0.59301853612E+02  0.49999835103E+02 0.  0.
         12    1    1    2    0    0  0.31827139460E+02 -0.19162164853E+01 -0.29603996232E+00  0.31886146388E+02  0.00000000000E+00 0. -1.
         11    1    3    3    0    0  0.71696532747E+01 -0.10153735533E+02  0.28132778883E+01  0.12744285233E+02  0.51100000000E-03 0. -1.
        -11    1    3    3    0    0 -0.30018877611E+02  0.48254401647E+01 -0.10898069607E+02  0.32298387069E+02  0.51100000000E-03 0.  1.
         12    1    3    3    0    0 -0.89779151232E+01  0.72445118539E+01  0.83808316815E+01  0.14259181310E+02  0.00000000000E+00 0. -1.
</event>
<event>
 7    1  0.7578565E-012  0.5930191E+02  0.7816164E-02  0.1266605E+00
        -11   -1    0    0    0    0  0.00000000000E+00  0.00000000000E+00  0.45593999997E+02  0.45594000000E+02  0.51100000000E-03 0.  1.
         11   -1    0    0    0    0 -0.00000000000E+00 -0.00000000000E+00 -0.45593999997E+02  0.45594000000E+02  0.51100000000E-03 0. -1.
    9900012    2    1    2    0    0  0.11800745212E+02  0.29621775724E+02 -0.12396207685E+00  0.59301912890E+02  0.49999943212E+02 0.  0.
         12    1    1    2    0    0 -0.11800745212E+02 -0.29621775724E+02  0.12396207685E+00  0.31886087110E+02  0.00000000000E+00 0. -1.
         11    1    3    3    0    0 -0.19461300414E+01 -0.16665624342E+01  0.96497920373E+01  0.99841544013E+01  0.51100000000E-03 0. -1.
        -11    1    3    3    0    0  0.16527746987E+01  0.75126454868E+01 -0.19470589375E+02  0.20935027043E+02  0.51100000000E-03 0.  1.
        -12    1    3    3    0    0  0.12094100554E+02  0.23775692672E+02  0.96968352607E+01  0.28382731446E+02  0.00000000000E+00 0.  1.
</event>
<event>
 7    1  0.7578565E-012  0.5930200E+02  0.7816164E-02  0.1266605E+00
        -11   -1    0    0    0    0  0.00000000000E+00  0.00000000000E+00  0.45593999997E+02  0.45594000000E+02  0.51100000000E-03 0. -1.
         11   -1    0    0    0    0 -0.00000000000E+00 -0.00000000000E+00 -0.45593999997E+02  0.45594000000E+02  0.51100000000E-03 0.  1.
    9900012    2    1    2    0    0  0.20753913206E+02 -0.20121362098E+02 -0.13458183905E+02  0.59302002445E+02  0.50000106539E+02 0.  0.
         12    1    1    2    0    0 -0.20753913206E+02  0.20121362098E+02  0.13458183905E+02  0.31885997555E+02  0.00000000000E+00 0. -1.
         11    1    3    3    0    0 -0.74599551965E+01  0.22024872517E+01  0.51406471678E+01  0.93235258992E+01  0.51100000000E-03 0. -1.
        -11    1    3    3    0    0  0.99245963006E+01 -0.21997715826E+01 -0.20330295195E+02  0.22730101401E+02  0.51100000000E-03 0.  1.
        -12    1    3    3    0    0  0.18289272102E+02 -0.20124077767E+02  0.17314641217E+01  0.27248375144E+02  0.00000000000E+00 0.  1.
</event>
<event>
 7    1  0.7578565E-012  0.5930194E+02  0.7816164E-02  0.1266605E+00
        -11   -1    0    0    0    0  0.00000000000E+00  0.00000000000E+00  0.45593999997E+02  0.45594000000E+02  0.51100000000E-03 0.  1.
         11   -1    0    0    0    0 -0.00000000000E+00 -0.00000000000E+00 -0.45593999997E+02  0.45594000000E+02  0.51100000000E-03 0. -1.
    9900012    2    1    2    0    0 -0.22534139449E+02 -0.21176187621E+02 -0.77783247219E+01  0.59301941945E+02  0.49999996201E+02 0.  0.
         12    1    1    2    0    0  0.22534139449E+02  0.21176187621E+02  0.77783247219E+01  0.31886058055E+02  0.00000000000E+00 0. -1.
         11    1    3    3    0    0 -0.19157497849E+02  0.46996894970E+01  0.59640540246E+01  0.20607443943E+02  0.51100000000E-03 0. -1.
        -11    1    3    3    0    0 -0.19666838880E+01 -0.25104662688E+02 -0.32751134340E+00  0.25183708983E+02  0.51100000000E-03 0.  1.
        -12    1    3    3    0    0 -0.14099577114E+01 -0.77121442932E+00 -0.13414867403E+02  0.13510789018E+02  0.00000000000E+00 0.  1.
</event>
<event>
 7    1  0.7578565E-012  0.5930193E+02  0.7816164E-02  0.1266605E+00
        -11   -1    0    0    0    0  0.00000000000E+00  0.00000000000E+00  0.45593999997E+02  0.45594000000E+02  0.51100000000E-03 0.  1.
         11   -1    0    0    0    0 -0.00000000000E+00 -0.00000000000E+00 -0.45593999997E+02  0.45594000000E+02  0.51100000000E-03 0. -1.
    9900012    2    1    2    0    0 -0.22981001412E+02 -0.19651245396E+02 -0.10120440019E+02  0.59301934428E+02  0.49999982492E+02 0.  0.
         12    1    1    2    0    0  0.22981001412E+02  0.19651245396E+02  0.10120440019E+02  0.31886065572E+02  0.00000000000E+00 0. -1.
         11    1    3    3    0    0 -0.15971595418E+01  0.68099670566E+01 -0.13594296976E+02  0.15288279186E+02  0.51100000000E-03 0. -1.
        -11    1    3    3    0    0 -0.21703401141E+02 -0.66128295197E+01 -0.35339558658E+01  0.22962055214E+02  0.51100000000E-03 0.  1.
         12    1    3    3    0    0  0.31955927126E+00 -0.19848382933E+02  0.70078128233E+01  0.21051600028E+02  0.00000000000E+00 0. -1.
</event>
<event>
 7    1  0.7578565E-012  0.5930202E+02  0.7816164E-02  0.1266605E+00
        -11   -1    0    0    0    0  0.00000000000E+00  0.00000000000E+00  0.45593999997E+02  0.45594000000E+02  0.51100000000E-03 0. -1.
         11   -1    0    0    0    0 -0.00000000000E+00 -0.00000000000E+00 -0.45593999997E+02  0.45594000000E+02  0.51100000000E-03 0.  1.
    9900012    2    1    2    0    0 -0.19932253083E+02  0.22943258429E+02  0.96451017938E+01  0.59302018614E+02  0.50000136028E+02 0.  0.
         12    1    1    2    0    0  0.19932253083E+02 -0.22943258429E+02 -0.96451017938E+01  0.31885981386E+02  0.00000000000E+00 0. -1.
         11    1    3    3    0    0  0.97401636457E+01  0.12632367090E+01  0.86814613587E+01  0.13108559281E+02  0.51100000000E-03 0. -1.
        -11    1    3    3    0    0 -0.23666379172E+02  0.23373972788E+02 -0.89798518920E+01  0.34453996100E+02  0.51100000000E-03 0.  1.
        -12    1    3    3    0    0 -0.60060375570E+01 -0.16939510675E+01  0.99434923271E+01  0.11739463234E+02  0.00000000000E+00 0.  1.
</event>
<event>
 7    1  0.7578565E-012  0.5930174E+02  0.7816164E-02  0.1266605E+00
        -11   -1    0    0    0    0  0.00000000000E+00  0.00000000000E+00  0.45593999997E+02  0.45594000000E+02  0.51100000000E-03 0. -1.
         11   -1    0    0    0    0 -0.00000000000E+00 -0.00000000000E+00 -0.45593999997E+02  0.45594000000E+02  0.51100000000E-03 0.  1.
    9900012    2    1    2    0    0  0.70814083480E+01  0.98260880333E+01 -0.29496364663E+02  0.59301735268E+02  0.49999619272E+02 0.  0.
         12    1    1    2    0    0 -0.70814083480E+01 -0.98260880333E+01  0.29496364663E+02  0.31886264732E+02  0.00000000000E+00 0. -1.
         11    1    3    3    0    0 -0.15667794926E+02  0.37728245388E+01 -0.65809962013E+01  0.17407570598E+02  0.51100000000E-03 0. -1.
        -11    1    3    3    0    0  0.19746458823E+02 -0.75056201101E+01 -0.15009129016E+02  0.25913913703E+02  0.51100000000E-03 0.  1.
         12    1    3    3    0    0  0.30027444507E+01  0.13558883605E+02 -0.79062394450E+01  0.15980250968E+02  0.00000000000E+00 0. -1.
</event>
<event>
 7    1  0.7578565E-012  0.5930195E+02  0.7816164E-02  0.1266605E+00
        -11   -1    0    0    0    0  0.00000000000E+00  0.00000000000E+00  0.45593999997E+02  0.45594000000E+02  0.51100000000E-03 0.  1.
         11   -1    0    0    0    0 -0.00000000000E+00 -0.00000000000E+00 -0.45593999997E+02  0.45594000000E+02  0.51100000000E-03 0. -1.
    9900012    2    1    2    0    0 -0.14940663362E+02  0.12727050140E+02  0.25130045030E+02  0.59301946776E+02  0.50000005012E+02 0.  0.
         12    1    1    2    0    0  0.14940663362E+02 -0.12727050140E+02 -0.25130045030E+02  0.31886053224E+02  0.00000000000E+00 0. -1.
         11    1    3    3    0    0 -0.10965165712E+02 -0.16701253047E+02  0.13839556697E+02  0.24304321473E+02  0.51100000000E-03 0. -1.
        -11    1    3    3    0    0 -0.76807601767E+01  0.14139794071E+02  0.10565410706E+02  0.19249824854E+02  0.51100000000E-03 0.  1.
         12    1    3    3    0    0  0.37052625264E+01  0.15288509116E+02  0.72507762669E+00  0.15747800448E+02  0.00000000000E+00 0. -1.
</event>
<event>
 7    1  0.7578565E-012  0.5930191E+02  0.7816164E-02  0.1266605E+00
        -11   -1    0    0    0    0  0.00000000000E+00  0.00000000000E+00  0.45593999997E+02  0.45594000000E+02  0.51100000000E-03 0.  1.
         11   -1    0    0    0    0 -0.00000000000E+00 -0.00000000000E+00 -0.45593999997E+02  0.45594000000E+02  0.51100000000E-03 0. -1.
    9900012    2    1    2    0    0 -0.30542903958E+02  0.82275020827E+01  0.40202118030E+01  0.59301907802E+02  0.49999933933E+02 0.  0.
         12    1    1    2    0    0  0.30542903958E+02 -0.82275020827E+01 -0.40202118030E+01  0.31886092198E+02  0.00000000000E+00 0. -1.
         11    1    3    3    0    0 -0.27027858290E+02  0.18042454618E+02 -0.70179856618E+01  0.33245863132E+02  0.51100000000E-03 0. -1.
        -11    1    3    3    0    0 -0.54503433800E+01 -0.15803793502E+02  0.10495679239E+02  0.19738931454E+02  0.51100000000E-03 0.  1.
        -12    1    3    3    0    0  0.19352977119E+01  0.59888409669E+01  0.54251822595E+00  0.63171132162E+01  0.00000000000E+00 0.  1.
</event>
<event>
 7    1  0.7578565E-012  0.5930199E+02  0.7816164E-02  0.1266605E+00
        -11   -1    0    0    0    0  0.00000000000E+00  0.00000000000E+00  0.45593999997E+02  0.45594000000E+02  0.51100000000E-03 0.  1.
         11   -1    0    0    0    0 -0.00000000000E+00 -0.00000000000E+00 -0.45593999997E+02  0.45594000000E+02  0.51100000000E-03 0. -1.
    9900012    2    1    2    0    0  0.16129414044E+02  0.80048674955E+01  0.26315043493E+02  0.59301993428E+02  0.50000090095E+02 0.  0.
         12    1    1    2    0    0 -0.16129414044E+02 -0.80048674955E+01 -0.26315043493E+02  0.31886006572E+02  0.00000000000E+00 0. -1.
         11    1    3    3    0    0 -0.10620598853E+02  0.11266698531E+02  0.17974460425E+02  0.23723761161E+02  0.51100000000E-03 0. -1.
        -11    1    3    3    0    0  0.15469937322E+02  0.83075929346E+01  0.82942695671E+01  0.19419834423E+02  0.51100000000E-03 0.  1.
         12    1    3    3    0    0  0.11280075574E+02 -0.11569423970E+02  0.46313501388E-01  0.16158397845E+02  0.00000000000E+00 0. -1.
</event>
<event>
 7    1  0.7578565E-012  0.5930196E+02  0.7816164E-02  0.1266605E+00
        -11   -1    0    0    0    0  0.00000000000E+00  0.00000000000E+00  0.45593999997E+02  0.45594000000E+02  0.51100000000E-03 0. -1.
         11   -1    0    0    0    0 -0.00000000000E+00 -0.00000000000E+00 -0.45593999997E+02  0.45594000000E+02  0.51100000000E-03 0.  1.
    9900012    2    1    2    0    0 -0.43933465680E+01 -0.28478579740E+02 -0.13652423381E+02  0.59301958191E+02  0.50000025831E+02 0.  0.
         12    1    1    2    0    0  0.43933465680E+01  0.28478579740E+02  0.13652423381E+02  0.31886041809E+02  0.00000000000E+00 0. -1.
         11    1    3    3    0    0 -0.17427480172E+02 -0.17976933279E+02 -0.15586961220E+02  0.29493059448E+02  0.51100000000E-03 0.  1.
        -11    1    3    3    0    0  0.16005771374E+02  0.16148880839E+01  0.52114209555E+01  0.16910100220E+02  0.51100000000E-03 0. -1.
         12    1    3    3    0    0 -0.29716377703E+01 -0.12116534545E+02 -0.32768831162E+01  0.12898798524E+02  0.00000000000E+00 0. -1.
</event>
<event>
 7    1  0.7578565E-012  0.5930196E+02  0.7816164E-02  0.1266605E+00
        -11   -1    0    0    0    0  0.00000000000E+00  0.00000000000E+00  0.45593999997E+02  0.45594000000E+02  0.51100000000E-03 0. -1.
         11   -1    0    0    0    0 -0.00000000000E+00 -0.00000000000E+00 -0.45593999997E+02  0.45594000000E+02  0.51100000000E-03 0.  1.
    9900012    2    1    2    0    0 -0.45294648590E+00 -0.98045889977E+01 -0.30337835317E+02  0.59301962653E+02  0.50000033969E+02 0.  0.
         12    1    1    2    0    0  0.45294648590E+00  0.98045889977E+01  0.30337835317E+02  0.31886037347E+02  0.00000000000E+00 0. -1.
         11    1    3    3    0    0 -0.79987236157E+01  0.14478432876E+02 -0.50856578319E+01  0.17305158592E+02  0.51100000000E-03 0. -1.
        -11    1    3    3    0    0  0.13518445847E+02 -0.11318158226E+02 -0.20300444899E+02  0.26887862449E+02  0.51100000000E-03 0.  1.
         12    1    3    3    0    0 -0.59726687177E+01 -0.12964863649E+02 -0.49517325870E+01  0.15108941612E+02  0.00000000000E+00 0. -1.
</event>
<event>
 7    1  0.7578565E-012  0.5930182E+02  0.7816164E-02  0.1266605E+00
        -11   -1    0    0    0    0  0.00000000000E+00  0.00000000000E+00  0.45593999997E+02  0.45594000000E+02  0.51100000000E-03 0. -1.
         11   -1    0    0    0    0 -0.00000000000E+00 -0.00000000000E+00 -0.45593999997E+02  0.45594000000E+02  0.51100000000E-03 0.  1.
    9900012    2    1    2    0    0 -0.31491268242E+00  0.28363304084E+02 -0.14565441241E+02  0.59301823259E+02  0.49999779747E+02 0.  0.
         12    1    1    2    0    0  0.31491268242E+00 -0.28363304084E+02  0.14565441241E+02  0.31886176741E+02  0.00000000000E+00 0. -1.
         11    1    3    3    0    0 -0.16309979283E+01  0.35996769298E+01  0.58438849533E+01  0.70547019674E+01  0.51100000000E-03 0. -1.
        -11    1    3    3    0    0  0.10758977504E+02  0.19942320617E+02 -0.30240463943E+02  0.37788059070E+02  0.51100000000E-03 0.  1.
        -12    1    3    3    0    0 -0.94428922580E+01  0.48213065376E+01  0.98311377481E+01  0.14459062222E+02  0.00000000000E+00 0.  1.
</event>
<event>
 7    1  0.7578565E-012  0.5930172E+02  0.7816164E-02  0.1266606E+00
        -11   -1    0    0    0    0  0.00000000000E+00  0.00000000000E+00  0.45593999997E+02  0.45594000000E+02  0.51100000000E-03 0.  1.
         11   -1    0    0    0    0 -0.00000000000E+00 -0.00000000000E+00 -0.45593999997E+02  0.45594000000E+02  0.51100000000E-03 0. -1.
    9900012    2    1    2    0    0 -0.35027566796E+01  0.18736776169E+02  0.25561669640E+02  0.59301717051E+02  0.49999586046E+02 0.  0.
         12    1    1    2    0    0  0.35027566796E+01 -0.18736776169E+02 -0.25561669640E+02  0.31886282949E+02  0.00000000000E+00 0. -1.
         11    1    3    3    0    0 -0.43257990370E+01  0.70163222181E+01 -0.87093276874E+01  0.11991401244E+02  0.51100000000E-03 0. -1.
        -11    1    3    3    0    0  0.70409141089E+01  0.45415307994E+01  0.36587493504E+02  0.37534579452E+02  0.51100000000E-03 0.  1.
        -12    1    3    3    0    0 -0.62178717514E+01  0.71789231510E+01 -0.23164961766E+01  0.97757363539E+01  0.00000000000E+00 0.  1.
</event>
<event>
 7    1  0.7578565E-012  0.5930193E+02  0.7816164E-02  0.1266605E+00
        -11   -1    0    0    0    0  0.00000000000E+00  0.00000000000E+00  0.45593999997E+02  0.45594000000E+02  0.51100000000E-03 0. -1.
         11   -1    0    0    0    0 -0.00000000000E+00 -0.00000000000E+00 -0.45593999997E+02  0.45594000000E+02  0.51100000000E-03 0.  1.
    9900012    2    1    2    0    0  0.61572154213E-01  0.11754211184E+02 -0.29640448338E+02  0.59301930168E+02  0.49999974722E+02 0.  0.
         12    1    1    2    0    0 -0.61572154213E-01 -0.11754211184E+02  0.29640448338E+02  0.31886069832E+02  0.00000000000E+00 0. -1.
         11    1    3    3    0    0  0.11491452155E+02  0.25412264853E+02 -0.58983889581E+01  0.28506625022E+02  0.51100000000E-03 0. -1.
        -11    1    3    3    0    0 -0.88597674935E+01 -0.12096274059E+02 -0.23367998427E+02  0.27764701995E+02  0.51100000000E-03 0.  1.
         12    1    3    3    0    0 -0.25701125077E+01 -0.15617796109E+01 -0.37406095268E+00  0.30306031498E+01  0.00000000000E+00 0. -1.
</event>
<event>
 7    1  0.7578565E-012  0.5930196E+02  0.7816164E-02  0.1266605E+00
        -11   -1    0    0    0    0  0.00000000000E+00  0.00000000000E+00  0.45593999997E+02  0.45594000000E+02  0.51100000000E-03 0.  1.
         11   -1    0    0    0    0 -0.00000000000E+00 -0.00000000000E+00 -0.45593999997E+02  0.45594000000E+02  0.51100000000E-03 0. -1.
    9900012    2    1    2    0    0  0.20255202219E+02  0.13247952907E+02  0.20759053590E+02  0.59301956358E+02  0.50000022487E+02 0.  0.
         12    1    1    2    0    0 -0.20255202219E+02 -0.13247952907E+02 -0.20759053590E+02  0.31886043642E+02  0.00000000000E+00 0. -1.
         11    1    3    3    0    0  0.18381375668E+02  0.24795966237E+02  0.12834954233E+02  0.33428295851E+02  0.51100000000E-03 0. -1.
        -11    1    3    3    0    0  0.11305550491E+02 -0.97576832984E+01  0.59313671404E+01  0.16068882092E+02  0.51100000000E-03 0.  1.
         12    1    3    3    0    0 -0.94317239392E+01 -0.17903300312E+01  0.19927322169E+01  0.98047784154E+01  0.00000000000E+00 0. -1.
</event>
<event>
 7    1  0.7578565E-012  0.5930193E+02  0.7816164E-02  0.1266605E+00
        -11   -1    0    0    0    0  0.00000000000E+00  0.00000000000E+00  0.45593999997E+02  0.45594000000E+02  0.51100000000E-03 0. -1.
         11   -1    0    0    0    0 -0.00000000000E+00 -0.00000000000E+00 -0.45593999997E+02  0.45594000000E+02  0.51100000000E-03 0.  1.
    9900012    2    1    2    0    0  0.55873899485E+01  0.22412238354E+02 -0.21981675933E+02  0.59301930451E+02  0.49999975239E+02 0.  0.
         12    1    1    2    0    0 -0.55873899485E+01 -0.22412238354E+02  0.21981675933E+02  0.31886069549E+02  0.00000000000E+00 0. -1.
         11    1    3    3    0    0  0.85263472236E+01 -0.57077363384E+01 -0.24065807892E+01  0.10538903285E+02  0.51100000000E-03 0. -1.
        -11    1    3    3    0    0  0.42955733511E+01  0.34365249511E+02 -0.12300775539E+02  0.36752297935E+02  0.51100000000E-03 0.  1.
        -12    1    3    3    0    0 -0.72345306263E+01 -0.62452748190E+01 -0.72743196057E+01  0.12010729231E+02  0.00000000000E+00 0.  1.
</event>
<event>
 7    1  0.7578565E-012  0.5930197E+02  0.7816164E-02  0.1266605E+00
        -11   -1    0    0    0    0  0.00000000000E+00  0.00000000000E+00  0.45593999997E+02  0.45594000000E+02  0.51100000000E-03 0. -1.
         11   -1    0    0    0    0 -0.00000000000E+00 -0.00000000000E+00 -0.45593999997E+02  0.45594000000E+02  0.51100000000E-03 0.  1.
    9900012    2    1    2    0    0  0.31109344721E+02 -0.13954257859E+01 -0.68542311809E+01  0.59301968150E+02  0.50000043993E+02 0.  0.
         12    1    1    2    0    0 -0.31109344721E+02  0.13954257859E+01  0.68542311809E+01  0.31886031850E+02  0.00000000000E+00 0. -1.
         11    1    3    3    0    0  0.31063393665E+01  0.19998581660E+02 -0.17278701970E+01  0.20312019800E+02  0.51100000000E-03 0. -1.
        -11    1    3    3    0    0  0.11950852494E+02 -0.19267633749E+01 -0.64635520146E+01  0.13722711005E+02  0.51100000000E-03 0.  1.
         12    1    3    3    0    0  0.16052152861E+02 -0.19467244071E+02  0.13371910308E+01  0.25267237345E+02  0.00000000000E+00 0. -1.
</event>
<event>
 7    1  0.7578565E-012  0.5930195E+02  0.7816164E-02  0.1266605E+00
        -11   -1    0    0    0    0  0.00000000000E+00  0.00000000000E+00  0.45593999997E+02  0.45594000000E+02  0.51100000000E-03 0.  1.
         11   -1    0    0    0    0 -0.00000000000E+00 -0.00000000000E+00 -0.45593999997E+02  0.45594000000E+02  0.51100000000E-03 0. -1.
    9900012    2    1    2    0    0 -0.89794831462E+01  0.77739647985E+01  0.29591456059E+02  0.59301954181E+02  0.50000018518E+02 0.  0.
         12    1    1    2    0    0  0.89794831462E+01 -0.77739647985E+01 -0.29591456059E+02  0.31886045819E+02  0.00000000000E+00 0. -1.
         11    1    3    3    0    0 -0.23801884852E+02 -0.76832273483E+01  0.19642124071E+02  0.31802118534E+02  0.51100000000E-03 0. -1.
        -11    1    3    3    0    0  0.62166484370E+01  0.10262538273E+02  0.12293192583E+02  0.17178154550E+02  0.51100000000E-03 0.  1.
         12    1    3    3    0    0  0.86057532685E+01  0.51946538736E+01 -0.23438605951E+01  0.10321681097E+02  0.00000000000E+00 0. -1.
</event>
<event>
 7    1  0.7578565E-012  0.5930202E+02  0.7816164E-02  0.1266604E+00
        -11   -1    0    0    0    0  0.00000000000E+00  0.00000000000E+00  0.45593999997E+02  0.45594000000E+02  0.51100000000E-03 0.  1.
         11   -1    0    0    0    0 -0.00000000000E+00 -0.00000000000E+00 -0.45593999997E+02  0.45594000000E+02  0.51100000000E-03 0. -1.
    9900012    2    1    2    0    0 -0.23129070886E+02 -0.19987469229E+02  0.90698717568E+01  0.59302024714E+02  0.50000147153E+02 0.  0.
         12    1    1    2    0    0  0.23129070886E+02  0.19987469229E+02 -0.90698717568E+01  0.31885975286E+02  0.00000000000E+00 0. -1.
         11    1    3    3    0    0  0.42108339700E+01  0.15183689620E+01  0.11990638028E+02  0.12798904938E+02  0.51100000000E-03 0. -1.
        -11    1    3    3    0    0 -0.20215519072E+02  0.33024164101E+01  0.34481235398E+00  0.20486387220E+02  0.51100000000E-03 0.  1.
        -12    1    3    3    0    0 -0.71243857841E+01 -0.24808254601E+02 -0.32655786253E+01  0.26016732556E+02  0.00000000000E+00 0.  1.
</event>
<event>
 7    1  0.7578565E-012  0.5930192E+02  0.7816164E-02  0.1266605E+00
        -11   -1    0    0    0    0  0.00000000000E+00  0.00000000000E+00  0.45593999997E+02  0.45594000000E+02  0.51100000000E-03 0.  1.
         11   -1    0    0    0    0 -0.00000000000E+00 -0.00000000000E+00 -0.45593999997E+02  0.45594000000E+02  0.51100000000E-03 0. -1.
    9900012    2    1    2    0    0 -0.51451284514E+01 -0.30223724122E+02  0.87621890689E+01  0.59301924609E+02  0.49999964584E+02 0.  0.
         12    1    1    2    0    0  0.51451284514E+01  0.30223724122E+02 -0.87621890689E+01  0.31886075391E+02  0.00000000000E+00 0. -1.
         11    1    3    3    0    0  0.72589170278E+01 -0.13668300882E+02 -0.56526525686E+01  0.16476249778E+02  0.51100000000E-03 0. -1.
        -11    1    3    3    0    0  0.84338485362E+01  0.54309572294E+01  0.38259382663E+01  0.10736056140E+02  0.51100000000E-03 0.  1.
        -12    1    3    3    0    0 -0.20837894015E+02 -0.21986380470E+02  0.10588903371E+02  0.32089618691E+02  0.00000000000E+00 0.  1.
</event>
<event>
 7    1  0.7578565E-012  0.5930195E+02  0.7816164E-02  0.1266605E+00
        -11   -1    0    0    0    0  0.00000000000E+00  0.00000000000E+00  0.45593999997E+02  0.45594000000E+02  0.51100000000E-03 0.  1.
         11   -1    0    0    0    0 -0.00000000000E+00 -0.00000000000E+00 -0.45593999997E+02  0.45594000000E+02  0.51100000000E-03 0. -1.
    9900012    2    1    2    0    0  0.28928413080E+02  0.13408533392E+02  0.28022053109E+00  0.59301947021E+02  0.50000005459E+02 0.  0.
         12    1    1    2    0    0 -0.28928413080E+02 -0.13408533392E+02 -0.28022053109E+00  0.31886052979E+02  0.00000000000E+00 0. -1.
         11    1    3    3    0    0 -0.82475346657E+01  0.16034691304E+02  0.35839118835E+01  0.18384166500E+02  0.51100000000E-03 0. -1.
        -11    1    3    3    0    0  0.12923163443E+02 -0.96765679377E+00  0.67494497431E+01  0.14611625000E+02  0.51100000000E-03 0.  1.
         12    1    3    3    0    0  0.24252784303E+02 -0.16585011177E+01 -0.10053141096E+02  0.26306155521E+02  0.00000000000E+00 0. -1.
</event>
<event>
 7    1  0.7578565E-012  0.5930194E+02  0.7816164E-02  0.1266605E+00
        -11   -1    0    0    0    0  0.00000000000E+00  0.00000000000E+00  0.45593999997E+02  0.45594000000E+02  0.51100000000E-03 0. -1.
         11   -1    0    0    0    0 -0.00000000000E+00 -0.00000000000E+00 -0.45593999997E+02  0.45594000000E+02  0.51100000000E-03 0.  1.
    9900012    2    1    2    0    0 -0.23260869085E+02  0.14885731223E+01 -0.21758608611E+02  0.59301938324E+02  0.49999989598E+02 0.  0.
         12    1    1    2    0    0  0.23260869085E+02 -0.14885731223E+01  0.21758608611E+02  0.31886061676E+02  0.00000000000E+00 0. -1.
         11    1    3    3    0    0 -0.10202797678E+02 -0.20405277949E+02 -0.53086943919E+01  0.23423379027E+02  0.51100000000E-03 0. -1.
        -11    1    3    3    0    0 -0.10453266489E+02  0.13887594844E+02 -0.20210889038E+02  0.26657383720E+02  0.51100000000E-03 0.  1.
         12    1    3    3    0    0 -0.26048049182E+01  0.80062562266E+01  0.37609748190E+01  0.92211755767E+01  0.00000000000E+00 0. -1.
</event>
<event>
 7    1  0.7578565E-012  0.5930194E+02  0.7816164E-02  0.1266605E+00
        -11   -1    0    0    0    0  0.00000000000E+00  0.00000000000E+00  0.45593999997E+02  0.45594000000E+02  0.51100000000E-03 0.  1.
         11   -1    0    0    0    0 -0.00000000000E+00 -0.00000000000E+00 -0.45593999997E+02  0.45594000000E+02  0.51100000000E-03 0. -1.
    9900012    2    1    2    0    0 -0.27296822064E+02 -0.13584196292E+02  0.93313271529E+01  0.59301944269E+02  0.50000000439E+02 0.  0.
         12    1    1    2    0    0  0.27296822064E+02  0.13584196292E+02 -0.93313271529E+01  0.31886055731E+02  0.00000000000E+00 0. -1.
         11    1    3    3    0    0 -0.18384391310E+02 -0.20963271584E+01 -0.15453143845E+02  0.24107676917E+02  0.51100000000E-03 0. -1.
        -11    1    3    3    0    0  0.54340184958E+01 -0.22357028163E+01  0.13519770732E+02  0.14741476351E+02  0.51100000000E-03 0.  1.
         12    1    3    3    0    0 -0.14346449250E+02 -0.92521663169E+01  0.11264700265E+02  0.20452791000E+02  0.00000000000E+00 0. -1.
</event>
<event>
 7    1  0.7578565E-012  0.5930196E+02  0.7816164E-02  0.1266605E+00
        -11   -1    0    0    0    0  0.00000000000E+00  0.00000000000E+00  0.45593999997E+02  0.45594000000E+02  0.51100000000E-03 0.  1.
         11   -1    0    0    0    0 -0.00000000000E+00 -0.00000000000E+00 -0.45593999997E+02  0.45594000000E+02  0.51100000000E-03 0. -1.
    9900012    2    1    2    0    0 -0.20502638523E+02 -0.96274521936E+01  0.22442668774E+02  0.59301962243E+02  0.50000033220E+02 0.  0.
         12    1    1    2    0    0  0.20502638523E+02  0.96274521936E+01 -0.22442668774E+02  0.31886037757E+02  0.00000000000E+00 0. -1.
         11    1    3    3    0    0  0.88255324809E+01 -0.20025758167E+02  0.35596117376E+01  0.22171870686E+02  0.51100000000E-03 0. -1.
        -11    1    3    3    0    0 -0.68580625383E+01 -0.72151917777E+00  0.38668885243E+01  0.79061013669E+01  0.51100000000E-03 0.  1.
         12    1    3    3    0    0 -0.22470108465E+02  0.11119825151E+02  0.15016168512E+02  0.29223990190E+02  0.00000000000E+00 0. -1.
</event>
<event>
 7    1  0.7578565E-012  0.5930193E+02  0.7816164E-02  0.1266605E+00
        -11   -1    0    0    0    0  0.00000000000E+00  0.00000000000E+00  0.45593999997E+02  0.45594000000E+02  0.51100000000E-03 0.  1.
         11   -1    0    0    0    0 -0.00000000000E+00 -0.00000000000E+00 -0.45593999997E+02  0.45594000000E+02  0.51100000000E-03 0. -1.
    9900012    2    1    2    0    0 -0.14637212654E+02  0.73433657829E+01 -0.27359616140E+02  0.59301927639E+02  0.49999970111E+02 0.  0.
         12    1    1    2    0    0  0.14637212654E+02 -0.73433657829E+01  0.27359616140E+02  0.31886072361E+02  0.00000000000E+00 0. -1.
         11    1    3    3    0    0 -0.13525481093E+02 -0.17838077303E+02 -0.10336377846E+02  0.24657176398E+02  0.51100000000E-03 0. -1.
        -11    1    3    3    0    0 -0.12459664411E+01  0.21004215285E+02 -0.20373446750E+02  0.29288339400E+02  0.51100000000E-03 0.  1.
        -12    1    3    3    0    0  0.13423487955E+00  0.41772278013E+01  0.33502084567E+01  0.53564118410E+01  0.00000000000E+00 0.  1.
</event>
<event>
 7    1  0.7578565E-012  0.5930194E+02  0.7816164E-02  0.1266605E+00
        -11   -1    0    0    0    0  0.00000000000E+00  0.00000000000E+00  0.45593999997E+02  0.45594000000E+02  0.51100000000E-03 0.  1.
         11   -1    0    0    0    0 -0.00000000000E+00 -0.00000000000E+00 -0.45593999997E+02  0.45594000000E+02  0.51100000000E-03 0. -1.
    9900012    2    1    2    0    0  0.56537745572E+01  0.23920267224E+01  0.31289514657E+02  0.59301942137E+02  0.49999996552E+02 0.  0.
         12    1    1    2    0    0 -0.56537745572E+01 -0.23920267224E+01 -0.31289514657E+02  0.31886057863E+02  0.00000000000E+00 0. -1.
         11    1    3    3    0    0 -0.10656258171E+02 -0.10895424195E+01  0.14118129062E+02  0.17721865290E+02  0.51100000000E-03 0. -1.
        -11    1    3    3    0    0  0.49285938770E+01  0.17741585132E+02  0.13836490605E+02  0.23032658403E+02  0.51100000000E-03 0.  1.
        -12    1    3    3    0    0  0.11381438851E+02 -0.14260015990E+02  0.33348949891E+01  0.18547418444E+02  0.00000000000E+00 0.  1.
</event>
<event>
 7    1  0.7578565E-012  0.5930194E+02  0.7816164E-02  0.1266605E+00
        -11   -1    0    0    0    0  0.00000000000E+00  0.00000000000E+00  0.45593999997E+02  0.45594000000E+02  0.51100000000E-03 0.  1.
         11   -1    0    0    0    0 -0.00000000000E+00 -0.00000000000E+00 -0.45593999997E+02  0.45594000000E+02  0.51100000000E-03 0. -1.
    9900012    2    1    2    0    0 -0.33599880698E+01 -0.15758524558E+01  0.31669350837E+02  0.59301943279E+02  0.49999998634E+02 0.  0.
         12    1    1    2    0    0  0.33599880698E+01  0.15758524558E+01 -0.31669350837E+02  0.31886056721E+02  0.00000000000E+00 0. -1.
         11    1    3    3    0    0  0.10048170990E+01  0.23547548326E+02  0.17876732397E+02  0.29581653960E+02  0.51100000000E-03 0. -1.
        -11    1    3    3    0    0 -0.48235551255E+01 -0.10594331003E+02  0.45729728106E+01  0.12506742743E+02  0.51100000000E-03 0.  1.
         12    1    3    3    0    0  0.45874995668E+00 -0.14529069779E+02  0.92196456298E+01  0.17213546576E+02  0.00000000000E+00 0. -1.
</event>
<event>
 7    1  0.7578565E-012  0.5930184E+02  0.7816164E-02  0.1266605E+00
        -11   -1    0    0    0    0  0.00000000000E+00  0.00000000000E+00  0.45593999997E+02  0.45594000000E+02  0.51100000000E-03 0.  1.
         11   -1    0    0    0    0 -0.00000000000E+00 -0.00000000000E+00 -0.45593999997E+02  0.45594000000E+02  0.51100000000E-03 0. -1.
    9900012    2    1    2    0    0 -0.19184657215E+02 -0.15422924479E+02  0.20268442159E+02  0.59301836551E+02  0.49999803988E+02 0.  0.
         12    1    1    2    0    0  0.19184657215E+02  0.15422924479E+02 -0.20268442159E+02  0.31886163449E+02  0.00000000000E+00 0. -1.
         11    1    3    3    0    0  0.20751640093E+01 -0.23968665453E+02 -0.12987962462E+01  0.24093362182E+02  0.51100000000E-03 0. -1.
        -11    1    3    3    0    0 -0.98753197163E+01  0.11637138036E+02  0.16170791896E+02  0.22235994063E+02  0.51100000000E-03 0.  1.
        -12    1    3    3    0    0 -0.11384501508E+02 -0.30913970616E+01  0.53964465091E+01  0.12972480307E+02  0.00000000000E+00 0.  1.
</event>
<event>
 7    1  0.7578565E-012  0.5930194E+02  0.7816164E-02  0.1266605E+00
        -11   -1    0    0    0    0  0.00000000000E+00  0.00000000000E+00  0.45593999997E+02  0.45594000000E+02  0.51100000000E-03 0.  1.
         11   -1    0    0    0    0 -0.00000000000E+00 -0.00000000000E+00 -0.45593999997E+02  0.45594000000E+02  0.51100000000E-03 0. -1.
    9900012    2    1    2    0    0  0.28792912712E+01  0.63729210255E+01  0.31109747316E+02  0.59301940057E+02  0.49999992758E+02 0.  0.
         12    1    1    2    0    0 -0.28792912712E+01 -0.63729210255E+01 -0.31109747316E+02  0.31886059943E+02  0.00000000000E+00 0. -1.
         11    1    3    3    0    0  0.81521882972E+01  0.33077473367E+01 -0.42438543334E+01  0.97677871773E+01  0.51100000000E-03 0. -1.
        -11    1    3    3    0    0 -0.11980211920E+02  0.15106795900E+02  0.12936241359E+02  0.23218249305E+02  0.51100000000E-03 0.  1.
        -12    1    3    3    0    0  0.67073148940E+01 -0.12041622211E+02  0.22417360291E+02  0.26315903575E+02  0.00000000000E+00 0.  1.
</event>
<event>
 7    1  0.7578565E-012  0.5930193E+02  0.7816164E-02  0.1266605E+00
        -11   -1    0    0    0    0  0.00000000000E+00  0.00000000000E+00  0.45593999997E+02  0.45594000000E+02  0.51100000000E-03 0. -1.
         11   -1    0    0    0    0 -0.00000000000E+00 -0.00000000000E+00 -0.45593999997E+02  0.45594000000E+02  0.51100000000E-03 0.  1.
    9900012    2    1    2    0    0 -0.14131592208E+02  0.77727490356E+01 -0.27506431261E+02  0.59301932719E+02  0.49999979376E+02 0.  0.
         12    1    1    2    0    0  0.14131592208E+02 -0.77727490356E+01  0.27506431261E+02  0.31886067281E+02  0.00000000000E+00 0. -1.
         11    1    3    3    0    0  0.87208513179E+01  0.23363188945E+01  0.74495443175E+01  0.11705013647E+02  0.51100000000E-03 0. -1.
        -11    1    3    3    0    0 -0.17300291981E+02  0.42923063810E+01 -0.71276363364E+01  0.19197062190E+02  0.51100000000E-03 0.  1.
         12    1    3    3    0    0 -0.55521515448E+01  0.11441237602E+01 -0.27828339242E+02  0.28399856882E+02  0.00000000000E+00 0. -1.
</event>
<event>
 7    1  0.7578565E-012  0.5930194E+02  0.7816164E-02  0.1266605E+00
        -11   -1    0    0    0    0  0.00000000000E+00  0.00000000000E+00  0.45593999997E+02  0.45594000000E+02  0.51100000000E-03 0.  1.
         11   -1    0    0    0    0 -0.00000000000E+00 -0.00000000000E+00 -0.45593999997E+02  0.45594000000E+02  0.51100000000E-03 0. -1.
    9900012    2    1    2    0    0 -0.23565792160E+02  0.69054939961E+01  0.20339326249E+02  0.59301943491E+02  0.49999999021E+02 0.  0.
         12    1    1    2    0    0  0.23565792160E+02 -0.69054939961E+01 -0.20339326249E+02  0.31886056509E+02  0.00000000000E+00 0. -1.
         11    1    3    3    0    0  0.68776183480E+00  0.89192231497E+01 -0.60924951200E+01  0.10823310722E+02  0.51100000000E-03 0. -1.
        -11    1    3    3    0    0 -0.28427091138E+02  0.24827522546E+01  0.29981960788E+02  0.41390597269E+02  0.51100000000E-03 0.  1.
        -12    1    3    3    0    0  0.41735371440E+01 -0.44964814082E+01 -0.35501394190E+01  0.70880354994E+01  0.00000000000E+00 0.  1.
</event>
<event>
 7    1  0.7578565E-012  0.5930201E+02  0.7816164E-02  0.1266605E+00
        -11   -1    0    0    0    0  0.00000000000E+00  0.00000000000E+00  0.45593999997E+02  0.45594000000E+02  0.51100000000E-03 0.  1.
         11   -1    0    0    0    0 -0.00000000000E+00 -0.00000000000E+00 -0.45593999997E+02  0.45594000000E+02  0.51100000000E-03 0. -1.
    9900012    2    1    2    0    0 -0.11023628533E+02  0.20413074649E+02  0.21874701849E+02  0.59302006467E+02  0.50000113873E+02 0.  0.
         12    1    1    2    0    0  0.11023628533E+02 -0.20413074649E+02 -0.21874701849E+02  0.31885993533E+02  0.00000000000E+00 0. -1.
         11    1    3    3    0    0  0.16655106947E+02  0.56230446099E+01  0.17891424963E+02  0.25082151135E+02  0.51100000000E-03 0. -1.
        -11    1    3    3    0    0 -0.14016052379E+02  0.12567984292E+02 -0.23977108061E+01  0.18977696668E+02  0.51100000000E-03 0.  1.
        -12    1    3    3    0    0 -0.13662683101E+02  0.22220457470E+01  0.63809876920E+01  0.15242158664E+02  0.00000000000E+00 0.  1.
</event>
<event>
 7    1  0.7578565E-012  0.5930195E+02  0.7816164E-02  0.1266605E+00
        -11   -1    0    0    0    0  0.00000000000E+00  0.00000000000E+00  0.45593999997E+02  0.45594000000E+02  0.51100000000E-03 0.  1.
         11   -1    0    0    0    0 -0.00000000000E+00 -0.00000000000E+00 -0.45593999997E+02  0.45594000000E+02  0.51100000000E-03 0. -1.
    9900012    2    1    2    0    0 -0.30945583730E+02 -0.29687734800E+01 -0.70906495535E+01  0.59301951648E+02  0.50000013898E+02 0.  0.
         12    1    1    2    0    0  0.30945583730E+02  0.29687734800E+01  0.70906495535E+01  0.31886048352E+02  0.00000000000E+00 0. -1.
         11    1    3    3    0    0 -0.18255430447E+01 -0.11620270358E+02 -0.15897550510E+02  0.19776132157E+02  0.51100000000E-03 0. -1.
        -11    1    3    3    0    0 -0.24265995359E+02  0.14752444368E+02  0.88688587576E+00  0.28412316210E+02  0.51100000000E-03 0.  1.
         12    1    3    3    0    0 -0.48540453263E+01 -0.61009474904E+01  0.79200150805E+01  0.11113503281E+02  0.00000000000E+00 0. -1.
</event>
<event>
 7    1  0.7578565E-012  0.5930192E+02  0.7816164E-02  0.1266605E+00
        -11   -1    0    0    0    0  0.00000000000E+00  0.00000000000E+00  0.45593999997E+02  0.45594000000E+02  0.51100000000E-03 0.  1.
         11   -1    0    0    0    0 -0.00000000000E+00 -0.00000000000E+00 -0.45593999997E+02  0.45594000000E+02  0.51100000000E-03 0. -1.
    9900012    2    1    2    0    0 -0.31820312778E+02  0.15468661249E+01 -0.13404125237E+01  0.59301924578E+02  0.49999964528E+02 0.  0.
         12    1    1    2    0    0  0.31820312778E+02 -0.15468661249E+01  0.13404125237E+01  0.31886075422E+02  0.00000000000E+00 0. -1.
         11    1    3    3    0    0 -0.61061735273E+01 -0.15019512921E+02 -0.43417393860E+01  0.16784571031E+02  0.51100000000E-03 0. -1.
        -11    1    3    3    0    0 -0.14754856748E+02  0.24257952517E+02 -0.13892308699E+01  0.28426818687E+02  0.51100000000E-03 0.  1.
        -12    1    3    3    0    0 -0.10959282503E+02 -0.76915734709E+01  0.43905577321E+01  0.14090534860E+02  0.00000000000E+00 0.  1.
</event>
<event>
 7    1  0.7578565E-012  0.5930195E+02  0.7816164E-02  0.1266605E+00
        -11   -1    0    0    0    0  0.00000000000E+00  0.00000000000E+00  0.45593999997E+02  0.45594000000E+02  0.51100000000E-03 0. -1.
         11   -1    0    0    0    0 -0.00000000000E+00 -0.00000000000E+00 -0.45593999997E+02  0.45594000000E+02  0.51100000000E-03 0.  1.
    9900012    2    1    2    0    0 -0.28395738473E+02 -0.18922555720E+01 -0.14381284858E+02  0.59301953698E+02  0.50000017637E+02 0.  0.
         12    1    1    2    0    0  0.28395738473E+02  0.18922555720E+01  0.14381284858E+02  0.31886046302E+02  0.00000000000E+00 0. -1.
         11    1    3    3    0    0  0.84781332326E+01  0.10626626002E+02 -0.25253846114E+01  0.13826839516E+02  0.51100000000E-03 0. -1.
        -11    1    3    3    0    0 -0.30409931177E+02 -0.11124627432E+01 -0.55715074539E+01  0.30936114545E+02  0.51100000000E-03 0.  1.
        -12    1    3    3    0    0 -0.64639405285E+01 -0.11406418831E+02 -0.62843927923E+01  0.14538999638E+02  0.00000000000E+00 0.  1.
</event>
<event>
 7    1  0.7578565E-012  0.5930192E+02  0.7816164E-02  0.1266605E+00
        -11   -1    0    0    0    0  0.00000000000E+00  0.00000000000E+00  0.45593999997E+02  0.45594000000E+02  0.51100000000E-03 0.  1.
         11   -1    0    0    0    0 -0.00000000000E+00 -0.00000000000E+00 -0.45593999997E+02  0.45594000000E+02  0.51100000000E-03 0. -1.
    9900012    2    1    2    0    0  0.22303926772E+02  0.18214137087E+02  0.13693150714E+02  0.59301916582E+02  0.49999949945E+02 0.  0.
         12    1    1    2    0    0 -0.22303926772E+02 -0.18214137087E+02 -0.13693150714E+02  0.31886083418E+02  0.00000000000E+00 0. -1.
         11    1    3    3    0    0 -0.19829230807E+01  0.21488115431E+02 -0.16627953283E+01  0.21643381835E+02  0.51100000000E-03 0. -1.
        -11    1    3    3    0    0  0.94971573142E+01 -0.11851917549E+02  0.13747918842E+02  0.20485829722E+02  0.51100000000E-03 0.  1.
        -12    1    3    3    0    0  0.14789692539E+02  0.85779392048E+01  0.16080271998E+01  0.17172705025E+02  0.00000000000E+00 0.  1.
</event>
<event>
 7    1  0.7578565E-012  0.5930196E+02  0.7816164E-02  0.1266605E+00
        -11   -1    0    0    0    0  0.00000000000E+00  0.00000000000E+00  0.45593999997E+02  0.45594000000E+02  0.51100000000E-03 0. -1.
         11   -1    0    0    0    0 -0.00000000000E+00 -0.00000000000E+00 -0.45593999997E+02  0.45594000000E+02  0.51100000000E-03 0.  1.
    9900012    2    1    2    0    0  0.48930863448E+01 -0.25812056727E+02 -0.18069730872E+02  0.59301956968E+02  0.50000023600E+02 0.  0.
         12    1    1    2    0    0 -0.48930863448E+01  0.25812056727E+02  0.18069730872E+02  0.31886043032E+02  0.00000000000E+00 0. -1.
         11    1    3    3    0    0 -0.77565626246E+01 -0.12597028314E+02  0.97405519816E+00  0.14825591722E+02  0.51100000000E-03 0. -1.
        -11    1    3    3    0    0  0.75805691177E+01  0.89530162753E+01 -0.18283492883E+02  0.21723435291E+02  0.51100000000E-03 0.  1.
        -12    1    3    3    0    0  0.50690798518E+01 -0.22168044688E+02 -0.76029318687E+00  0.22752929956E+02  0.00000000000E+00 0.  1.
</event>
<event>
 7    1  0.7578565E-012  0.5930195E+02  0.7816164E-02  0.1266605E+00
        -11   -1    0    0    0    0  0.00000000000E+00  0.00000000000E+00  0.45593999997E+02  0.45594000000E+02  0.51100000000E-03 0.  1.
         11   -1    0    0    0    0 -0.00000000000E+00 -0.00000000000E+00 -0.45593999997E+02  0.45594000000E+02  0.51100000000E-03 0. -1.
    9900012    2    1    2    0    0 -0.92370478255E+01 -0.26821825248E+00  0.30517622056E+02  0.59301948983E+02  0.50000009036E+02 0.  0.
         12    1    1    2    0    0  0.92370478255E+01  0.26821825248E+00 -0.30517622056E+02  0.31886051017E+02  0.00000000000E+00 0. -1.
         11    1    3    3    0    0 -0.78245292625E+01  0.17157955742E+02  0.39769660130E+01  0.19272648037E+02  0.51100000000E-03 0. -1.
        -11    1    3    3    0    0  0.10208777944E+02 -0.14871024045E+02  0.16845445277E+02  0.24680671184E+02  0.51100000000E-03 0.  1.
        -12    1    3    3    0    0 -0.11621296507E+02 -0.25551499500E+01  0.96952107658E+01  0.15348629762E+02  0.00000000000E+00 0.  1.
</event>
<event>
 7    1  0.7578565E-012  0.5930190E+02  0.7816164E-02  0.1266605E+00
        -11   -1    0    0    0    0  0.00000000000E+00  0.00000000000E+00  0.45593999997E+02  0.45594000000E+02  0.51100000000E-03 0.  1.
         11   -1    0    0    0    0 -0.00000000000E+00 -0.00000000000E+00 -0.45593999997E+02  0.45594000000E+02  0.51100000000E-03 0. -1.
    9900012    2    1    2    0    0 -0.16263775570E+02 -0.27124963311E+02 -0.40557912342E+01  0.59301898436E+02  0.49999916851E+02 0.  0.
         12    1    1    2    0    0  0.16263775570E+02  0.27124963311E+02  0.40557912342E+01  0.31886101564E+02  0.00000000000E+00 0. -1.
         11    1    3    3    0    0 -0.11423088977E+02 -0.98128811764E+01  0.14659198183E+02  0.21015986544E+02  0.51100000000E-03 0. -1.
        -11    1    3    3    0    0 -0.14956152392E+02 -0.12255019748E+02 -0.18810968314E+02  0.26976369892E+02  0.51100000000E-03 0.  1.
        -12    1    3    3    0    0  0.10115465799E+02 -0.50570623860E+01  0.95978896164E-01  0.11309542000E+02  0.00000000000E+00 0.  1.
</event>
<event>
 7    1  0.7578565E-012  0.5930195E+02  0.7816164E-02  0.1266605E+00
        -11   -1    0    0    0    0  0.00000000000E+00  0.00000000000E+00  0.45593999997E+02  0.45594000000E+02  0.51100000000E-03 0.  1.
         11   -1    0    0    0    0 -0.00000000000E+00 -0.00000000000E+00 -0.45593999997E+02  0.45594000000E+02  0.51100000000E-03 0. -1.
    9900012    2    1    2    0    0 -0.12269747252E+02  0.10434575055E+02  0.27518960793E+02  0.59301948859E+02  0.50000008812E+02 0.  0.
         12    1    1    2    0    0  0.12269747252E+02 -0.10434575055E+02 -0.27518960793E+02  0.31886051141E+02  0.00000000000E+00 0. -1.
         11    1    3    3    0    0 -0.14876962854E+01 -0.99813377920E+01 -0.79480120739E+01  0.12845670109E+02  0.51100000000E-03 0. -1.
        -11    1    3    3    0    0 -0.18708461337E+01  0.20079157097E+02  0.18883271428E+02  0.27626989613E+02  0.51100000000E-03 0.  1.
        -12    1    3    3    0    0 -0.89112048328E+01  0.33675574954E+00  0.16583701439E+02  0.18829289137E+02  0.00000000000E+00 0.  1.
</event>
<event>
 7    1  0.7578565E-012  0.5930193E+02  0.7816164E-02  0.1266605E+00
        -11   -1    0    0    0    0  0.00000000000E+00  0.00000000000E+00  0.45593999997E+02  0.45594000000E+02  0.51100000000E-03 0. -1.
         11   -1    0    0    0    0 -0.00000000000E+00 -0.00000000000E+00 -0.45593999997E+02  0.45594000000E+02  0.51100000000E-03 0.  1.
    9900012    2    1    2    0    0  0.26732802208E+02 -0.15772058620E+02  0.73021331976E+01  0.59301926297E+02  0.49999967663E+02 0.  0.
         12    1    1    2    0    0 -0.26732802208E+02  0.15772058620E+02 -0.73021331976E+01  0.31886073703E+02  0.00000000000E+00 0. -1.
         11    1    3    3    0    0  0.31965577777E+02 -0.13190296153E+02 -0.10770153319E+02  0.36218479786E+02  0.51100000000E-03 0.  1.
        -11    1    3    3    0    0 -0.45175881678E+00 -0.54682354755E+01  0.16379862157E+01  0.57261404408E+01  0.51100000000E-03 0. -1.
         12    1    3    3    0    0 -0.47810167530E+01  0.28864730085E+01  0.16434300301E+02  0.17357306070E+02  0.00000000000E+00 0. -1.
</event>
<event>
 7    1  0.7578565E-012  0.5930194E+02  0.7816164E-02  0.1266605E+00
        -11   -1    0    0    0    0  0.00000000000E+00  0.00000000000E+00  0.45593999997E+02  0.45594000000E+02  0.51100000000E-03 0.  1.
         11   -1    0    0    0    0 -0.00000000000E+00 -0.00000000000E+00 -0.45593999997E+02  0.45594000000E+02  0.51100000000E-03 0. -1.
    9900012    2    1    2    0    0 -0.14822126263E+02 -0.28197945298E+02  0.13788751613E+01  0.59301939681E+02  0.49999992073E+02 0.  0.
         12    1    1    2    0    0  0.14822126263E+02  0.28197945298E+02 -0.13788751613E+01  0.31886060319E+02  0.00000000000E+00 0. -1.
         11    1    3    3    0    0 -0.12323944133E+02 -0.55872120100E+01 -0.38204826655E+01  0.14060320946E+02  0.51100000000E-03 0. -1.
        -11    1    3    3    0    0  0.24335260890E+01 -0.20046613677E+01  0.19452064455E+02  0.19705926222E+02  0.51100000000E-03 0.  1.
        -12    1    3    3    0    0 -0.49317082188E+01 -0.20606071920E+02 -0.14252706628E+02  0.25535692514E+02  0.00000000000E+00 0.  1.
</event>
<event>
 7    1  0.7578565E-012  0.5930196E+02  0.7816164E-02  0.1266605E+00
        -11   -1    0    0    0    0  0.00000000000E+00  0.00000000000E+00  0.45593999997E+02  0.45594000000E+02  0.51100000000E-03 0. -1.
         11   -1    0    0    0    0 -0.00000000000E+00 -0.00000000000E+00 -0.45593999997E+02  0.45594000000E+02  0.51100000000E-03 0.  1.
    9900012    2    1    2    0    0  0.47160489068E+01  0.33373137596E+01 -0.31358266841E+02  0.59301957917E+02  0.50000025331E+02 0.  0.
         12    1    1    2    0    0 -0.47160489068E+01 -0.33373137596E+01  0.31358266841E+02  0.31886042083E+02  0.00000000000E+00 0. -1.
         11    1    3    3    0    0  0.53271344837E+01  0.20996351349E+02 -0.18552090727E+02  0.28520259507E+02  0.51100000000E-03 0. -1.
        -11    1    3    3    0    0  0.57127625117E+01 -0.19899199591E+02 -0.68399025696E+01  0.21803625095E+02  0.51100000000E-03 0.  1.
         12    1    3    3    0    0 -0.63238480886E+01  0.22401620016E+01 -0.59662735449E+01  0.89780733152E+01  0.00000000000E+00 0. -1.
</event>
<event>
 7    1  0.7578565E-012  0.5930194E+02  0.7816164E-02  0.1266605E+00
        -11   -1    0    0    0    0  0.00000000000E+00  0.00000000000E+00  0.45593999997E+02  0.45594000000E+02  0.51100000000E-03 0. -1.
         11   -1    0    0    0    0 -0.00000000000E+00 -0.00000000000E+00 -0.45593999997E+02  0.45594000000E+02  0.51100000000E-03 0.  1.
    9900012    2    1    2    0    0  0.10222823575E+02  0.30173932884E+02  0.13222632326E+01  0.59301941486E+02  0.49999995364E+02 0.  0.
         12    1    1    2    0    0 -0.10222823575E+02 -0.30173932884E+02 -0.13222632326E+01  0.31886058514E+02  0.00000000000E+00 0. -1.
         11    1    3    3    0    0  0.10656465039E+02 -0.65604846234E+01  0.27893796198E+01  0.12821109334E+02  0.51100000000E-03 0. -1.
        -11    1    3    3    0    0 -0.12849113090E+02  0.28710257318E+02 -0.31064617615E+01  0.31607415070E+02  0.51100000000E-03 0.  1.
        -12    1    3    3    0    0  0.12415471626E+02  0.80241601893E+01  0.16393453743E+01  0.14873417082E+02  0.00000000000E+00 0.  1.
</event>
<event>
 7    1  0.7578565E-012  0.5930201E+02  0.7816164E-02  0.1266605E+00
        -11   -1    0    0    0    0  0.00000000000E+00  0.00000000000E+00  0.45593999997E+02  0.45594000000E+02  0.51100000000E-03 0.  1.
         11   -1    0    0    0    0 -0.00000000000E+00 -0.00000000000E+00 -0.45593999997E+02  0.45594000000E+02  0.51100000000E-03 0. -1.
    9900012    2    1    2    0    0  0.24105212403E+02 -0.13287171413E+01  0.20830014955E+02  0.59302011270E+02  0.50000122633E+02 0.  0.
         12    1    1    2    0    0 -0.24105212403E+02  0.13287171413E+01 -0.20830014955E+02  0.31885988730E+02  0.00000000000E+00 0. -1.
         11    1    3    3    0    0 -0.19594641187E+01 -0.82650148994E+01 -0.90367650896E+01  0.12402140721E+02  0.51100000000E-03 0. -1.
        -11    1    3    3    0    0  0.18620546225E+02  0.72374305567E+01  0.45223336018E+01  0.20483081903E+02  0.51100000000E-03 0.  1.
         12    1    3    3    0    0  0.74441302976E+01 -0.30113279856E+00  0.25344446443E+02  0.26416788646E+02  0.00000000000E+00 0. -1.
</event>
<event>
 7    1  0.7578565E-012  0.5930193E+02  0.7816164E-02  0.1266605E+00
        -11   -1    0    0    0    0  0.00000000000E+00  0.00000000000E+00  0.45593999997E+02  0.45594000000E+02  0.51100000000E-03 0. -1.
         11   -1    0    0    0    0 -0.00000000000E+00 -0.00000000000E+00 -0.45593999997E+02  0.45594000000E+02  0.51100000000E-03 0.  1.
    9900012    2    1    2    0    0  0.13345080504E+02  0.24187448776E+02 -0.15924739895E+02  0.59301934193E+02  0.49999982063E+02 0.  0.
         12    1    1    2    0    0 -0.13345080504E+02 -0.24187448776E+02  0.15924739895E+02  0.31886065807E+02  0.00000000000E+00 0. -1.
         11    1    3    3    0    0 -0.66758649178E+01  0.33840265516E+01  0.71857751853E+00  0.75189867678E+01  0.51100000000E-03 0. -1.
        -11    1    3    3    0    0  0.29138849424E+02  0.19925003517E+02 -0.21583660515E+02  0.41375508606E+02  0.51100000000E-03 0.  1.
        -12    1    3    3    0    0 -0.91179040022E+01  0.87841870758E+00  0.49403431012E+01  0.10407438819E+02  0.00000000000E+00 0.  1.
</event>
<event>
 7    1  0.7578565E-012  0.5930194E+02  0.7816164E-02  0.1266605E+00
        -11   -1    0    0    0    0  0.00000000000E+00  0.00000000000E+00  0.45593999997E+02  0.45594000000E+02  0.51100000000E-03 0.  1.
         11   -1    0    0    0    0 -0.00000000000E+00 -0.00000000000E+00 -0.45593999997E+02  0.45594000000E+02  0.51100000000E-03 0. -1.
    9900012    2    1    2    0    0  0.12466702173E+02  0.13910639474E+02  0.25841752745E+02  0.59301941313E+02  0.49999995049E+02 0.  0.
         12    1    1    2    0    0 -0.12466702173E+02 -0.13910639474E+02 -0.25841752745E+02  0.31886058687E+02  0.00000000000E+00 0. -1.
         11    1    3    3    0    0 -0.11640865080E+02  0.18352941540E+02  0.12200407821E+02  0.24923686610E+02  0.51100000000E-03 0. -1.
        -11    1    3    3    0    0  0.52441309931E+01 -0.73127790608E+01  0.12313894779E+02  0.15251545901E+02  0.51100000000E-03 0.  1.
         12    1    3    3    0    0  0.18863436260E+02  0.28704769939E+01  0.13274501451E+01  0.19126708802E+02  0.00000000000E+00 0. -1.
</event>
<event>
 7    1  0.7578565E-012  0.5930182E+02  0.7816164E-02  0.1266605E+00
        -11   -1    0    0    0    0  0.00000000000E+00  0.00000000000E+00  0.45593999997E+02  0.45594000000E+02  0.51100000000E-03 0.  1.
         11   -1    0    0    0    0 -0.00000000000E+00 -0.00000000000E+00 -0.45593999997E+02  0.45594000000E+02  0.51100000000E-03 0. -1.
    9900012    2    1    2    0    0  0.51849628172E+01 -0.13600131611E+02  0.28370425598E+02  0.59301820112E+02  0.49999774006E+02 0.  0.
         12    1    1    2    0    0 -0.51849628172E+01  0.13600131611E+02 -0.28370425598E+02  0.31886179888E+02  0.00000000000E+00 0. -1.
         11    1    3    3    0    0 -0.84055840323E+01 -0.85829609893E+01  0.84594540857E+01  0.14692971992E+02  0.51100000000E-03 0. -1.
        -11    1    3    3    0    0  0.18997092315E+02  0.67792768613E+01  0.23670433324E+02  0.31098834789E+02  0.51100000000E-03 0.  1.
        -12    1    3    3    0    0 -0.54065454653E+01 -0.11796447483E+02 -0.37594618121E+01  0.13510013331E+02  0.00000000000E+00 0.  1.
</event>
<event>
 7    1  0.7578565E-012  0.5930193E+02  0.7816164E-02  0.1266605E+00
        -11   -1    0    0    0    0  0.00000000000E+00  0.00000000000E+00  0.45593999997E+02  0.45594000000E+02  0.51100000000E-03 0. -1.
         11   -1    0    0    0    0 -0.00000000000E+00 -0.00000000000E+00 -0.45593999997E+02  0.45594000000E+02  0.51100000000E-03 0.  1.
    9900012    2    1    2    0    0  0.25165721496E+02  0.18205691270E+02  0.72083574637E+01  0.59301934856E+02  0.49999983273E+02 0.  0.
         12    1    1    2    0    0 -0.25165721496E+02 -0.18205691270E+02 -0.72083574637E+01  0.31886065144E+02  0.00000000000E+00 0. -1.
         11    1    3    3    0    0  0.77673467051E+01 -0.64373703386E+01  0.76856963345E+00  0.10117416234E+02  0.51100000000E-03 0. -1.
        -11    1    3    3    0    0  0.27999508700E+02  0.20022461740E+02 -0.25800550230E+01  0.34518518881E+02  0.51100000000E-03 0.  1.
        -12    1    3    3    0    0 -0.10601133909E+02  0.46205998687E+01  0.90198428532E+01  0.14665999741E+02  0.00000000000E+00 0.  1.
</event>
<event>
 7    1  0.7578565E-012  0.5930194E+02  0.7816164E-02  0.1266605E+00
        -11   -1    0    0    0    0  0.00000000000E+00  0.00000000000E+00  0.45593999997E+02  0.45594000000E+02  0.51100000000E-03 0.  1.
         11   -1    0    0    0    0 -0.00000000000E+00 -0.00000000000E+00 -0.45593999997E+02  0.45594000000E+02  0.51100000000E-03 0. -1.
    9900012    2    1    2    0    0  0.52166817505E+01 -0.16598574893E+02  0.26720675728E+02  0.59301937711E+02  0.49999988480E+02 0.  0.
         12    1    1    2    0    0 -0.52166817505E+01  0.16598574893E+02 -0.26720675728E+02  0.31886062289E+02  0.00000000000E+00 0. -1.
         11    1    3    3    0    0  0.13867884149E+02  0.72004499716E+01  0.40699080328E+01  0.16147100118E+02  0.51100000000E-03 0. -1.
        -11    1    3    3    0    0 -0.40843181284E+01 -0.19218309580E+02  0.28377747446E+02  0.34515527347E+02  0.51100000000E-03 0.  1.
        -12    1    3    3    0    0 -0.45668842701E+01 -0.45807152845E+01 -0.57269797510E+01  0.86393102458E+01  0.00000000000E+00 0.  1.
</event>
<event>
 7    1  0.7578565E-012  0.5930191E+02  0.7816164E-02  0.1266605E+00
        -11   -1    0    0    0    0  0.00000000000E+00  0.00000000000E+00  0.45593999997E+02  0.45594000000E+02  0.51100000000E-03 0.  1.
         11   -1    0    0    0    0 -0.00000000000E+00 -0.00000000000E+00 -0.45593999997E+02  0.45594000000E+02  0.51100000000E-03 0. -1.
    9900012    2    1    2    0    0 -0.20928469993E+02 -0.44312880499E+01  0.23644996244E+02  0.59301905579E+02  0.49999929879E+02 0.  0.
         12    1    1    2    0    0  0.20928469993E+02  0.44312880499E+01 -0.23644996244E+02  0.31886094421E+02  0.00000000000E+00 0. -1.
         11    1    3    3    0    0 -0.88312479825E+01  0.85212608250E+01  0.26256511310E+02  0.28982877935E+02  0.51100000000E-03 0. -1.
        -11    1    3    3    0    0  0.18000648041E+01 -0.15891333657E+02 -0.10182869141E+01  0.16025343278E+02  0.51100000000E-03 0.  1.
        -12    1    3    3    0    0 -0.13897286815E+02  0.29387847818E+01 -0.15932281521E+01  0.14293684366E+02  0.00000000000E+00 0.  1.
</event>
<event>
 7    1  0.7578565E-012  0.5930195E+02  0.7816164E-02  0.1266605E+00
        -11   -1    0    0    0    0  0.00000000000E+00  0.00000000000E+00  0.45593999997E+02  0.45594000000E+02  0.51100000000E-03 0.  1.
         11   -1    0    0    0    0 -0.00000000000E+00 -0.00000000000E+00 -0.45593999997E+02  0.45594000000E+02  0.51100000000E-03 0. -1.
    9900012    2    1    2    0    0  0.30903114794E+02  0.40454073109E+01 -0.67344342639E+01  0.59301946165E+02  0.50000003899E+02 0.  0.
         12    1    1    2    0    0 -0.30903114794E+02 -0.40454073109E+01  0.67344342639E+01  0.31886053835E+02  0.00000000000E+00 0. -1.
         11    1    3    3    0    0 -0.91435087699E+01  0.72229543513E+01  0.38228723567E+01  0.12263326445E+02  0.51100000000E-03 0. -1.
        -11    1    3    3    0    0  0.15707669729E+02  0.27780295235E+01  0.59587431692E+01  0.17028063800E+02  0.51100000000E-03 0.  1.
         12    1    3    3    0    0  0.24338953835E+02 -0.59555765639E+01 -0.16516049790E+02  0.30010555920E+02  0.00000000000E+00 0. -1.
</event>
<event>
 7    1  0.7578565E-012  0.5930195E+02  0.7816164E-02  0.1266605E+00
        -11   -1    0    0    0    0  0.00000000000E+00  0.00000000000E+00  0.45593999997E+02  0.45594000000E+02  0.51100000000E-03 0.  1.
         11   -1    0    0    0    0 -0.00000000000E+00 -0.00000000000E+00 -0.45593999997E+02  0.45594000000E+02  0.51100000000E-03 0. -1.
    9900012    2    1    2    0    0 -0.12159074416E+02 -0.43500519150E+00  0.29473513805E+02  0.59301947623E+02  0.50000006557E+02 0.  0.
         12    1    1    2    0    0  0.12159074416E+02  0.43500519150E+00 -0.29473513805E+02  0.31886052377E+02  0.00000000000E+00 0. -1.
         11    1    3    3    0    0  0.25192236765E+01 -0.15527785302E+02  0.11019087968E+02  0.19206220457E+02  0.51100000000E-03 0. -1.
        -11    1    3    3    0    0 -0.15915455622E+02  0.61279764570E+01 -0.25318623466E+01  0.17241350014E+02  0.51100000000E-03 0.  1.
        -12    1    3    3    0    0  0.12371575296E+01  0.89648036534E+01  0.20986288183E+02  0.22854377152E+02  0.00000000000E+00 0.  1.
</event>
<event>
 7    1  0.7578565E-012  0.5930193E+02  0.7816164E-02  0.1266605E+00
        -11   -1    0    0    0    0  0.00000000000E+00  0.00000000000E+00  0.45593999997E+02  0.45594000000E+02  0.51100000000E-03 0.  1.
         11   -1    0    0    0    0 -0.00000000000E+00 -0.00000000000E+00 -0.45593999997E+02  0.45594000000E+02  0.51100000000E-03 0. -1.
    9900012    2    1    2    0    0 -0.18066335444E+01 -0.31581202418E+02 -0.40106235168E+01  0.59301931382E+02  0.49999976937E+02 0.  0.
         12    1    1    2    0    0  0.18066335444E+01  0.31581202418E+02  0.40106235168E+01  0.31886068618E+02  0.00000000000E+00 0. -1.
         11    1    3    3    0    0  0.11714340121E+02  0.11864823582E+01  0.33770422063E+01  0.12248996660E+02  0.51100000000E-03 0. -1.
        -11    1    3    3    0    0 -0.14001342344E+02 -0.16572476062E+02 -0.17569270611E+02  0.27917088321E+02  0.51100000000E-03 0.  1.
        -12    1    3    3    0    0  0.48036867888E+00 -0.16195208714E+02  0.10181604888E+02  0.19135846401E+02  0.00000000000E+00 0.  1.
</event>
<event>
 7    1  0.9330388E-012  0.5930198E+02  0.7816164E-02  0.1266605E+00
        -11   -1    0    0    0    0  0.00000000000E+00  0.00000000000E+00  0.45593999997E+02  0.45594000000E+02  0.51100000000E-03 0. -1.
         11   -1    0    0    0    0 -0.00000000000E+00 -0.00000000000E+00 -0.45593999997E+02  0.45594000000E+02  0.51100000000E-03 0.  1.
    9900012    2    1    2    0    0 -0.12938302510E+02  0.27195273826E-01 -0.29143058357E+02  0.59301980151E+02  0.50000065880E+02 0.  0.
         12    1    1    2    0    0  0.12938302510E+02 -0.27195273826E-01  0.29143058357E+02  0.31886019849E+02  0.00000000000E+00 0. -1.
         11    1    3    3    0    0 -0.11520320541E+02 -0.11616486906E+02  0.44934383887E+01  0.16966188205E+02  0.51100000000E-03 0. -1.
        -11    1    3    3    0    0 -0.10978680033E+02  0.82723533989E+01 -0.26765193492E+02  0.30088848914E+02  0.51100000000E-03 0.  1.
         12    1    3    3    0    0  0.95606980644E+01  0.33713287808E+01 -0.68713032534E+01  0.12246943032E+02  0.00000000000E+00 0. -1.
</event>
<event>
 7    1  0.7578565E-012  0.5930190E+02  0.7816164E-02  0.1266605E+00
        -11   -1    0    0    0    0  0.00000000000E+00  0.00000000000E+00  0.45593999997E+02  0.45594000000E+02  0.51100000000E-03 0. -1.
         11   -1    0    0    0    0 -0.00000000000E+00 -0.00000000000E+00 -0.45593999997E+02  0.45594000000E+02  0.51100000000E-03 0.  1.
    9900012    2    1    2    0    0 -0.12596315518E+01 -0.90493172776E+01 -0.30549081866E+02  0.59301902438E+02  0.49999924151E+02 0.  0.
         12    1    1    2    0    0  0.12596315518E+01  0.90493172776E+01  0.30549081866E+02  0.31886097562E+02  0.00000000000E+00 0. -1.
         11    1    3    3    0    0 -0.13256501608E+01 -0.25015310516E+02 -0.11939973508E+02  0.27750424793E+02  0.51100000000E-03 0. -1.
        -11    1    3    3    0    0  0.38751391398E+01  0.60270367437E+01 -0.19593106069E+02  0.20862207001E+02  0.51100000000E-03 0.  1.
         12    1    3    3    0    0 -0.38091205308E+01  0.99389564944E+01  0.98399771052E+00  0.10689270644E+02  0.00000000000E+00 0. -1.
</event>
<event>
 7    1  0.7578565E-012  0.5930196E+02  0.7816164E-02  0.1266605E+00
        -11   -1    0    0    0    0  0.00000000000E+00  0.00000000000E+00  0.45593999997E+02  0.45594000000E+02  0.51100000000E-03 0. -1.
         11   -1    0    0    0    0 -0.00000000000E+00 -0.00000000000E+00 -0.45593999997E+02  0.45594000000E+02  0.51100000000E-03 0.  1.
    9900012    2    1    2    0    0  0.14216880167E+02  0.17786159424E+02 -0.22321567003E+02  0.59301960701E+02  0.50000030408E+02 0.  0.
         12    1    1    2    0    0 -0.14216880167E+02 -0.17786159424E+02  0.22321567003E+02  0.31886039299E+02  0.00000000000E+00 0. -1.
         11    1    3    3    0    0  0.11196751107E+01 -0.16371233399E+01 -0.11358453426E+00  0.19866421145E+01  0.51100000000E-03 0. -1.
        -11    1    3    3    0    0  0.63555115882E+01  0.31788026298E+02 -0.27257935245E+02  0.42354057392E+02  0.51100000000E-03 0.  1.
        -12    1    3    3    0    0  0.67416934682E+01 -0.12364743534E+02  0.50499527768E+01  0.14961261194E+02  0.00000000000E+00 0.  1.
</event>
<event>
 7    1  0.7578565E-012  0.5930197E+02  0.7816164E-02  0.1266605E+00
        -11   -1    0    0    0    0  0.00000000000E+00  0.00000000000E+00  0.45593999997E+02  0.45594000000E+02  0.51100000000E-03 0.  1.
         11   -1    0    0    0    0 -0.00000000000E+00 -0.00000000000E+00 -0.45593999997E+02  0.45594000000E+02  0.51100000000E-03 0. -1.
    9900012    2    1    2    0    0  0.21223743824E+02  0.23634302609E+02 -0.27733795701E+01  0.59301965503E+02  0.50000039165E+02 0.  0.
         12    1    1    2    0    0 -0.21223743824E+02 -0.23634302609E+02  0.27733795701E+01  0.31886034497E+02  0.00000000000E+00 0. -1.
         11    1    3    3    0    0 -0.63536958879E+01  0.15933051800E+01 -0.40024510674E+00  0.65626419404E+01  0.51100000000E-03 0. -1.
        -11    1    3    3    0    0  0.31463966381E+02  0.17141624116E+02 -0.14847739766E+02  0.38784943395E+02  0.51100000000E-03 0.  1.
        -12    1    3    3    0    0 -0.38865266685E+01  0.48993733128E+01  0.12474605302E+02  0.13954380167E+02  0.00000000000E+00 0.  1.
</event>
<event>
 7    1  0.7578565E-012  0.5930196E+02  0.7816164E-02  0.1266605E+00
        -11   -1    0    0    0    0  0.00000000000E+00  0.00000000000E+00  0.45593999997E+02  0.45594000000E+02  0.51100000000E-03 0. -1.
         11   -1    0    0    0    0 -0.00000000000E+00 -0.00000000000E+00 -0.45593999997E+02  0.45594000000E+02  0.51100000000E-03 0.  1.
    9900012    2    1    2    0    0 -0.94953890431E+01 -0.23851801754E+02 -0.18911598433E+02  0.59301962064E+02  0.50000032893E+02 0.  0.
         12    1    1    2    0    0  0.94953890431E+01  0.23851801754E+02  0.18911598433E+02  0.31886037936E+02  0.00000000000E+00 0. -1.
         11    1    3    3    0    0 -0.10747651137E+01  0.13440154169E+02 -0.79839955159E+01  0.15669621846E+02  0.51100000000E-03 0. -1.
        -11    1    3    3    0    0  0.32679834700E+01 -0.12283959544E+02 -0.97190891666E+01  0.16001127227E+02  0.51100000000E-03 0.  1.
         12    1    3    3    0    0 -0.11688607399E+02 -0.25007996380E+02 -0.12085137508E+01  0.27631212991E+02  0.00000000000E+00 0. -1.
</event>
<event>
 7    1  0.7899616E-012  0.5930198E+02  0.7816164E-02  0.1266605E+00
        -11   -1    0    0    0    0  0.00000000000E+00  0.00000000000E+00  0.45593999997E+02  0.45594000000E+02  0.51100000000E-03 0. -1.
         11   -1    0    0    0    0 -0.00000000000E+00 -0.00000000000E+00 -0.45593999997E+02  0.45594000000E+02  0.51100000000E-03 0.  1.
    9900012    2    1    2    0    0 -0.95544895706E+01  0.93802306689E+01 -0.28938582947E+02  0.59301975140E+02  0.50000056742E+02 0.  0.
         12    1    1    2    0    0  0.95544895706E+01 -0.93802306689E+01  0.28938582947E+02  0.31886024860E+02  0.00000000000E+00 0. -1.
         11    1    3    3    0    0 -0.98972564012E+01  0.25409724617E+02 -0.15278739311E+02  0.31257793661E+02  0.51100000000E-03 0. -1.
        -11    1    3    3    0    0 -0.72055229944E+01 -0.81724430133E+01 -0.13231931167E+02  0.17140373073E+02  0.51100000000E-03 0.  1.
         12    1    3    3    0    0  0.75482898250E+01 -0.78570509347E+01 -0.42791246936E+00  0.10903808406E+02  0.00000000000E+00 0. -1.
</event>
<event>
 7    1  0.7578565E-012  0.5930193E+02  0.7816164E-02  0.1266605E+00
        -11   -1    0    0    0    0  0.00000000000E+00  0.00000000000E+00  0.45593999997E+02  0.45594000000E+02  0.51100000000E-03 0. -1.
         11   -1    0    0    0    0 -0.00000000000E+00 -0.00000000000E+00 -0.45593999997E+02  0.45594000000E+02  0.51100000000E-03 0.  1.
    9900012    2    1    2    0    0  0.21555552068E+02 -0.21862030634E+02 -0.86099579930E+01  0.59301928040E+02  0.49999970842E+02 0.  0.
         12    1    1    2    0    0 -0.21555552068E+02  0.21862030634E+02  0.86099579930E+01  0.31886071960E+02  0.00000000000E+00 0. -1.
         11    1    3    3    0    0  0.12656387675E+02  0.48709014918E+01  0.15406014876E+02  0.20524500601E+02  0.51100000000E-03 0. -1.
        -11    1    3    3    0    0  0.77942158631E+01 -0.67511754111E+01 -0.98378041011E+01  0.14251686221E+02  0.51100000000E-03 0.  1.
         12    1    3    3    0    0  0.11049485302E+01 -0.19981756715E+02 -0.14178168768E+02  0.24525741217E+02  0.00000000000E+00 0. -1.
</event>
<event>
 7    1  0.7578565E-012  0.5930196E+02  0.7816164E-02  0.1266605E+00
        -11   -1    0    0    0    0  0.00000000000E+00  0.00000000000E+00  0.45593999997E+02  0.45594000000E+02  0.51100000000E-03 0.  1.
         11   -1    0    0    0    0 -0.00000000000E+00 -0.00000000000E+00 -0.45593999997E+02  0.45594000000E+02  0.51100000000E-03 0. -1.
    9900012    2    1    2    0    0  0.18929632210E+02  0.20667087790E+02  0.15207227156E+02  0.59301964638E+02  0.50000037588E+02 0.  0.
         12    1    1    2    0    0 -0.18929632210E+02 -0.20667087790E+02 -0.15207227156E+02  0.31886035362E+02  0.00000000000E+00 0. -1.
         11    1    3    3    0    0  0.25240230834E+02  0.41632194853E+00 -0.57006651525E+01  0.25879338476E+02  0.51100000000E-03 0. -1.
        -11    1    3    3    0    0 -0.13448144616E+01  0.37212237578E+00  0.10216741018E+02  0.10311585634E+02  0.51100000000E-03 0.  1.
         12    1    3    3    0    0 -0.49657841620E+01  0.19878643465E+02  0.10691151291E+02  0.23111040528E+02  0.00000000000E+00 0. -1.
</event>
<event>
 7    1  0.7578565E-012  0.5930195E+02  0.7816164E-02  0.1266605E+00
        -11   -1    0    0    0    0  0.00000000000E+00  0.00000000000E+00  0.45593999997E+02  0.45594000000E+02  0.51100000000E-03 0. -1.
         11   -1    0    0    0    0 -0.00000000000E+00 -0.00000000000E+00 -0.45593999997E+02  0.45594000000E+02  0.51100000000E-03 0.  1.
    9900012    2    1    2    0    0 -0.69360626165E+01  0.29107437600E+02 -0.11016731101E+02  0.59301948936E+02  0.50000008952E+02 0.  0.
         12    1    1    2    0    0  0.69360626165E+01 -0.29107437600E+02  0.11016731101E+02  0.31886051064E+02  0.00000000000E+00 0. -1.
         11    1    3    3    0    0  0.67867044176E+01  0.39822665042E+02 -0.73780125930E+01  0.41065059089E+02  0.51100000000E-03 0. -1.
        -11    1    3    3    0    0 -0.16348808927E+01 -0.21971622873E+01 -0.19309529398E+01  0.33509606334E+01  0.51100000000E-03 0.  1.
         12    1    3    3    0    0 -0.12087886141E+02 -0.85180651539E+01 -0.17077655683E+01  0.14885929214E+02  0.00000000000E+00 0. -1.
</event>
<event>
 7    1  0.7578565E-012  0.5930196E+02  0.7816164E-02  0.1266605E+00
        -11   -1    0    0    0    0  0.00000000000E+00  0.00000000000E+00  0.45593999997E+02  0.45594000000E+02  0.51100000000E-03 0. -1.
         11   -1    0    0    0    0 -0.00000000000E+00 -0.00000000000E+00 -0.45593999997E+02  0.45594000000E+02  0.51100000000E-03 0.  1.
    9900012    2    1    2    0    0  0.39935131394E+01  0.15798141566E+02 -0.27407848179E+02  0.59301959701E+02  0.50000028584E+02 0.  0.
         12    1    1    2    0    0 -0.39935131394E+01 -0.15798141566E+02  0.27407848179E+02  0.31886040299E+02  0.00000000000E+00 0. -1.
         11    1    3    3    0    0  0.91024239740E+01 -0.17851881464E+01 -0.16052891836E+02  0.18540128248E+02  0.51100000000E-03 0. -1.
        -11    1    3    3    0    0 -0.80479179769E+01  0.25262578048E+02  0.27963405853E+00  0.26514996302E+02  0.51100000000E-03 0.  1.
        -12    1    3    3    0    0  0.29390071423E+01 -0.76792483357E+01 -0.11634590402E+02  0.14246835151E+02  0.00000000000E+00 0.  1.
</event>
<event>
 7    1  0.7578565E-012  0.5930192E+02  0.7816164E-02  0.1266605E+00
        -11   -1    0    0    0    0  0.00000000000E+00  0.00000000000E+00  0.45593999997E+02  0.45594000000E+02  0.51100000000E-03 0.  1.
         11   -1    0    0    0    0 -0.00000000000E+00 -0.00000000000E+00 -0.45593999997E+02  0.45594000000E+02  0.51100000000E-03 0. -1.
    9900012    2    1    2    0    0  0.17884379712E+02  0.69047843948E+01  0.25479300402E+02  0.59301924133E+02  0.49999963717E+02 0.  0.
         12    1    1    2    0    0 -0.17884379712E+02 -0.69047843948E+01 -0.25479300402E+02  0.31886075867E+02  0.00000000000E+00 0. -1.
         11    1    3    3    0    0 -0.11693643566E+02 -0.68611107818E+01  0.53528197295E+01  0.14576310244E+02  0.51100000000E-03 0. -1.
        -11    1    3    3    0    0  0.49071351491E+01  0.11202111093E+02 -0.82465341611E+00  0.12257541426E+02  0.51100000000E-03 0.  1.
         12    1    3    3    0    0  0.24670888128E+02  0.25637840840E+01  0.20951134088E+02  0.32468072463E+02  0.00000000000E+00 0. -1.
</event>
<event>
 7    1  0.7578565E-012  0.5930194E+02  0.7816164E-02  0.1266605E+00
        -11   -1    0    0    0    0  0.00000000000E+00  0.00000000000E+00  0.45593999997E+02  0.45594000000E+02  0.51100000000E-03 0.  1.
         11   -1    0    0    0    0 -0.00000000000E+00 -0.00000000000E+00 -0.45593999997E+02  0.45594000000E+02  0.51100000000E-03 0. -1.
    9900012    2    1    2    0    0 -0.28335575674E+02 -0.68321987070E+01  0.12928160358E+02  0.59301935360E+02  0.49999984193E+02 0.  0.
         12    1    1    2    0    0  0.28335575674E+02  0.68321987070E+01 -0.12928160358E+02  0.31886064640E+02  0.00000000000E+00 0. -1.
         11    1    3    3    0    0 -0.11327394379E+02  0.28676797707E+01  0.21460945533E+02  0.24435745009E+02  0.51100000000E-03 0. -1.
        -11    1    3    3    0    0 -0.14528106728E+02 -0.18853979997E+02 -0.88042271701E+01  0.25378196610E+02  0.51100000000E-03 0.  1.
        -12    1    3    3    0    0 -0.24800745673E+01  0.91541015197E+01  0.27144199476E+00  0.94879937421E+01  0.00000000000E+00 0.  1.
</event>
<event>
 7    1  0.7578565E-012  0.5930198E+02  0.7816164E-02  0.1266605E+00
        -11   -1    0    0    0    0  0.00000000000E+00  0.00000000000E+00  0.45593999997E+02  0.45594000000E+02  0.51100000000E-03 0. -1.
         11   -1    0    0    0    0 -0.00000000000E+00 -0.00000000000E+00 -0.45593999997E+02  0.45594000000E+02  0.51100000000E-03 0.  1.
    9900012    2    1    2    0    0  0.16407869972E+02 -0.10776363047E+02 -0.25127084622E+02  0.59301975175E+02  0.50000056805E+02 0.  0.
         12    1    1    2    0    0 -0.16407869972E+02  0.10776363047E+02  0.25127084622E+02  0.31886024825E+02  0.00000000000E+00 0. -1.
         11    1    3    3    0    0 -0.20203956335E+01 -0.12621634971E+02 -0.15658026626E+02  0.20212903452E+02  0.51100000000E-03 0. -1.
        -11    1    3    3    0    0  0.25124688233E+02  0.44387241343E+01 -0.15377620590E+02  0.29789653338E+02  0.51100000000E-03 0.  1.
        -12    1    3    3    0    0 -0.66964226267E+01 -0.25934522105E+01  0.59085625952E+01  0.92994183853E+01  0.00000000000E+00 0.  1.
</event>
<event>
 7    1  0.7578565E-012  0.5930199E+02  0.7816164E-02  0.1266605E+00
        -11   -1    0    0    0    0  0.00000000000E+00  0.00000000000E+00  0.45593999997E+02  0.45594000000E+02  0.51100000000E-03 0.  1.
         11   -1    0    0    0    0 -0.00000000000E+00 -0.00000000000E+00 -0.45593999997E+02  0.45594000000E+02  0.51100000000E-03 0. -1.
    9900012    2    1    2    0    0  0.59453938597E+01 -0.15624450890E+01  0.31287833680E+02  0.59301992423E+02  0.50000088261E+02 0.  0.
         12    1    1    2    0    0 -0.59453938597E+01  0.15624450890E+01 -0.31287833680E+02  0.31886007577E+02  0.00000000000E+00 0. -1.
         11    1    3    3    0    0  0.10811310835E+02  0.12790618935E+02  0.94179494023E+01  0.19214113197E+02  0.51100000000E-03 0.  1.
        -11    1    3    3    0    0 -0.15055561893E+02 -0.16078452657E+02  0.19648940152E+02  0.29517239592E+02  0.51100000000E-03 0. -1.
         12    1    3    3    0    0  0.10189644917E+02  0.17253886330E+01  0.22209441263E+01  0.10570639635E+02  0.00000000000E+00 0. -1.
</event>
<event>
 7    1  0.7578565E-012  0.5930196E+02  0.7816164E-02  0.1266605E+00
        -11   -1    0    0    0    0  0.00000000000E+00  0.00000000000E+00  0.45593999997E+02  0.45594000000E+02  0.51100000000E-03 0. -1.
         11   -1    0    0    0    0 -0.00000000000E+00 -0.00000000000E+00 -0.45593999997E+02  0.45594000000E+02  0.51100000000E-03 0.  1.
    9900012    2    1    2    0    0  0.12857662166E+02  0.26522530007E+02  0.12163706339E+02  0.59301955620E+02  0.50000021141E+02 0.  0.
         12    1    1    2    0    0 -0.12857662166E+02 -0.26522530007E+02 -0.12163706339E+02  0.31886044380E+02  0.00000000000E+00 0. -1.
         11    1    3    3    0    0 -0.38590154443E+01 -0.87680051097E+01  0.14273461297E+02  0.17190160309E+02  0.51100000000E-03 0. -1.
        -11    1    3    3    0    0  0.54385578219E+01  0.24481121970E+02  0.38893238719E+01  0.25377747823E+02  0.51100000000E-03 0.  1.
         12    1    3    3    0    0  0.11278119788E+02  0.10809413146E+02 -0.59990788292E+01  0.16734047488E+02  0.00000000000E+00 0. -1.
</event>
<event>
 7    1  0.7578565E-012  0.5930195E+02  0.7816164E-02  0.1266605E+00
        -11   -1    0    0    0    0  0.00000000000E+00  0.00000000000E+00  0.45593999997E+02  0.45594000000E+02  0.51100000000E-03 0.  1.
         11   -1    0    0    0    0 -0.00000000000E+00 -0.00000000000E+00 -0.45593999997E+02  0.45594000000E+02  0.51100000000E-03 0. -1.
    9900012    2    1    2    0    0 -0.22774320920E+02 -0.20876982309E+02 -0.78868162893E+01  0.59301953602E+02  0.50000017461E+02 0.  0.
         12    1    1    2    0    0  0.22774320920E+02  0.20876982309E+02  0.78868162893E+01  0.31886046398E+02  0.00000000000E+00 0. -1.
         11    1    3    3    0    0 -0.20461171185E+02  0.61362446118E+01  0.13060191134E+02  0.25037604057E+02  0.51100000000E-03 0. -1.
        -11    1    3    3    0    0 -0.22174446074E+01 -0.24581748529E+02 -0.18986183840E+02  0.31139277422E+02  0.51100000000E-03 0.  1.
         12    1    3    3    0    0 -0.95705128047E-01 -0.24314783926E+01 -0.19608235831E+01  0.31250721222E+01  0.00000000000E+00 0. -1.
</event>
<event>
 7    1  0.7578565E-012  0.5930196E+02  0.7816164E-02  0.1266605E+00
        -11   -1    0    0    0    0  0.00000000000E+00  0.00000000000E+00  0.45593999997E+02  0.45594000000E+02  0.51100000000E-03 0.  1.
         11   -1    0    0    0    0 -0.00000000000E+00 -0.00000000000E+00 -0.45593999997E+02  0.45594000000E+02  0.51100000000E-03 0. -1.
    9900012    2    1    2    0    0 -0.18561358124E+01  0.31829166408E+02 -0.42278433071E+00  0.59301955702E+02  0.50000021292E+02 0.  0.
         12    1    1    2    0    0  0.18561358124E+01 -0.31829166408E+02  0.42278433071E+00  0.31886044298E+02  0.00000000000E+00 0. -1.
         11    1    3    3    0    0 -0.93400995536E+01 -0.16567633151E+01  0.38603117592E+01  0.10241305166E+02  0.51100000000E-03 0. -1.
        -11    1    3    3    0    0  0.64039124841E+01  0.22462307045E+02  0.14328793433E+02  0.27402183387E+02  0.51100000000E-03 0.  1.
        -12    1    3    3    0    0  0.10800512571E+01  0.11023622678E+02 -0.18611889523E+02  0.21658467150E+02  0.00000000000E+00 0.  1.
</event>
<event>
 7    1  0.7578565E-012  0.5930196E+02  0.7816164E-02  0.1266605E+00
        -11   -1    0    0    0    0  0.00000000000E+00  0.00000000000E+00  0.45593999997E+02  0.45594000000E+02  0.51100000000E-03 0.  1.
         11   -1    0    0    0    0 -0.00000000000E+00 -0.00000000000E+00 -0.45593999997E+02  0.45594000000E+02  0.51100000000E-03 0. -1.
    9900012    2    1    2    0    0  0.91952801510E+01  0.16963496371E+02  0.25385160595E+02  0.59301956586E+02  0.50000022903E+02 0.  0.
         12    1    1    2    0    0 -0.91952801510E+01 -0.16963496371E+02 -0.25385160595E+02  0.31886043414E+02  0.00000000000E+00 0. -1.
         11    1    3    3    0    0  0.37443521394E+01  0.23716484969E+02  0.86157593685E+00  0.24025697609E+02  0.51100000000E-03 0. -1.
        -11    1    3    3    0    0  0.78405348683E+01  0.54823903081E+00  0.26250790307E+02  0.27402163145E+02  0.51100000000E-03 0.  1.
         12    1    3    3    0    0 -0.23896068567E+01 -0.73012276287E+01 -0.17272056490E+01  0.78740958319E+01  0.00000000000E+00 0. -1.
</event>
<event>
 7    1  0.7578565E-012  0.5930193E+02  0.7816164E-02  0.1266605E+00
        -11   -1    0    0    0    0  0.00000000000E+00  0.00000000000E+00  0.45593999997E+02  0.45594000000E+02  0.51100000000E-03 0. -1.
         11   -1    0    0    0    0 -0.00000000000E+00 -0.00000000000E+00 -0.45593999997E+02  0.45594000000E+02  0.51100000000E-03 0.  1.
    9900012    2    1    2    0    0 -0.39686840978E+01 -0.12865781377E+02 -0.28904026954E+02  0.59301928463E+02  0.49999971613E+02 0.  0.
         12    1    1    2    0    0  0.39686840978E+01  0.12865781377E+02  0.28904026954E+02  0.31886071537E+02  0.00000000000E+00 0. -1.
         11    1    3    3    0    0 -0.90723985091E+01  0.69487827586E-01 -0.11584272251E+02  0.14714231448E+02  0.51100000000E-03 0. -1.
        -11    1    3    3    0    0  0.21822163339E+02 -0.68176769893E+01 -0.65547415024E+01  0.23783443164E+02  0.51100000000E-03 0.  1.
        -12    1    3    3    0    0 -0.16718448928E+02 -0.61175922150E+01 -0.10765013201E+02  0.20804253851E+02  0.00000000000E+00 0.  1.
</event>
<event>
 7    1  0.7578565E-012  0.5930194E+02  0.7816164E-02  0.1266605E+00
        -11   -1    0    0    0    0  0.00000000000E+00  0.00000000000E+00  0.45593999997E+02  0.45594000000E+02  0.51100000000E-03 0. -1.
         11   -1    0    0    0    0 -0.00000000000E+00 -0.00000000000E+00 -0.45593999997E+02  0.45594000000E+02  0.51100000000E-03 0.  1.
    9900012    2    1    2    0    0  0.34236526225E+01 -0.12812678761E+02  0.28997154950E+02  0.59301935183E+02  0.49999983870E+02 0.  0.
         12    1    1    2    0    0 -0.34236526225E+01  0.12812678761E+02 -0.28997154950E+02  0.31886064817E+02  0.00000000000E+00 0. -1.
         11    1    3    3    0    0  0.57185486959E+01  0.20970180347E+01  0.36363888847E+02  0.36870471874E+02  0.51100000000E-03 0. -1.
        -11    1    3    3    0    0  0.75293009784E+00 -0.15711559490E+02 -0.15371395791E+01  0.15804518458E+02  0.51100000000E-03 0.  1.
         12    1    3    3    0    0 -0.30478261712E+01  0.80186269394E+00 -0.58295943185E+01  0.66269448517E+01  0.00000000000E+00 0. -1.
</event>
<event>
 7    1  0.7578565E-012  0.5930192E+02  0.7816164E-02  0.1266605E+00
        -11   -1    0    0    0    0  0.00000000000E+00  0.00000000000E+00  0.45593999997E+02  0.45594000000E+02  0.51100000000E-03 0.  1.
         11   -1    0    0    0    0 -0.00000000000E+00 -0.00000000000E+00 -0.45593999997E+02  0.45594000000E+02  0.51100000000E-03 0. -1.
    9900012    2    1    2    0    0  0.80634146978E+01 -0.13084180405E+02  0.27937567231E+02  0.59301920024E+02  0.49999956223E+02 0.  0.
         12    1    1    2    0    0 -0.80634146978E+01  0.13084180405E+02 -0.27937567231E+02  0.31886079976E+02  0.00000000000E+00 0. -1.
         11    1    3    3    0    0 -0.13012947396E+02  0.44972716712E+01  0.23279873709E+01  0.13963587572E+02  0.51100000000E-03 0. -1.
        -11    1    3    3    0    0  0.22224780092E+02 -0.31869402573E+01  0.19189156812E+02  0.29535083846E+02  0.51100000000E-03 0.  1.
         12    1    3    3    0    0 -0.11484179983E+01 -0.14394511819E+02  0.64204230478E+01  0.15803248606E+02  0.00000000000E+00 0. -1.
</event>
<event>
 7    1  0.7578565E-012  0.5930191E+02  0.7816164E-02  0.1266605E+00
        -11   -1    0    0    0    0  0.00000000000E+00  0.00000000000E+00  0.45593999997E+02  0.45594000000E+02  0.51100000000E-03 0. -1.
         11   -1    0    0    0    0 -0.00000000000E+00 -0.00000000000E+00 -0.45593999997E+02  0.45594000000E+02  0.51100000000E-03 0.  1.
    9900012    2    1    2    0    0  0.40264381853E+01  0.16708191605E+01 -0.31586688023E+02  0.59301910535E+02  0.49999938917E+02 0.  0.
         12    1    1    2    0    0 -0.40264381853E+01 -0.16708191605E+01  0.31586688023E+02  0.31886089465E+02  0.00000000000E+00 0. -1.
         11    1    3    3    0    0  0.62910003070E-01  0.19606493368E+02 -0.57664189250E+00  0.19615072164E+02  0.51100000000E-03 0. -1.
        -11    1    3    3    0    0  0.35503769542E+01 -0.20392065398E+02 -0.30901811324E+02  0.37193594221E+02  0.51100000000E-03 0.  1.
        -12    1    3    3    0    0  0.41315122799E+00  0.24563911905E+01 -0.10823480625E+00  0.24932441500E+01  0.00000000000E+00 0.  1.
</event>
<event>
 7    1  0.7578565E-012  0.5930187E+02  0.7816164E-02  0.1266605E+00
        -11   -1    0    0    0    0  0.00000000000E+00  0.00000000000E+00  0.45593999997E+02  0.45594000000E+02  0.51100000000E-03 0. -1.
         11   -1    0    0    0    0 -0.00000000000E+00 -0.00000000000E+00 -0.45593999997E+02  0.45594000000E+02  0.51100000000E-03 0.  1.
    9900012    2    1    2    0    0  0.13448917171E+01  0.12717837036E+02 -0.29209122807E+02  0.59301874996E+02  0.49999874103E+02 0.  0.
         12    1    1    2    0    0 -0.13448917171E+01 -0.12717837036E+02  0.29209122807E+02  0.31886125004E+02  0.00000000000E+00 0. -1.
         11    1    3    3    0    0 -0.14867848203E+02  0.14098292649E+02 -0.35067190465E+02  0.40614315373E+02  0.51100000000E-03 0. -1.
        -11    1    3    3    0    0  0.57581536244E+01  0.13218142502E+01  0.51982118631E+01  0.78692396652E+01  0.51100000000E-03 0.  1.
         12    1    3    3    0    0  0.10454586296E+02 -0.27022698633E+01  0.65985579540E+00  0.10818319958E+02  0.00000000000E+00 0. -1.
</event>
<event>
 7    1  0.7578565E-012  0.5930195E+02  0.7816164E-02  0.1266605E+00
        -11   -1    0    0    0    0  0.00000000000E+00  0.00000000000E+00  0.45593999997E+02  0.45594000000E+02  0.51100000000E-03 0. -1.
         11   -1    0    0    0    0 -0.00000000000E+00 -0.00000000000E+00 -0.45593999997E+02  0.45594000000E+02  0.51100000000E-03 0.  1.
    9900012    2    1    2    0    0 -0.29101222590E+01  0.17932755503E+02 -0.26204345752E+02  0.59301948696E+02  0.50000008514E+02 0.  0.
         12    1    1    2    0    0  0.29101222590E+01 -0.17932755503E+02  0.26204345752E+02  0.31886051304E+02  0.00000000000E+00 0. -1.
         11    1    3    3    0    0  0.50952807701E+01 -0.11845525531E+02  0.18759670705E+01  0.13030641348E+02  0.51100000000E-03 0. -1.
        -11    1    3    3    0    0  0.15610869241E+00  0.26772690723E+02 -0.15373591389E+02  0.30873105625E+02  0.51100000000E-03 0.  1.
         12    1    3    3    0    0 -0.81615117215E+01  0.30055903111E+01 -0.12706721433E+02  0.15398201722E+02  0.00000000000E+00 0. -1.
</event>
<event>
 7    1  0.7578565E-012  0.5930202E+02  0.7816164E-02  0.1266604E+00
        -11   -1    0    0    0    0  0.00000000000E+00  0.00000000000E+00  0.45593999997E+02  0.45594000000E+02  0.51100000000E-03 0.  1.
         11   -1    0    0    0    0 -0.00000000000E+00 -0.00000000000E+00 -0.45593999997E+02  0.45594000000E+02  0.51100000000E-03 0. -1.
    9900012    2    1    2    0    0  0.18347603747E+01 -0.15898967714E+02  0.27578471227E+02  0.59302021965E+02  0.50000142139E+02 0.  0.
         12    1    1    2    0    0 -0.18347603747E+01  0.15898967714E+02 -0.27578471227E+02  0.31885978035E+02  0.00000000000E+00 0. -1.
         11    1    3    3    0    0  0.18941255359E+02 -0.54295871212E+01  0.15573035047E+02  0.25115154623E+02  0.51100000000E-03 0. -1.
        -11    1    3    3    0    0 -0.10625981903E+02  0.63005772944E+01  0.10379129779E+02  0.16134903188E+02  0.51100000000E-03 0.  1.
         12    1    3    3    0    0 -0.64805130819E+01 -0.16769957887E+02  0.16263064009E+01  0.18051964155E+02  0.00000000000E+00 0. -1.
</event>
<event>
 7    1  0.7578565E-012  0.5930195E+02  0.7816164E-02  0.1266605E+00
        -11   -1    0    0    0    0  0.00000000000E+00  0.00000000000E+00  0.45593999997E+02  0.45594000000E+02  0.51100000000E-03 0. -1.
         11   -1    0    0    0    0 -0.00000000000E+00 -0.00000000000E+00 -0.45593999997E+02  0.45594000000E+02  0.51100000000E-03 0.  1.
    9900012    2    1    2    0    0  0.23190563143E+02 -0.61678790687E+01 -0.20997033365E+02  0.59301947230E+02  0.50000005840E+02 0.  0.
         12    1    1    2    0    0 -0.23190563143E+02  0.61678790687E+01  0.20997033365E+02  0.31886052770E+02  0.00000000000E+00 0. -1.
         11    1    3    3    0    0  0.19551680261E+02  0.71116211812E+01 -0.16795577873E+02  0.26738264588E+02  0.51100000000E-03 0. -1.
        -11    1    3    3    0    0 -0.37146651344E+01 -0.21029670778E+02 -0.47080766745E+01  0.21868053784E+02  0.51100000000E-03 0.  1.
        -12    1    3    3    0    0  0.73535480164E+01  0.77501705278E+01  0.50662118188E+00  0.10695628858E+02  0.00000000000E+00 0.  1.
</event>
<event>
 7    1  0.7578565E-012  0.5930196E+02  0.7816164E-02  0.1266605E+00
        -11   -1    0    0    0    0  0.00000000000E+00  0.00000000000E+00  0.45593999997E+02  0.45594000000E+02  0.51100000000E-03 0.  1.
         11   -1    0    0    0    0 -0.00000000000E+00 -0.00000000000E+00 -0.45593999997E+02  0.45594000000E+02  0.51100000000E-03 0. -1.
    9900012    2    1    2    0    0  0.93126967724E+01 -0.27418570962E+02  0.13349722398E+02  0.59301961631E+02  0.50000032104E+02 0.  0.
         12    1    1    2    0    0 -0.93126967724E+01  0.27418570962E+02 -0.13349722398E+02  0.31886038369E+02  0.00000000000E+00 0. -1.
         11    1    3    3    0    0  0.35031939710E+01  0.28255201591E+01 -0.46597625391E+01  0.64783732024E+01  0.51100000000E-03 0. -1.
        -11    1    3    3    0    0  0.11668946685E+00 -0.36123629099E+02  0.23384714720E+02  0.43032256256E+02  0.51100000000E-03 0.  1.
        -12    1    3    3    0    0  0.56928133346E+01  0.58795379781E+01 -0.53752297822E+01  0.97913321724E+01  0.00000000000E+00 0.  1.
</event>
<event>
 7    1  0.7578565E-012  0.5930194E+02  0.7816164E-02  0.1266605E+00
        -11   -1    0    0    0    0  0.00000000000E+00  0.00000000000E+00  0.45593999997E+02  0.45594000000E+02  0.51100000000E-03 0. -1.
         11   -1    0    0    0    0 -0.00000000000E+00 -0.00000000000E+00 -0.45593999997E+02  0.45594000000E+02  0.51100000000E-03 0.  1.
    9900012    2    1    2    0    0 -0.91958402184E+01 -0.22611883190E+02 -0.20514882015E+02  0.59301935288E+02  0.49999984061E+02 0.  0.
         12    1    1    2    0    0  0.91958402184E+01  0.22611883190E+02  0.20514882015E+02  0.31886064712E+02  0.00000000000E+00 0. -1.
         11    1    3    3    0    0 -0.23681802363E+02 -0.24042200262E+02 -0.49450407892E+01  0.34107309851E+02  0.51100000000E-03 0. -1.
        -11    1    3    3    0    0  0.37677079211E+01  0.54634702942E+01 -0.10772684561E+01  0.67235138300E+01  0.51100000000E-03 0.  1.
         12    1    3    3    0    0  0.10718254223E+02 -0.40331532223E+01 -0.14492572770E+02  0.18471111607E+02  0.00000000000E+00 0. -1.
</event>
